Generated by CHARMM-GUI FF-Converter
137512
    1POPC     N    1   4.646   4.595   6.309
    1POPC   C12    2   4.590   4.636   6.174
    1POPC  H12A    3   4.611   4.739   6.150
    1POPC  H12B    4   4.482   4.624   6.174
    1POPC   C13    5   4.797   4.583   6.299
    1POPC  H13A    6   4.843   4.556   6.394
    1POPC  H13B    7   4.819   4.501   6.231
    1POPC  H13C    8   4.846   4.670   6.258
    1POPC   C14    9   4.612   4.693   6.415
    1POPC  H14A   10   4.660   4.661   6.508
    1POPC  H14B   11   4.651   4.791   6.391
    1POPC  H14C   12   4.505   4.701   6.430
    1POPC   C15   13   4.596   4.458   6.346
    1POPC  H15A   14   4.488   4.453   6.351
    1POPC  H15B   15   4.640   4.421   6.438
    1POPC  H15C   16   4.623   4.386   6.267
    1POPC   C11   17   4.637   4.549   6.059
    1POPC  H11A   18   4.748   4.534   6.059
    1POPC  H11B   19   4.613   4.600   5.965
    1POPC     P   20   4.616   4.304   5.985
    1POPC   O13   21   4.586   4.183   6.064
    1POPC   O14   22   4.754   4.331   5.942
    1POPC   O12   23   4.563   4.428   6.067
    1POPC   O11   24   4.522   4.307   5.858
    1POPC    C1   25   4.386   4.270   5.879
    1POPC    HA   26   4.344   4.312   5.973
    1POPC    HB   27   4.381   4.159   5.890
    1POPC    C2   28   4.292   4.315   5.762
    1POPC    HS   29   4.196   4.261   5.776
    1POPC   O21   30   4.344   4.286   5.631
    1POPC   C21   31   4.371   4.158   5.611
    1POPC   O22   32   4.341   4.067   5.685
    1POPC   C22   33   4.443   4.139   5.478
    1POPC   H2R   34   4.373   4.162   5.395
    1POPC   H2S   35   4.472   4.032   5.472
    1POPC    C3   36   4.260   4.468   5.770
    1POPC    HX   37   4.235   4.492   5.876
    1POPC    HY   38   4.169   4.486   5.708
    1POPC   O31   39   4.367   4.548   5.717
    1POPC   C31   40   4.423   4.641   5.791
    1POPC   O32   41   4.381   4.683   5.898
    1POPC   C32   42   4.550   4.693   5.722
    1POPC   H2X   43   4.635   4.686   5.791
    1POPC   H2Y   44   4.536   4.800   5.698
    1POPC   C23   45   4.568   4.229   5.473
    1POPC   H3R   46   4.615   4.229   5.575
    1POPC   H3S   47   4.539   4.334   5.451
    1POPC   C24   48   4.675   4.180   5.377
    1POPC   H4R   49   4.666   4.070   5.361
    1POPC   H4S   50   4.773   4.199   5.427
    1POPC   C25   51   4.679   4.253   5.242
    1POPC   H5R   52   4.657   4.360   5.256
    1POPC   H5S   53   4.601   4.211   5.175
    1POPC   C26   54   4.819   4.234   5.184
    1POPC   H6R   55   4.828   4.127   5.159
    1POPC   H6S   56   4.892   4.255   5.265
    1POPC   C27   57   4.863   4.321   5.066
    1POPC   H7R   58   4.957   4.281   5.023
    1POPC   H7S   59   4.886   4.422   5.107
    1POPC   C28   60   4.760   4.346   4.956
    1POPC   H8R   61   4.809   4.418   4.888
    1POPC   H8S   62   4.676   4.401   5.002
    1POPC   C29   63   4.710   4.229   4.874
    1POPC   H91   64   4.786   4.181   4.811
    1POPC  C210   65   4.585   4.184   4.871
    1POPC  H101   66   4.559   4.104   4.800
    1POPC  C211   67   4.468   4.239   4.949
    1POPC  H11R   68   4.483   4.343   4.986
    1POPC  H11S   69   4.452   4.174   5.037
    1POPC  C212   70   4.338   4.236   4.870
    1POPC  H12R   71   4.252   4.233   4.941
    1POPC  H12S   72   4.336   4.145   4.807
    1POPC  C213   73   4.318   4.350   4.773
    1POPC  H13R   74   4.397   4.347   4.694
    1POPC  H13S   75   4.323   4.448   4.824
    1POPC  C214   76   4.183   4.334   4.706
    1POPC  H14R   77   4.102   4.319   4.781
    1POPC  H14S   78   4.184   4.244   4.641
    1POPC  C215   79   4.154   4.455   4.620
    1POPC  H15R   80   4.243   4.475   4.557
    1POPC  H15S   81   4.142   4.542   4.689
    1POPC  C216   82   4.030   4.440   4.531
    1POPC  H16R   83   4.059   4.413   4.428
    1POPC  H16S   84   3.995   4.545   4.525
    1POPC  C217   85   3.922   4.339   4.582
    1POPC  H17R   86   3.874   4.385   4.671
    1POPC  H17S   87   3.972   4.246   4.616
    1POPC  C218   88   3.813   4.289   4.485
    1POPC  H18R   89   3.777   4.367   4.415
    1POPC  H18S   90   3.727   4.251   4.544
    1POPC  H18T   91   3.848   4.203   4.424
    1POPC   C33   92   4.585   4.616   5.594
    1POPC   H3X   93   4.504   4.628   5.519
    1POPC   H3Y   94   4.594   4.507   5.619
    1POPC   C34   95   4.717   4.664   5.536
    1POPC   H4X   96   4.796   4.650   5.613
    1POPC   H4Y   97   4.713   4.773   5.513
    1POPC   C35   98   4.753   4.584   5.411
    1POPC   H5X   99   4.743   4.476   5.436
    1POPC   H5Y  100   4.861   4.599   5.395
    1POPC   C36  101   4.672   4.611   5.283
    1POPC   H6X  102   4.570   4.567   5.294
    1POPC   H6Y  103   4.724   4.554   5.203
    1POPC   C37  104   4.656   4.757   5.236
    1POPC   H7X  105   4.755   4.807   5.241
    1POPC   H7Y  106   4.590   4.812   5.307
    1POPC   C38  107   4.602   4.777   5.092
    1POPC   H8X  108   4.653   4.864   5.047
    1POPC   H8Y  109   4.494   4.803   5.096
    1POPC   C39  110   4.614   4.657   4.996
    1POPC   H9X  111   4.556   4.571   5.038
    1POPC   H9Y  112   4.721   4.627   4.989
    1POPC  C310  113   4.561   4.685   4.854
    1POPC  H10X  114   4.604   4.782   4.820
    1POPC  H10Y  115   4.451   4.697   4.860
    1POPC  C311  116   4.595   4.578   4.749
    1POPC  H11X  117   4.523   4.587   4.665
    1POPC  H11Y  118   4.582   4.476   4.792
    1POPC  C312  119   4.736   4.597   4.692
    1POPC  H12X  120   4.814   4.582   4.770
    1POPC  H12Y  121   4.742   4.704   4.662
    1POPC  C313  122   4.770   4.512   4.568
    1POPC  H13X  123   4.865   4.551   4.525
    1POPC  H13Y  124   4.691   4.527   4.494
    1POPC  C314  125   4.787   4.363   4.596
    1POPC  H14X  126   4.689   4.312   4.607
    1POPC  H14Y  127   4.841   4.357   4.693
    1POPC  C315  128   4.878   4.289   4.498
    1POPC  H15X  129   4.940   4.218   4.558
    1POPC  H15Y  130   4.947   4.361   4.450
    1POPC  C316  131   4.803   4.208   4.392
    1POPC  H16X  132   4.713   4.159   4.437
    1POPC  H16Y  133   4.867   4.129   4.349
    1POPC  H16Z  134   4.771   4.274   4.309
    2POPC     N  135   5.277   5.229   6.207
    2POPC   C12  136   5.320   5.163   6.076
    2POPC  H12A  137   5.384   5.228   6.018
    2POPC  H12B  138   5.229   5.144   6.017
    2POPC   C13  139   5.137   5.181   6.232
    2POPC  H13A  140   5.067   5.215   6.156
    2POPC  H13B  141   5.138   5.072   6.219
    2POPC  H13C  142   5.100   5.202   6.331
    2POPC   C14  143   5.364   5.183   6.321
    2POPC  H14A  144   5.353   5.075   6.333
    2POPC  H14B  145   5.469   5.204   6.304
    2POPC  H14C  146   5.336   5.229   6.414
    2POPC   C15  147   5.278   5.378   6.199
    2POPC  H15A  148   5.379   5.417   6.187
    2POPC  H15B  149   5.239   5.417   6.293
    2POPC  H15C  150   5.216   5.415   6.118
    2POPC   C11  151   5.385   5.024   6.087
    2POPC  H11A  152   5.482   5.031   6.141
    2POPC  H11B  153   5.411   4.988   5.984
    2POPC     P  154   5.184   4.861   6.073
    2POPC   O13  155   5.103   4.967   6.009
    2POPC   O14  156   5.118   4.763   6.161
    2POPC   O12  157   5.297   4.936   6.157
    2POPC   O11  158   5.284   4.791   5.978
    2POPC    C1  159   5.261   4.715   5.863
    2POPC    HA  160   5.170   4.747   5.807
    2POPC    HB  161   5.252   4.608   5.891
    2POPC    C2  162   5.387   4.736   5.778
    2POPC    HS  163   5.475   4.721   5.845
    2POPC   O21  164   5.383   4.870   5.724
    2POPC   C21  165   5.499   4.914   5.682
    2POPC   O22  166   5.608   4.869   5.712
    2POPC   C22  167   5.474   5.034   5.591
    2POPC   H2R  168   5.465   5.123   5.655
    2POPC   H2S  169   5.377   5.019   5.538
    2POPC    C3  170   5.394   4.633   5.665
    2POPC    HX  171   5.401   4.531   5.708
    2POPC    HY  172   5.485   4.652   5.603
    2POPC   O31  173   5.271   4.647   5.592
    2POPC   C31  174   5.275   4.596   5.473
    2POPC   O32  175   5.371   4.545   5.418
    2POPC   C32  176   5.135   4.603   5.415
    2POPC   H2X  177   5.070   4.667   5.478
    2POPC   H2Y  178   5.093   4.500   5.413
    2POPC   C23  179   5.588   5.052   5.489
    2POPC   H3R  180   5.683   5.073   5.543
    2POPC   H3S  181   5.565   5.142   5.426
    2POPC   C24  182   5.611   4.932   5.396
    2POPC   H4R  183   5.636   4.842   5.456
    2POPC   H4S  184   5.701   4.954   5.333
    2POPC   C25  185   5.496   4.896   5.301
    2POPC   H5R  186   5.475   4.984   5.236
    2POPC   H5S  187   5.403   4.871   5.358
    2POPC   C26  188   5.536   4.775   5.214
    2POPC   H6R  189   5.549   4.686   5.279
    2POPC   H6S  190   5.634   4.799   5.168
    2POPC   C27  191   5.442   4.737   5.098
    2POPC   H7R  192   5.352   4.691   5.142
    2POPC   H7S  193   5.490   4.657   5.037
    2POPC   C28  194   5.397   4.853   5.008
    2POPC   H8R  195   5.345   4.928   5.071
    2POPC   H8S  196   5.322   4.814   4.935
    2POPC   C29  197   5.514   4.912   4.936
    2POPC   H91  198   5.597   4.842   4.918
    2POPC  C210  199   5.526   5.040   4.896
    2POPC  H101  200   5.618   5.070   4.842
    2POPC  C211  201   5.424   5.149   4.915
    2POPC  H11R  202   5.456   5.217   4.997
    2POPC  H11S  203   5.325   5.107   4.945
    2POPC  C212  204   5.402   5.232   4.787
    2POPC  H12R  205   5.316   5.300   4.806
    2POPC  H12S  206   5.373   5.166   4.703
    2POPC  C213  207   5.524   5.317   4.750
    2POPC  H13R  208   5.610   5.253   4.722
    2POPC  H13S  209   5.554   5.374   4.841
    2POPC  C214  210   5.498   5.419   4.638
    2POPC  H14R  211   5.572   5.501   4.651
    2POPC  H14S  212   5.397   5.463   4.649
    2POPC  C215  213   5.517   5.364   4.495
    2POPC  H15R  214   5.613   5.309   4.487
    2POPC  H15S  215   5.524   5.454   4.429
    2POPC  C216  216   5.401   5.278   4.442
    2POPC  H16R  217   5.306   5.308   4.493
    2POPC  H16S  218   5.420   5.171   4.466
    2POPC  C217  219   5.383   5.297   4.291
    2POPC  H17R  220   5.477   5.269   4.240
    2POPC  H17S  221   5.365   5.405   4.272
    2POPC  C218  222   5.267   5.218   4.232
    2POPC  H18R  223   5.252   5.244   4.125
    2POPC  H18S  224   5.172   5.240   4.287
    2POPC  H18T  225   5.286   5.109   4.239
    2POPC   C33  226   5.143   4.658   5.273
    2POPC   H3X  227   5.200   4.587   5.209
    2POPC   H3Y  228   5.193   4.758   5.273
    2POPC   C34  229   5.006   4.675   5.211
    2POPC   H4X  230   4.946   4.743   5.275
    2POPC   H4Y  231   4.957   4.575   5.210
    2POPC   C35  232   5.009   4.730   5.069
    2POPC   H5X  233   4.914   4.701   5.019
    2POPC   H5Y  234   5.093   4.686   5.012
    2POPC   C36  235   5.020   4.883   5.070
    2POPC   H6X  236   5.125   4.912   5.086
    2POPC   H6Y  237   4.961   4.925   5.154
    2POPC   C37  238   4.965   4.945   4.941
    2POPC   H7X  239   4.997   5.052   4.937
    2POPC   H7Y  240   4.853   4.944   4.947
    2POPC   C38  241   5.007   4.873   4.813
    2POPC   H8X  242   4.968   4.768   4.813
    2POPC   H8Y  243   5.117   4.870   4.805
    2POPC   C39  244   4.946   4.946   4.693
    2POPC   H9X  245   4.994   5.046   4.685
    2POPC   H9Y  246   4.841   4.960   4.720
    2POPC  C310  247   4.948   4.877   4.556
    2POPC  H10X  248   4.941   4.954   4.477
    2POPC  H10Y  249   4.861   4.810   4.543
    2POPC  C311  250   5.076   4.797   4.540
    2POPC  H11X  251   5.078   4.713   4.613
    2POPC  H11Y  252   5.158   4.867   4.566
    2POPC  C312  253   5.096   4.739   4.400
    2POPC  H12X  254   5.099   4.821   4.325
    2POPC  H12Y  255   5.011   4.672   4.373
    2POPC  C313  256   5.227   4.660   4.394
    2POPC  H13X  257   5.252   4.645   4.287
    2POPC  H13Y  258   5.211   4.560   4.441
    2POPC  C314  259   5.347   4.729   4.459
    2POPC  H14X  260   5.437   4.664   4.446
    2POPC  H14Y  261   5.331   4.737   4.569
    2POPC  C315  262   5.375   4.868   4.399
    2POPC  H15X  263   5.447   4.920   4.465
    2POPC  H15Y  264   5.282   4.929   4.403
    2POPC  C316  265   5.425   4.865   4.255
    2POPC  H16X  266   5.514   4.800   4.243
    2POPC  H16Y  267   5.453   4.967   4.221
    2POPC  H16Z  268   5.346   4.826   4.188
    3POPC     N  269   4.315   5.213   6.358
    3POPC   C12  270   4.208   5.296   6.287
    3POPC  H12A  271   4.200   5.391   6.339
    3POPC  H12B  272   4.112   5.248   6.295
    3POPC   C13  273   4.273   5.195   6.500
    3POPC  H13A  274   4.171   5.159   6.507
    3POPC  H13B  275   4.341   5.129   6.553
    3POPC  H13C  276   4.271   5.290   6.552
    3POPC   C14  277   4.341   5.085   6.285
    3POPC  H14A  278   4.376   5.109   6.184
    3POPC  H14B  279   4.419   5.028   6.333
    3POPC  H14C  280   4.253   5.023   6.274
    3POPC   C15  281   4.444   5.289   6.359
    3POPC  H15A  282   4.433   5.382   6.413
    3POPC  H15B  283   4.470   5.318   6.257
    3POPC  H15C  284   4.526   5.233   6.401
    3POPC   C11  285   4.229   5.331   6.138
    3POPC  H11A  286   4.142   5.390   6.101
    3POPC  H11B  287   4.231   5.237   6.078
    3POPC     P  288   4.441   5.392   5.997
    3POPC   O13  289   4.576   5.433   6.040
    3POPC   O14  290   4.379   5.457   5.880
    3POPC   O12  291   4.346   5.411   6.124
    3POPC   O11  292   4.440   5.234   5.983
    3POPC    C1  293   4.555   5.163   5.935
    3POPC    HA  294   4.597   5.106   6.020
    3POPC    HB  295   4.636   5.230   5.898
    3POPC    C2  296   4.517   5.063   5.823
    3POPC    HS  297   4.572   4.968   5.842
    3POPC   O21  298   4.553   5.115   5.693
    3POPC   C21  299   4.678   5.098   5.655
    3POPC   O22  300   4.764   5.039   5.718
    3POPC   C22  301   4.690   5.148   5.510
    3POPC   H2R  302   4.629   5.078   5.449
    3POPC   H2S  303   4.795   5.138   5.478
    3POPC    C3  304   4.366   5.027   5.823
    3POPC    HX  305   4.307   5.121   5.817
    3POPC    HY  306   4.342   4.981   5.921
    3POPC   O31  307   4.336   4.931   5.718
    3POPC   C31  308   4.274   4.982   5.612
    3POPC   O32  309   4.223   5.092   5.605
    3POPC   C32  310   4.280   4.881   5.497
    3POPC   H2X  311   4.205   4.802   5.514
    3POPC   H2Y  312   4.381   4.836   5.494
    3POPC   C23  313   4.637   5.291   5.482
    3POPC   H3R  314   4.711   5.367   5.516
    3POPC   H3S  315   4.543   5.309   5.540
    3POPC   C24  316   4.603   5.315   5.334
    3POPC   H4R  317   4.552   5.414   5.325
    3POPC   H4S  318   4.529   5.238   5.300
    3POPC   C25  319   4.724   5.314   5.239
    3POPC   H5R  320   4.778   5.217   5.246
    3POPC   H5S  321   4.794   5.395   5.270
    3POPC   C26  322   4.681   5.338   5.093
    3POPC   H6R  323   4.616   5.428   5.092
    3POPC   H6S  324   4.620   5.252   5.058
    3POPC   C27  325   4.794   5.362   4.991
    3POPC   H7R  326   4.838   5.264   4.961
    3POPC   H7S  327   4.875   5.424   5.036
    3POPC   C28  328   4.736   5.436   4.868
    3POPC   H8R  329   4.710   5.539   4.901
    3POPC   H8S  330   4.638   5.387   4.847
    3POPC   C29  331   4.814   5.443   4.739
    3POPC   H91  332   4.866   5.539   4.722
    3POPC  C210  333   4.829   5.343   4.650
    3POPC  H101  334   4.890   5.363   4.560
    3POPC  C211  335   4.772   5.204   4.659
    3POPC  H11R  336   4.805   5.163   4.757
    3POPC  H11S  337   4.818   5.142   4.579
    3POPC  C212  338   4.620   5.174   4.651
    3POPC  H12R  339   4.587   5.174   4.545
    3POPC  H12S  340   4.569   5.256   4.704
    3POPC  C213  341   4.577   5.044   4.722
    3POPC  H13R  342   4.561   5.066   4.830
    3POPC  H13S  343   4.655   4.967   4.715
    3POPC  C214  344   4.454   4.973   4.665
    3POPC  H14R  345   4.373   5.046   4.646
    3POPC  H14S  346   4.416   4.900   4.740
    3POPC  C215  347   4.487   4.896   4.536
    3POPC  H15R  348   4.572   4.825   4.552
    3POPC  H15S  349   4.518   4.969   4.458
    3POPC  C216  350   4.365   4.819   4.486
    3POPC  H16R  351   4.281   4.889   4.499
    3POPC  H16S  352   4.347   4.729   4.549
    3POPC  C217  353   4.374   4.779   4.340
    3POPC  H17R  354   4.480   4.757   4.320
    3POPC  H17S  355   4.356   4.866   4.275
    3POPC  C218  356   4.284   4.659   4.302
    3POPC  H18R  357   4.302   4.629   4.196
    3POPC  H18S  358   4.176   4.679   4.312
    3POPC  H18T  359   4.310   4.572   4.367
    3POPC   C33  360   4.253   4.956   5.364
    3POPC   H3X  361   4.332   5.034   5.352
    3POPC   H3Y  362   4.156   5.010   5.371
    3POPC   C34  363   4.249   4.867   5.240
    3POPC   H4X  364   4.170   4.789   5.254
    3POPC   H4Y  365   4.346   4.814   5.230
    3POPC   C35  366   4.216   4.947   5.112
    3POPC   H5X  367   4.119   4.995   5.134
    3POPC   H5Y  368   4.201   4.880   5.025
    3POPC   C36  369   4.313   5.060   5.074
    3POPC   H6X  370   4.389   5.024   5.001
    3POPC   H6Y  371   4.370   5.094   5.164
    3POPC   C37  372   4.239   5.182   5.017
    3POPC   H7X  373   4.138   5.189   5.064
    3POPC   H7Y  374   4.224   5.167   4.908
    3POPC   C38  375   4.308   5.317   5.046
    3POPC   H8X  376   4.413   5.312   5.011
    3POPC   H8Y  377   4.311   5.334   5.156
    3POPC   C39  378   4.238   5.438   4.980
    3POPC   H9X  379   4.298   5.529   5.003
    3POPC   H9Y  380   4.137   5.452   5.026
    3POPC  C310  381   4.222   5.426   4.828
    3POPC  H10X  382   4.193   5.524   4.786
    3POPC  H10Y  383   4.141   5.354   4.803
    3POPC  C311  384   4.352   5.380   4.761
    3POPC  H11X  385   4.375   5.275   4.792
    3POPC  H11Y  386   4.435   5.444   4.796
    3POPC  C312  387   4.349   5.384   4.608
    3POPC  H12X  388   4.450   5.356   4.573
    3POPC  H12Y  389   4.331   5.488   4.575
    3POPC  C313  390   4.248   5.289   4.544
    3POPC  H13X  391   4.147   5.335   4.547
    3POPC  H13Y  392   4.240   5.195   4.604
    3POPC  C314  393   4.285   5.250   4.399
    3POPC  H14X  394   4.192   5.222   4.344
    3POPC  H14Y  395   4.350   5.159   4.403
    3POPC  C315  396   4.361   5.356   4.319
    3POPC  H15X  397   4.389   5.310   4.222
    3POPC  H15Y  398   4.457   5.381   4.368
    3POPC  C316  399   4.283   5.484   4.293
    3POPC  H16X  400   4.179   5.463   4.261
    3POPC  H16Y  401   4.331   5.538   4.210
    3POPC  H16Z  402   4.281   5.551   4.381
    4POPC     N  403   3.868   4.550   6.294
    4POPC   C12  404   3.823   4.519   6.151
    4POPC  H12A  405   3.714   4.528   6.144
    4POPC  H12B  406   3.847   4.417   6.127
    4POPC   C13  407   4.018   4.546   6.306
    4POPC  H13A  408   4.062   4.611   6.231
    4POPC  H13B  409   4.048   4.585   6.403
    4POPC  H13C  410   4.059   4.447   6.295
    4POPC   C14  411   3.821   4.689   6.324
    4POPC  H14A  412   3.847   4.752   6.238
    4POPC  H14B  413   3.713   4.694   6.329
    4POPC  H14C  414   3.864   4.730   6.414
    4POPC   C15  415   3.809   4.461   6.398
    4POPC  H15A  416   3.841   4.357   6.387
    4POPC  H15B  417   3.701   4.466   6.401
    4POPC  H15C  418   3.844   4.492   6.496
    4POPC   C11  419   3.877   4.611   6.039
    4POPC  H11A  420   3.849   4.571   5.939
    4POPC  H11B  421   3.988   4.612   6.042
    4POPC     P  422   3.687   4.794   6.012
    4POPC   O13  423   3.691   4.867   5.884
    4POPC   O14  424   3.633   4.867   6.130
    4POPC   O12  425   3.832   4.746   6.051
    4POPC   O11  426   3.603   4.659   5.999
    4POPC    C1  427   3.463   4.660   6.037
    4POPC    HA  428   3.423   4.762   6.057
    4POPC    HB  429   3.452   4.601   6.130
    4POPC    C2  430   3.367   4.598   5.930
    4POPC    HS  431   3.273   4.569   5.981
    4POPC   O21  432   3.421   4.482   5.863
    4POPC   C21  433   3.476   4.386   5.932
    4POPC   O22  434   3.464   4.364   6.051
    4POPC   C22  435   3.561   4.298   5.841
    4POPC   H2R  436   3.495   4.248   5.767
    4POPC   H2S  437   3.607   4.221   5.906
    4POPC    C3  438   3.327   4.704   5.821
    4POPC    HX  439   3.267   4.782   5.874
    4POPC    HY  440   3.257   4.657   5.748
    4POPC   O31  441   3.437   4.770   5.756
    4POPC   C31  442   3.486   4.706   5.651
    4POPC   O32  443   3.451   4.596   5.613
    4POPC   C32  444   3.578   4.798   5.570
    4POPC   H2X  445   3.683   4.772   5.595
    4POPC   H2Y  446   3.560   4.903   5.600
    4POPC   C23  447   3.668   4.382   5.769
    4POPC   H3R  448   3.700   4.467   5.835
    4POPC   H3S  449   3.624   4.429   5.679
    4POPC   C24  450   3.793   4.304   5.731
    4POPC   H4R  451   3.766   4.223   5.659
    4POPC   H4S  452   3.836   4.254   5.821
    4POPC   C25  453   3.899   4.397   5.669
    4POPC   H5R  454   3.994   4.341   5.653
    4POPC   H5S  455   3.920   4.480   5.740
    4POPC   C26  456   3.859   4.457   5.533
    4POPC   H6R  457   3.948   4.510   5.491
    4POPC   H6S  458   3.779   4.534   5.546
    4POPC   C27  459   3.812   4.353   5.430
    4POPC   H7R  460   3.706   4.325   5.449
    4POPC   H7S  461   3.872   4.262   5.448
    4POPC   C28  462   3.833   4.395   5.284
    4POPC   H8R  463   3.832   4.304   5.222
    4POPC   H8S  464   3.935   4.438   5.274
    4POPC   C29  465   3.729   4.495   5.240
    4POPC   H91  466   3.739   4.594   5.286
    4POPC  C210  467   3.625   4.476   5.156
    4POPC  H101  468   3.554   4.559   5.140
    4POPC  C211  469   3.589   4.347   5.088
    4POPC  H11R  470   3.516   4.291   5.149
    4POPC  H11S  471   3.680   4.284   5.080
    4POPC  C212  472   3.539   4.352   4.943
    4POPC  H12R  473   3.483   4.258   4.921
    4POPC  H12S  474   3.628   4.352   4.876
    4POPC  C213  475   3.450   4.470   4.902
    4POPC  H13R  476   3.487   4.567   4.942
    4POPC  H13S  477   3.346   4.455   4.940
    4POPC  C214  478   3.451   4.477   4.750
    4POPC  H14R  479   3.472   4.377   4.707
    4POPC  H14S  480   3.536   4.540   4.719
    4POPC  C215  481   3.324   4.533   4.688
    4POPC  H15R  482   3.320   4.642   4.710
    4POPC  H15S  483   3.234   4.485   4.732
    4POPC  C216  484   3.325   4.507   4.537
    4POPC  H16R  485   3.299   4.400   4.518
    4POPC  H16S  486   3.427   4.519   4.499
    4POPC  C217  487   3.231   4.597   4.457
    4POPC  H17R  488   3.128   4.579   4.496
    4POPC  H17S  489   3.236   4.563   4.351
    4POPC  C218  490   3.260   4.747   4.461
    4POPC  H18R  491   3.260   4.784   4.566
    4POPC  H18S  492   3.182   4.803   4.405
    4POPC  H18T  493   3.358   4.771   4.415
    4POPC   C33  494   3.551   4.778   5.418
    4POPC   H3X  495   3.443   4.794   5.398
    4POPC   H3Y  496   3.574   4.673   5.392
    4POPC   C34  497   3.630   4.872   5.325
    4POPC   H4X  498   3.595   4.976   5.342
    4POPC   H4Y  499   3.605   4.845   5.220
    4POPC   C35  500   3.783   4.870   5.345
    4POPC   H5X  501   3.822   4.767   5.343
    4POPC   H5Y  502   3.805   4.912   5.446
    4POPC   C36  503   3.856   4.955   5.240
    4POPC   H6X  504   3.957   4.981   5.278
    4POPC   H6Y  505   3.800   5.050   5.227
    4POPC   C37  506   3.869   4.882   5.105
    4POPC   H7X  507   3.780   4.817   5.090
    4POPC   H7Y  508   3.957   4.814   5.107
    4POPC   C38  509   3.879   4.978   4.985
    4POPC   H8X  510   3.980   5.023   4.981
    4POPC   H8Y  511   3.806   5.062   4.997
    4POPC   C39  512   3.852   4.905   4.853
    4POPC   H9X  513   3.909   4.809   4.856
    4POPC   H9Y  514   3.891   4.965   4.768
    4POPC  C310  515   3.703   4.878   4.829
    4POPC  H10X  516   3.663   4.962   4.768
    4POPC  H10Y  517   3.648   4.882   4.926
    4POPC  C311  518   3.670   4.743   4.761
    4POPC  H11X  519   3.569   4.752   4.717
    4POPC  H11Y  520   3.666   4.666   4.841
    4POPC  C312  521   3.771   4.696   4.655
    4POPC  H12X  522   3.857   4.649   4.710
    4POPC  H12Y  523   3.813   4.783   4.604
    4POPC  C313  524   3.725   4.594   4.548
    4POPC  H13X  525   3.686   4.503   4.597
    4POPC  H13Y  526   3.814   4.562   4.491
    4POPC  C314  527   3.634   4.636   4.431
    4POPC  H14X  528   3.549   4.691   4.473
    4POPC  H14Y  529   3.595   4.543   4.384
    4POPC  C315  530   3.703   4.712   4.317
    4POPC  H15X  531   3.751   4.801   4.361
    4POPC  H15Y  532   3.625   4.747   4.246
    4POPC  C316  533   3.810   4.635   4.238
    4POPC  H16X  534   3.808   4.667   4.132
    4POPC  H16Y  535   3.912   4.655   4.277
    4POPC  H16Z  536   3.791   4.526   4.245
    5POPC     N  537   5.669   4.029   6.206
    5POPC   C12  538   5.574   4.019   6.087
    5POPC  H12A  539   5.473   4.006   6.126
    5POPC  H12B  540   5.599   3.929   6.032
    5POPC   C13  541   5.782   4.120   6.170
    5POPC  H13A  542   5.737   4.215   6.140
    5POPC  H13B  543   5.846   4.137   6.255
    5POPC  H13C  544   5.838   4.083   6.085
    5POPC   C14  545   5.593   4.091   6.320
    5POPC  H14A  546   5.556   4.188   6.288
    5POPC  H14B  547   5.503   4.035   6.343
    5POPC  H14C  548   5.653   4.104   6.409
    5POPC   C15  549   5.716   3.895   6.249
    5POPC  H15A  550   5.782   3.849   6.177
    5POPC  H15B  551   5.634   3.828   6.270
    5POPC  H15C  552   5.770   3.905   6.344
    5POPC   C11  553   5.564   4.137   5.987
    5POPC  H11A  554   5.494   4.111   5.903
    5POPC  H11B  555   5.661   4.155   5.936
    5POPC     P  556   5.367   4.272   6.088
    5POPC   O13  557   5.348   4.414   6.124
    5POPC   O14  558   5.341   4.174   6.195
    5POPC   O12  559   5.521   4.257   6.050
    5POPC   O11  560   5.289   4.236   5.956
    5POPC    C1  561   5.157   4.297   5.949
    5POPC    HA  562   5.164   4.402   5.914
    5POPC    HB  563   5.105   4.298   6.048
    5POPC    C2  564   5.062   4.218   5.855
    5POPC    HS  565   4.957   4.237   5.884
    5POPC   O21  566   5.087   4.076   5.863
    5POPC   C21  567   5.068   4.024   5.985
    5POPC   O22  568   5.017   4.079   6.081
    5POPC   C22  569   5.130   3.885   5.990
    5POPC   H2R  570   5.097   3.831   5.900
    5POPC   H2S  571   5.091   3.833   6.080
    5POPC    C3  572   5.077   4.269   5.706
    5POPC    HX  573   5.015   4.361   5.701
    5POPC    HY  574   5.028   4.195   5.639
    5POPC   O31  575   5.210   4.303   5.659
    5POPC   C31  576   5.282   4.198   5.618
    5POPC   O32  577   5.247   4.083   5.624
    5POPC   C32  578   5.406   4.244   5.542
    5POPC   H2X  579   5.489   4.176   5.569
    5POPC   H2Y  580   5.433   4.347   5.573
    5POPC   C23  581   5.283   3.894   5.997
    5POPC   H3R  582   5.315   3.907   6.103
    5POPC   H3S  583   5.315   3.985   5.941
    5POPC   C24  584   5.352   3.775   5.930
    5POPC   H4R  585   5.278   3.719   5.868
    5POPC   H4S  586   5.389   3.705   6.008
    5POPC   C25  587   5.465   3.820   5.838
    5POPC   H5R  588   5.544   3.743   5.834
    5POPC   H5S  589   5.515   3.910   5.877
    5POPC   C26  590   5.417   3.852   5.697
    5POPC   H6R  591   5.470   3.943   5.660
    5POPC   H6S  592   5.309   3.876   5.701
    5POPC   C27  593   5.440   3.735   5.602
    5POPC   H7R  594   5.342   3.692   5.570
    5POPC   H7S  595   5.491   3.656   5.658
    5POPC   C28  596   5.533   3.767   5.486
    5POPC   H8R  597   5.566   3.672   5.437
    5POPC   H8S  598   5.625   3.818   5.523
    5POPC   C29  599   5.454   3.856   5.397
    5POPC   H91  600   5.444   3.959   5.433
    5POPC  C210  601   5.388   3.820   5.287
    5POPC  H101  602   5.335   3.899   5.235
    5POPC  C211  603   5.376   3.683   5.223
    5POPC  H11R  604   5.271   3.647   5.233
    5POPC  H11S  605   5.442   3.607   5.269
    5POPC  C212  606   5.407   3.695   5.073
    5POPC  H12R  607   5.384   3.599   5.022
    5POPC  H12S  608   5.515   3.718   5.061
    5POPC  C213  609   5.336   3.812   5.005
    5POPC  H13R  610   5.396   3.905   5.021
    5POPC  H13S  611   5.241   3.826   5.058
    5POPC  C214  612   5.312   3.796   4.856
    5POPC  H14R  613   5.246   3.709   4.835
    5POPC  H14S  614   5.410   3.780   4.808
    5POPC  C215  615   5.258   3.923   4.792
    5POPC  H15R  616   5.326   4.008   4.814
    5POPC  H15S  617   5.159   3.947   4.835
    5POPC  C216  618   5.237   3.912   4.641
    5POPC  H16R  619   5.180   3.819   4.617
    5POPC  H16S  620   5.335   3.907   4.589
    5POPC  C217  621   5.155   4.032   4.595
    5POPC  H17R  622   5.203   4.126   4.632
    5POPC  H17S  623   5.055   4.029   4.643
    5POPC  C218  624   5.140   4.038   4.444
    5POPC  H18R  625   5.088   4.131   4.417
    5POPC  H18S  626   5.081   3.951   4.407
    5POPC  H18T  627   5.240   4.037   4.394
    5POPC   C33  628   5.378   4.237   5.390
    5POPC   H3X  629   5.294   4.306   5.368
    5POPC   H3Y  630   5.345   4.135   5.361
    5POPC   C34  631   5.495   4.278   5.299
    5POPC   H4X  632   5.542   4.372   5.335
    5POPC   H4Y  633   5.451   4.301   5.199
    5POPC   C35  634   5.602   4.169   5.279
    5POPC   H5X  635   5.551   4.073   5.257
    5POPC   H5Y  636   5.661   4.156   5.372
    5POPC   C36  637   5.697   4.198   5.161
    5POPC   H6X  638   5.777   4.121   5.160
    5POPC   H6Y  639   5.746   4.297   5.175
    5POPC   C37  640   5.622   4.196   5.027
    5POPC   H7X  641   5.590   4.299   5.002
    5POPC   H7Y  642   5.530   4.134   5.037
    5POPC   C38  643   5.704   4.136   4.912
    5POPC   H8X  644   5.731   4.031   4.937
    5POPC   H8Y  645   5.798   4.192   4.900
    5POPC   C39  646   5.630   4.136   4.778
    5POPC   H9X  647   5.529   4.092   4.793
    5POPC   H9Y  648   5.682   4.072   4.704
    5POPC  C310  649   5.618   4.278   4.720
    5POPC  H10X  650   5.693   4.291   4.639
    5POPC  H10Y  651   5.640   4.353   4.798
    5POPC  C311  652   5.478   4.306   4.664
    5POPC  H11X  653   5.473   4.414   4.640
    5POPC  H11Y  654   5.401   4.285   4.741
    5POPC  C312  655   5.451   4.223   4.538
    5POPC  H12X  656   5.391   4.134   4.564
    5POPC  H12Y  657   5.547   4.181   4.499
    5POPC  C313  658   5.384   4.307   4.430
    5POPC  H13X  659   5.301   4.365   4.475
    5POPC  H13Y  660   5.340   4.242   4.351
    5POPC  C314  661   5.487   4.400   4.366
    5POPC  H14X  662   5.540   4.459   4.444
    5POPC  H14Y  663   5.434   4.473   4.303
    5POPC  C315  664   5.589   4.323   4.281
    5POPC  H15X  665   5.549   4.221   4.262
    5POPC  H15Y  666   5.683   4.310   4.341
    5POPC  C316  667   5.620   4.387   4.147
    5POPC  H16X  668   5.579   4.325   4.064
    5POPC  H16Y  669   5.730   4.395   4.132
    5POPC  H16Z  670   5.576   4.488   4.139
    6POPC     N  671   3.892   3.902   6.305
    6POPC   C12  672   4.006   3.983   6.245
    6POPC  H12A  673   4.040   4.056   6.317
    6POPC  H12B  674   3.968   4.036   6.160
    6POPC   C13  675   3.815   3.832   6.196
    6POPC  H13A  676   3.766   3.899   6.126
    6POPC  H13B  677   3.885   3.772   6.136
    6POPC  H13C  678   3.741   3.765   6.237
    6POPC   C14  679   3.955   3.795   6.390
    6POPC  H14A  680   3.882   3.724   6.424
    6POPC  H14B  681   4.028   3.744   6.326
    6POPC  H14C  682   4.010   3.840   6.470
    6POPC   C15  683   3.801   3.984   6.389
    6POPC  H15A  684   3.729   3.919   6.438
    6POPC  H15B  685   3.746   4.057   6.331
    6POPC  H15C  686   3.856   4.035   6.467
    6POPC   C11  687   4.130   3.903   6.197
    6POPC  H11A  688   4.196   3.879   6.284
    6POPC  H11B  689   4.192   3.965   6.128
    6POPC     P  690   4.150   3.710   6.013
    6POPC   O13  691   4.053   3.608   5.968
    6POPC   O14  692   4.280   3.659   6.060
    6POPC   O12  693   4.087   3.782   6.137
    6POPC   O11  694   4.166   3.826   5.906
    6POPC    C1  695   4.076   3.937   5.891
    6POPC    HA  696   4.132   4.031   5.908
    6POPC    HB  697   3.995   3.932   5.967
    6POPC    C2  698   4.002   3.942   5.754
    6POPC    HS  699   3.893   3.956   5.776
    6POPC   O21  700   4.031   3.823   5.684
    6POPC   C21  701   3.951   3.727   5.716
    6POPC   O22  702   3.855   3.736   5.792
    6POPC   C22  703   3.989   3.616   5.620
    6POPC   H2R  704   3.922   3.529   5.635
    6POPC   H2S  705   4.093   3.583   5.641
    6POPC    C3  706   4.036   4.051   5.652
    6POPC    HX  707   4.140   4.024   5.625
    6POPC    HY  708   4.035   4.151   5.699
    6POPC   O31  709   3.947   4.043   5.537
    6POPC   C31  710   4.012   4.054   5.420
    6POPC   O32  711   4.124   4.098   5.407
    6POPC   C32  712   3.930   4.000   5.300
    6POPC   H2X  713   3.966   3.897   5.284
    6POPC   H2Y  714   3.964   4.062   5.214
    6POPC   C23  715   3.975   3.670   5.476
    6POPC   H3R  716   4.065   3.726   5.444
    6POPC   H3S  717   3.888   3.741   5.473
    6POPC   C24  718   3.940   3.558   5.383
    6POPC   H4R  719   3.867   3.498   5.441
    6POPC   H4S  720   4.026   3.489   5.367
    6POPC   C25  721   3.874   3.602   5.251
    6POPC   H5R  722   3.805   3.687   5.273
    6POPC   H5S  723   3.811   3.524   5.203
    6POPC   C26  724   3.974   3.647   5.148
    6POPC   H6R  725   4.017   3.737   5.193
    6POPC   H6S  726   3.922   3.672   5.053
    6POPC   C27  727   4.094   3.557   5.119
    6POPC   H7R  728   4.057   3.465   5.069
    6POPC   H7S  729   4.146   3.528   5.213
    6POPC   C28  730   4.200   3.627   5.031
    6POPC   H8R  731   4.157   3.635   4.929
    6POPC   H8S  732   4.287   3.559   5.019
    6POPC   C29  733   4.249   3.760   5.085
    6POPC   H91  734   4.341   3.752   5.147
    6POPC  C210  735   4.192   3.882   5.073
    6POPC  H101  736   4.243   3.967   5.120
    6POPC  C211  737   4.064   3.919   5.002
    6POPC  H11R  738   4.047   4.029   5.010
    6POPC  H11S  739   3.978   3.874   5.053
    6POPC  C212  740   4.054   3.886   4.853
    6POPC  H12R  741   3.952   3.905   4.812
    6POPC  H12S  742   4.076   3.780   4.832
    6POPC  C213  743   4.156   3.974   4.784
    6POPC  H13R  744   4.242   3.984   4.853
    6POPC  H13S  745   4.112   4.075   4.768
    6POPC  C214  746   4.211   3.915   4.655
    6POPC  H14R  747   4.212   3.804   4.662
    6POPC  H14S  748   4.317   3.947   4.645
    6POPC  C215  749   4.127   3.963   4.538
    6POPC  H15R  750   4.039   4.020   4.576
    6POPC  H15S  751   4.084   3.877   4.485
    6POPC  C216  752   4.208   4.052   4.445
    6POPC  H16R  753   4.280   3.994   4.384
    6POPC  H16S  754   4.268   4.123   4.507
    6POPC  C217  755   4.121   4.135   4.351
    6POPC  H17R  756   4.038   4.182   4.405
    6POPC  H17S  757   4.075   4.069   4.275
    6POPC  C218  758   4.209   4.244   4.293
    6POPC  H18R  759   4.231   4.318   4.373
    6POPC  H18S  760   4.162   4.296   4.207
    6POPC  H18T  761   4.305   4.200   4.261
    6POPC   C33  762   3.774   3.998   5.297
    6POPC   H3X  763   3.737   4.073   5.371
    6POPC   H3Y  764   3.735   3.899   5.328
    6POPC   C34  765   3.717   4.036   5.158
    6POPC   H4X  766   3.779   4.120   5.119
    6POPC   H4Y  767   3.614   4.074   5.171
    6POPC   C35  768   3.713   3.928   5.048
    6POPC   H5X  769   3.707   3.827   5.094
    6POPC   H5Y  770   3.805   3.934   4.988
    6POPC   C36  771   3.599   3.943   4.946
    6POPC   H6X  772   3.585   4.051   4.920
    6POPC   H6Y  773   3.506   3.908   4.992
    6POPC   C37  774   3.620   3.864   4.815
    6POPC   H7X  775   3.686   3.924   4.748
    6POPC   H7Y  776   3.521   3.855   4.764
    6POPC   C38  777   3.681   3.724   4.829
    6POPC   H8X  778   3.618   3.661   4.895
    6POPC   H8Y  779   3.781   3.733   4.876
    6POPC   C39  780   3.696   3.656   4.691
    6POPC   H9X  781   3.741   3.728   4.620
    6POPC   H9Y  782   3.594   3.630   4.654
    6POPC  C310  783   3.782   3.528   4.691
    6POPC  H10X  784   3.768   3.478   4.593
    6POPC  H10Y  785   3.744   3.459   4.770
    6POPC  C311  786   3.933   3.550   4.713
    6POPC  H11X  787   3.981   3.451   4.726
    6POPC  H11Y  788   3.948   3.606   4.808
    6POPC  C312  789   4.008   3.623   4.599
    6POPC  H12X  790   4.116   3.626   4.628
    6POPC  H12Y  791   3.971   3.727   4.590
    6POPC  C313  792   3.997   3.551   4.463
    6POPC  H13X  793   3.897   3.574   4.421
    6POPC  H13Y  794   3.999   3.442   4.486
    6POPC  C314  795   4.109   3.573   4.358
    6POPC  H14X  796   4.092   3.496   4.280
    6POPC  H14Y  797   4.208   3.551   4.403
    6POPC  C315  798   4.117   3.708   4.283
    6POPC  H15X  799   4.176   3.691   4.190
    6POPC  H15Y  800   4.178   3.780   4.341
    6POPC  C316  801   3.984   3.771   4.242
    6POPC  H16X  802   3.919   3.788   4.331
    6POPC  H16Y  803   3.931   3.704   4.171
    6POPC  H16Z  804   4.000   3.868   4.191
    7POPC     N  805   4.867   3.379   6.253
    7POPC   C12  806   4.984   3.402   6.158
    7POPC  H12A  807   5.017   3.310   6.113
    7POPC  H12B  808   5.069   3.441   6.214
    7POPC   C13  809   4.740   3.385   6.175
    7POPC  H13A  810   4.742   3.316   6.093
    7POPC  H13B  811   4.651   3.376   6.235
    7POPC  H13C  812   4.733   3.485   6.127
    7POPC   C14  813   4.883   3.254   6.332
    7POPC  H14A  814   4.980   3.253   6.380
    7POPC  H14B  815   4.808   3.250   6.411
    7POPC  H14C  816   4.874   3.165   6.271
    7POPC   C15  817   4.862   3.493   6.350
    7POPC  H15A  818   4.876   3.586   6.294
    7POPC  H15B  819   4.946   3.491   6.419
    7POPC  H15C  820   4.769   3.498   6.404
    7POPC   C11  821   4.957   3.505   6.046
    7POPC  H11A  822   4.888   3.460   5.971
    7POPC  H11B  823   5.051   3.530   5.994
    7POPC     P  824   4.820   3.730   6.031
    7POPC   O13  825   4.874   3.733   5.894
    7POPC   O14  826   4.824   3.850   6.117
    7POPC   O12  827   4.902   3.621   6.107
    7POPC   O11  828   4.673   3.670   6.030
    7POPC    C1  829   4.575   3.766   5.984
    7POPC    HA  830   4.599   3.873   6.009
    7POPC    HB  831   4.481   3.748   6.039
    7POPC    C2  832   4.540   3.761   5.831
    7POPC    HS  833   4.431   3.736   5.824
    7POPC   O21  834   4.615   3.669   5.751
    7POPC   C21  835   4.598   3.541   5.764
    7POPC   O22  836   4.524   3.482   5.841
    7POPC   C22  837   4.674   3.469   5.650
    7POPC   H2R  838   4.640   3.512   5.554
    7POPC   H2S  839   4.640   3.363   5.654
    7POPC    C3  840   4.556   3.902   5.768
    7POPC    HX  841   4.506   3.975   5.835
    7POPC    HY  842   4.498   3.899   5.673
    7POPC   O31  843   4.693   3.946   5.747
    7POPC   C31  844   4.740   3.914   5.628
    7POPC   O32  845   4.678   3.857   5.539
    7POPC   C32  846   4.879   3.973   5.606
    7POPC   H2X  847   4.948   3.938   5.686
    7POPC   H2Y  848   4.866   4.083   5.615
    7POPC   C23  849   4.829   3.468   5.657
    7POPC   H3R  850   4.868   3.372   5.616
    7POPC   H3S  851   4.862   3.475   5.763
    7POPC   C24  852   4.897   3.581   5.578
    7POPC   H4R  853   4.990   3.611   5.632
    7POPC   H4S  854   4.831   3.670   5.577
    7POPC   C25  855   4.938   3.544   5.434
    7POPC   H5R  856   4.998   3.451   5.436
    7POPC   H5S  857   5.004   3.625   5.394
    7POPC   C26  858   4.820   3.529   5.337
    7POPC   H6R  859   4.762   3.625   5.338
    7POPC   H6S  860   4.751   3.448   5.371
    7POPC   C27  861   4.866   3.499   5.194
    7POPC   H7R  862   4.954   3.563   5.172
    7POPC   H7S  863   4.786   3.527   5.121
    7POPC   C28  864   4.899   3.350   5.175
    7POPC   H8R  865   4.804   3.295   5.155
    7POPC   H8S  866   4.937   3.309   5.271
    7POPC   C29  867   5.002   3.326   5.067
    7POPC   H91  868   5.106   3.338   5.101
    7POPC  C210  869   4.978   3.297   4.938
    7POPC  H101  870   5.064   3.283   4.871
    7POPC  C211  871   4.844   3.282   4.871
    7POPC  H11R  872   4.760   3.279   4.944
    7POPC  H11S  873   4.840   3.186   4.814
    7POPC  C212  874   4.821   3.400   4.776
    7POPC  H12R  875   4.907   3.411   4.706
    7POPC  H12S  876   4.816   3.494   4.836
    7POPC  C213  877   4.693   3.389   4.692
    7POPC  H13R  878   4.675   3.489   4.646
    7POPC  H13S  879   4.606   3.366   4.757
    7POPC  C214  880   4.703   3.287   4.577
    7POPC  H14R  881   4.683   3.185   4.616
    7POPC  H14S  882   4.806   3.288   4.536
    7POPC  C215  883   4.606   3.320   4.462
    7POPC  H15R  884   4.630   3.421   4.422
    7POPC  H15S  885   4.502   3.324   4.503
    7POPC  C216  886   4.612   3.219   4.347
    7POPC  H16R  887   4.598   3.117   4.390
    7POPC  H16S  888   4.712   3.222   4.300
    7POPC  C217  889   4.503   3.243   4.241
    7POPC  H17R  890   4.522   3.342   4.193
    7POPC  H17S  891   4.404   3.249   4.291
    7POPC  C218  892   4.498   3.134   4.133
    7POPC  H18R  893   4.431   3.164   4.050
    7POPC  H18S  894   4.460   3.039   4.176
    7POPC  H18T  895   4.599   3.115   4.091
    7POPC   C33  896   4.926   3.936   5.464
    7POPC   H3X  897   4.846   3.966   5.394
    7POPC   H3Y  898   4.937   3.826   5.456
    7POPC   C34  899   5.057   3.999   5.415
    7POPC   H4X  900   5.141   3.938   5.454
    7POPC   H4Y  901   5.068   4.102   5.455
    7POPC   C35  902   5.068   4.009   5.262
    7POPC   H5X  903   5.175   4.013   5.234
    7POPC   H5Y  904   5.028   4.106   5.229
    7POPC   C36  905   4.997   3.897   5.185
    7POPC   H6X  906   4.888   3.894   5.207
    7POPC   H6Y  907   5.040   3.799   5.218
    7POPC   C37  908   5.014   3.913   5.034
    7POPC   H7X  909   5.055   3.818   4.993
    7POPC   H7Y  910   5.088   3.995   5.018
    7POPC   C38  911   4.888   3.940   4.951
    7POPC   H8X  912   4.921   3.983   4.854
    7POPC   H8Y  913   4.822   4.013   5.000
    7POPC   C39  914   4.812   3.810   4.927
    7POPC   H9X  915   4.782   3.769   5.027
    7POPC   H9Y  916   4.880   3.736   4.879
    7POPC  C310  917   4.687   3.827   4.840
    7POPC  H10X  918   4.620   3.901   4.888
    7POPC  H10Y  919   4.633   3.730   4.839
    7POPC  C311  920   4.718   3.870   4.695
    7POPC  H11X  921   4.824   3.901   4.685
    7POPC  H11Y  922   4.656   3.958   4.671
    7POPC  C312  923   4.689   3.759   4.593
    7POPC  H12X  924   4.599   3.703   4.628
    7POPC  H12Y  925   4.774   3.688   4.590
    7POPC  C313  926   4.656   3.813   4.453
    7POPC  H13X  927   4.586   3.899   4.465
    7POPC  H13Y  928   4.601   3.735   4.397
    7POPC  C314  929   4.778   3.859   4.372
    7POPC  H14X  930   4.844   3.922   4.436
    7POPC  H14Y  931   4.742   3.923   4.288
    7POPC  C315  932   4.859   3.744   4.311
    7POPC  H15X  933   4.887   3.673   4.391
    7POPC  H15Y  934   4.954   3.786   4.269
    7POPC  C316  935   4.786   3.670   4.199
    7POPC  H16X  936   4.847   3.585   4.162
    7POPC  H16Y  937   4.766   3.738   4.114
    7POPC  H16Z  938   4.690   3.628   4.235
    8POPC     N  939   4.935   5.720   6.238
    8POPC   C12  940   5.069   5.736   6.167
    8POPC  H12A  941   5.051   5.723   6.060
    8POPC  H12B  942   5.134   5.658   6.202
    8POPC   C13  943   4.913   5.825   6.341
    8POPC  H13A  944   4.908   5.923   6.294
    8POPC  H13B  945   4.818   5.809   6.391
    8POPC  H13C  946   4.994   5.829   6.413
    8POPC   C14  947   4.822   5.734   6.140
    8POPC  H14A  948   4.823   5.659   6.062
    8POPC  H14B  949   4.726   5.727   6.192
    8POPC  H14C  950   4.827   5.833   6.093
    8POPC   C15  951   4.923   5.586   6.304
    8POPC  H15A  952   4.824   5.579   6.349
    8POPC  H15B  953   4.994   5.573   6.385
    8POPC  H15C  954   4.931   5.504   6.234
    8POPC   C11  955   5.147   5.869   6.179
    8POPC  H11A  956   5.247   5.858   6.132
    8POPC  H11B  957   5.166   5.892   6.286
    8POPC     P  958   5.058   5.994   5.965
    8POPC   O13  959   5.045   5.858   5.908
    8POPC   O14  960   5.164   6.084   5.914
    8POPC   O12  961   5.077   5.976   6.120
    8POPC   O11  962   4.918   6.065   5.964
    8POPC    C1  963   4.885   6.145   6.077
    8POPC    HA  964   4.969   6.213   6.107
    8POPC    HB  965   4.860   6.081   6.165
    8POPC    C2  966   4.765   6.235   6.043
    8POPC    HS  967   4.726   6.277   6.138
    8POPC   O21  968   4.660   6.162   5.975
    8POPC   C21  969   4.609   6.057   6.036
    8POPC   O22  970   4.624   6.024   6.153
    8POPC   C22  971   4.511   5.988   5.939
    8POPC   H2R  972   4.427   6.059   5.927
    8POPC   H2S  973   4.472   5.898   5.990
    8POPC    C3  974   4.814   6.355   5.954
    8POPC    HX  975   4.897   6.404   6.010
    8POPC    HY  976   4.732   6.429   5.944
    8POPC   O31  977   4.858   6.308   5.825
    8POPC   C31  978   4.953   6.378   5.766
    8POPC   O32  979   4.983   6.493   5.792
    8POPC   C32  980   5.021   6.294   5.657
    8POPC   H2X  981   5.117   6.259   5.702
    8POPC   H2Y  982   5.042   6.361   5.571
    8POPC   C23  983   4.564   5.951   5.797
    8POPC   H3R  984   4.627   6.032   5.755
    8POPC   H3S  985   4.474   5.942   5.732
    8POPC   C24  986   4.636   5.814   5.789
    8POPC   H4R  987   4.573   5.739   5.842
    8POPC   H4S  988   4.734   5.822   5.841
    8POPC   C25  989   4.658   5.761   5.645
    8POPC   H5R  990   4.562   5.757   5.590
    8POPC   H5S  991   4.695   5.656   5.652
    8POPC   C26  992   4.761   5.842   5.564
    8POPC   H6R  993   4.856   5.840   5.623
    8POPC   H6S  994   4.728   5.948   5.556
    8POPC   C27  995   4.791   5.787   5.423
    8POPC   H7R  996   4.814   5.678   5.431
    8POPC   H7S  997   4.884   5.837   5.387
    8POPC   C28  998   4.681   5.811   5.318
    8POPC   H8R  999   4.658   5.920   5.315
    8POPC   H8S 1000   4.589   5.759   5.350
    8POPC   C29 1001   4.727   5.760   5.183
    8POPC   H91 1002   4.788   5.668   5.188
    8POPC  C210 1003   4.701   5.813   5.062
    8POPC  H101 1004   4.743   5.762   4.974
    8POPC  C211 1005   4.620   5.936   5.031
    8POPC  H11R 1006   4.686   6.021   5.003
    8POPC  H11S 1007   4.560   5.969   5.119
    8POPC  C212 1008   4.524   5.907   4.914
    8POPC  H12R 1009   4.455   5.824   4.946
    8POPC  H12S 1010   4.580   5.871   4.825
    8POPC  C213 1011   4.437   6.027   4.875
    8POPC  H13R 1012   4.412   6.084   4.967
    8POPC  H13S 1013   4.342   5.990   4.831
    8POPC  C214 1014   4.502   6.124   4.774
    8POPC  H14R 1015   4.600   6.157   4.812
    8POPC  H14S 1016   4.436   6.213   4.767
    8POPC  C215 1017   4.516   6.066   4.633
    8POPC  H15R 1018   4.419   6.021   4.603
    8POPC  H15S 1019   4.593   5.985   4.633
    8POPC  C216 1020   4.555   6.172   4.529
    8POPC  H16R 1021   4.480   6.255   4.530
    8POPC  H16S 1022   4.549   6.125   4.428
    8POPC  C217 1023   4.696   6.229   4.548
    8POPC  H17R 1024   4.762   6.149   4.589
    8POPC  H17S 1025   4.692   6.310   4.624
    8POPC  C218 1026   4.757   6.281   4.418
    8POPC  H18R 1027   4.778   6.197   4.348
    8POPC  H18S 1028   4.853   6.333   4.441
    8POPC  H18T 1029   4.690   6.354   4.368
    8POPC   C33 1030   4.941   6.170   5.611
    8POPC   H3X 1031   4.850   6.199   5.556
    8POPC   H3Y 1032   4.910   6.110   5.701
    8POPC   C34 1033   5.026   6.077   5.524
    8POPC   H4X 1034   4.972   5.982   5.510
    8POPC   H4Y 1035   5.121   6.052   5.578
    8POPC   C35 1036   5.059   6.134   5.386
    8POPC   H5X 1037   5.131   6.217   5.400
    8POPC   H5Y 1038   4.968   6.178   5.339
    8POPC   C36 1039   5.117   6.027   5.293
    8POPC   H6X 1040   5.038   5.988   5.226
    8POPC   H6Y 1041   5.154   5.942   5.354
    8POPC   C37 1042   5.235   6.080   5.210
    8POPC   H7X 1043   5.271   6.002   5.140
    8POPC   H7Y 1044   5.318   6.100   5.281
    8POPC   C38 1045   5.203   6.209   5.133
    8POPC   H8X 1046   5.294   6.235   5.074
    8POPC   H8Y 1047   5.185   6.292   5.204
    8POPC   C39 1048   5.083   6.201   5.039
    8POPC   H9X 1049   5.060   6.303   5.000
    8POPC   H9Y 1050   4.994   6.165   5.095
    8POPC  C310 1051   5.110   6.108   4.921
    8POPC  H10X 1052   5.149   6.011   4.959
    8POPC  H10Y 1053   5.189   6.154   4.857
    8POPC  C311 1054   4.985   6.080   4.838
    8POPC  H11X 1055   4.958   6.171   4.780
    8POPC  H11Y 1056   4.900   6.057   4.907
    8POPC  C312 1057   5.005   5.960   4.744
    8POPC  H12X 1058   4.914   5.949   4.682
    8POPC  H12Y 1059   5.016   5.868   4.806
    8POPC  C313 1060   5.130   5.976   4.656
    8POPC  H13X 1061   5.221   5.977   4.721
    8POPC  H13Y 1062   5.126   6.074   4.605
    8POPC  C314 1063   5.149   5.863   4.553
    8POPC  H14X 1064   5.149   5.766   4.606
    8POPC  H14Y 1065   5.249   5.876   4.505
    8POPC  C315 1066   5.043   5.862   4.442
    8POPC  H15X 1067   4.943   5.857   4.489
    8POPC  H15Y 1068   5.056   5.771   4.379
    8POPC  C316 1069   5.047   5.986   4.352
    8POPC  H16X 1070   4.968   5.981   4.274
    8POPC  H16Y 1071   5.146   5.995   4.302
    8POPC  H16Z 1072   5.030   6.077   4.412
    9POPC     N 1073   6.020   4.930   6.205
    9POPC   C12 1074   5.919   4.815   6.221
    9POPC  H12A 1075   5.820   4.848   6.190
    9POPC  H12B 1076   5.914   4.789   6.326
    9POPC   C13 1077   6.076   4.932   6.066
    9POPC  H13A 1078   6.159   5.000   6.057
    9POPC  H13B 1079   6.117   4.833   6.043
    9POPC  H13C 1080   6.001   4.951   5.990
    9POPC   C14 1081   5.958   5.061   6.238
    9POPC  H14A 1082   5.883   5.087   6.165
    9POPC  H14B 1083   5.912   5.059   6.337
    9POPC  H14C 1084   6.035   5.138   6.243
    9POPC   C15 1085   6.134   4.909   6.300
    9POPC  H15A 1086   6.206   4.990   6.298
    9POPC  H15B 1087   6.188   4.819   6.270
    9POPC  H15C 1088   6.100   4.896   6.402
    9POPC   C11 1089   5.946   4.682   6.144
    9POPC  H11A 1090   5.945   4.704   6.035
    9POPC  H11B 1091   5.857   4.616   6.159
    9POPC     P 1092   6.195   4.597   6.102
    9POPC   O13 1093   6.238   4.457   6.122
    9POPC   O14 1094   6.290   4.702   6.144
    9POPC   O12 1095   6.063   4.613   6.190
    9POPC   O11 1096   6.141   4.626   5.958
    9POPC    C1 1097   6.182   4.569   5.835
    9POPC    HA 1098   6.093   4.558   5.768
    9POPC    HB 1099   6.226   4.468   5.849
    9POPC    C2 1100   6.283   4.662   5.763
    9POPC    HS 1101   6.357   4.690   5.841
    9POPC   O21 1102   6.215   4.777   5.707
    9POPC   C21 1103   6.297   4.879   5.691
    9POPC   O22 1104   6.411   4.885   5.734
    9POPC   C22 1105   6.227   4.991   5.613
    9POPC   H2R 1106   6.282   5.085   5.633
    9POPC   H2S 1107   6.124   4.999   5.652
    9POPC    C3 1108   6.358   4.587   5.650
    9POPC    HX 1109   6.413   4.502   5.694
    9POPC    HY 1110   6.433   4.658   5.607
    9POPC   O31 1111   6.263   4.538   5.553
    9POPC   C31 1112   6.304   4.541   5.427
    9POPC   O32 1113   6.415   4.574   5.390
    9POPC   C32 1114   6.192   4.495   5.336
    9POPC   H2X 1115   6.150   4.400   5.375
    9POPC   H2Y 1116   6.240   4.476   5.238
    9POPC   C23 1117   6.226   4.960   5.462
    9POPC   H3R 1118   6.160   5.034   5.411
    9POPC   H3S 1119   6.183   4.859   5.444
    9POPC   C24 1120   6.366   4.970   5.399
    9POPC   H4R 1121   6.437   4.903   5.452
    9POPC   H4S 1122   6.404   5.074   5.409
    9POPC   C25 1123   6.366   4.932   5.250
    9POPC   H5R 1124   6.293   4.996   5.196
    9POPC   H5S 1125   6.332   4.826   5.239
    9POPC   C26 1126   6.504   4.946   5.185
    9POPC   H6R 1127   6.577   4.875   5.230
    9POPC   H6S 1128   6.541   5.050   5.204
    9POPC   C27 1129   6.497   4.925   5.033
    9POPC   H7R 1130   6.581   4.977   4.983
    9POPC   H7S 1131   6.402   4.972   5.001
    9POPC   C28 1132   6.500   4.776   4.992
    9POPC   H8R 1133   6.457   4.719   5.077
    9POPC   H8S 1134   6.607   4.746   4.984
    9POPC   C29 1135   6.430   4.745   4.862
    9POPC   H91 1136   6.443   4.820   4.783
    9POPC  C210 1137   6.358   4.634   4.835
    9POPC  H101 1138   6.317   4.621   4.734
    9POPC  C211 1139   6.336   4.519   4.930
    9POPC  H11R 1140   6.379   4.537   5.031
    9POPC  H11S 1141   6.390   4.434   4.886
    9POPC  C212 1142   6.193   4.464   4.951
    9POPC  H12R 1143   6.121   4.546   4.937
    9POPC  H12S 1144   6.182   4.428   5.055
    9POPC  C213 1145   6.162   4.343   4.862
    9POPC  H13R 1146   6.198   4.250   4.912
    9POPC  H13S 1147   6.219   4.353   4.767
    9POPC  C214 1148   6.012   4.330   4.831
    9POPC  H14R 1149   5.960   4.305   4.926
    9POPC  H14S 1150   5.999   4.246   4.759
    9POPC  C215 1151   5.946   4.454   4.770
    9POPC  H15R 1152   5.926   4.527   4.851
    9POPC  H15S 1153   5.847   4.426   4.727
    9POPC  C216 1154   6.029   4.521   4.661
    9POPC  H16R 1155   6.135   4.531   4.692
    9POPC  H16S 1156   5.995   4.625   4.646
    9POPC  C217 1157   6.023   4.444   4.529
    9POPC  H17R 1158   5.917   4.430   4.497
    9POPC  H17S 1159   6.066   4.343   4.548
    9POPC  C218 1160   6.101   4.514   4.420
    9POPC  H18R 1161   6.203   4.542   4.455
    9POPC  H18S 1162   6.049   4.608   4.390
    9POPC  H18T 1163   6.111   4.448   4.331
    9POPC   C33 1164   6.081   4.601   5.320
    9POPC   H3X 1165   6.127   4.694   5.277
    9POPC   H3Y 1166   6.037   4.627   5.419
    9POPC   C34 1167   5.967   4.556   5.227
    9POPC   H4X 1168   5.918   4.466   5.270
    9POPC   H4Y 1169   6.008   4.526   5.128
    9POPC   C35 1170   5.860   4.664   5.204
    9POPC   H5X 1171   5.812   4.687   5.302
    9POPC   H5Y 1172   5.781   4.621   5.138
    9POPC   C36 1173   5.911   4.796   5.142
    9POPC   H6X 1174   5.986   4.844   5.208
    9POPC   H6Y 1175   5.825   4.867   5.135
    9POPC   C37 1176   5.968   4.780   5.001
    9POPC   H7X 1177   5.903   4.708   4.946
    9POPC   H7Y 1178   6.071   4.737   5.007
    9POPC   C38 1179   5.972   4.910   4.921
    9POPC   H8X 1180   6.048   4.978   4.966
    9POPC   H8Y 1181   5.872   4.960   4.928
    9POPC   C39 1182   6.005   4.886   4.773
    9POPC   H9X 1183   5.927   4.821   4.728
    9POPC   H9Y 1184   6.102   4.832   4.768
    9POPC  C310 1185   6.014   5.017   4.693
    9POPC  H10X 1186   6.090   5.081   4.742
    9POPC  H10Y 1187   5.917   5.071   4.699
    9POPC  C311 1188   6.053   5.002   4.545
    9POPC  H11X 1189   6.078   5.105   4.511
    9POPC  H11Y 1190   5.966   4.971   4.484
    9POPC  C312 1191   6.169   4.905   4.516
    9POPC  H12X 1192   6.132   4.801   4.531
    9POPC  H12Y 1193   6.251   4.920   4.589
    9POPC  C313 1194   6.223   4.917   4.372
    9POPC  H13X 1195   6.142   4.883   4.305
    9POPC  H13Y 1196   6.307   4.846   4.359
    9POPC  C314 1197   6.271   5.058   4.331
    9POPC  H14X 1198   6.381   5.058   4.328
    9POPC  H14Y 1199   6.242   5.134   4.406
    9POPC  C315 1200   6.222   5.111   4.195
    9POPC  H15X 1201   6.279   5.059   4.115
    9POPC  H15Y 1202   6.251   5.219   4.192
    9POPC  C316 1203   6.072   5.100   4.166
    9POPC  H16X 1204   6.013   5.160   4.239
    9POPC  H16Y 1205   6.038   4.995   4.171
    9POPC  H16Z 1206   6.050   5.136   4.063
   10POPC     N 1207   5.875   5.428   6.041
   10POPC   C12 1208   5.853   5.412   6.191
   10POPC  H12A 1209   5.947   5.383   6.237
   10POPC  H12B 1210   5.779   5.336   6.210
   10POPC   C13 1211   5.765   5.511   5.981
   10POPC  H13A 1212   5.778   5.530   5.875
   10POPC  H13B 1213   5.667   5.469   5.998
   10POPC  H13C 1214   5.764   5.610   6.027
   10POPC   C14 1215   6.004   5.503   6.023
   10POPC  H14A 1216   6.091   5.443   6.047
   10POPC  H14B 1217   6.014   5.542   5.923
   10POPC  H14C 1218   6.005   5.589   6.090
   10POPC   C15 1219   5.882   5.299   5.969
   10POPC  H15A 1220   5.902   5.318   5.863
   10POPC  H15B 1221   5.788   5.247   5.975
   10POPC  H15C 1222   5.962   5.237   6.006
   10POPC   C11 1223   5.807   5.540   6.265
   10POPC  H11A 1224   5.799   5.518   6.373
   10POPC  H11B 1225   5.703   5.564   6.232
   10POPC     P 1226   5.847   5.794   6.227
   10POPC   O13 1227   5.957   5.877   6.172
   10POPC   O14 1228   5.781   5.834   6.353
   10POPC   O12 1229   5.900   5.645   6.245
   10POPC   O11 1230   5.736   5.774   6.112
   10POPC    C1 1231   5.616   5.854   6.114
   10POPC    HA 1232   5.641   5.961   6.128
   10POPC    HB 1233   5.553   5.824   6.200
   10POPC    C2 1234   5.524   5.847   5.985
   10POPC    HS 1235   5.425   5.890   6.013
   10POPC   O21 1236   5.507   5.710   5.943
   10POPC   C21 1237   5.429   5.680   5.838
   10POPC   O22 1238   5.371   5.756   5.765
   10POPC   C22 1239   5.418   5.526   5.834
   10POPC   H2R 1240   5.342   5.499   5.910
   10POPC   H2S 1241   5.515   5.482   5.863
   10POPC    C3 1242   5.582   5.937   5.870
   10POPC    HX 1243   5.555   6.041   5.899
   10POPC    HY 1244   5.532   5.922   5.772
   10POPC   O31 1245   5.726   5.931   5.856
   10POPC   C31 1246   5.770   5.819   5.799
   10POPC   O32 1247   5.702   5.734   5.746
   10POPC   C32 1248   5.922   5.814   5.809
   10POPC   H2X 1249   5.946   5.808   5.917
   10POPC   H2Y 1250   5.964   5.908   5.769
   10POPC   C23 1251   5.374   5.466   5.698
   10POPC   H3R 1252   5.283   5.518   5.660
   10POPC   H3S 1253   5.345   5.360   5.716
   10POPC   C24 1254   5.484   5.468   5.592
   10POPC   H4R 1255   5.476   5.375   5.530
   10POPC   H4S 1256   5.585   5.469   5.639
   10POPC   C25 1257   5.471   5.587   5.496
   10POPC   H5R 1258   5.479   5.683   5.552
   10POPC   H5S 1259   5.371   5.583   5.448
   10POPC   C26 1260   5.579   5.587   5.387
   10POPC   H6R 1261   5.597   5.483   5.352
   10POPC   H6S 1262   5.672   5.626   5.431
   10POPC   C27 1263   5.541   5.673   5.265
   10POPC   H7R 1264   5.441   5.641   5.231
   10POPC   H7S 1265   5.614   5.652   5.183
   10POPC   C28 1266   5.539   5.824   5.295
   10POPC   H8R 1267   5.476   5.843   5.385
   10POPC   H8S 1268   5.486   5.873   5.210
   10POPC   C29 1269   5.676   5.883   5.315
   10POPC   H91 1270   5.714   5.881   5.418
   10POPC  C210 1271   5.755   5.931   5.217
   10POPC  H101 1272   5.854   5.972   5.243
   10POPC  C211 1273   5.719   5.934   5.070
   10POPC  H11R 1274   5.667   5.840   5.041
   10POPC  H11S 1275   5.812   5.937   5.010
   10POPC  C212 1276   5.628   6.052   5.031
   10POPC  H12R 1277   5.678   6.148   5.056
   10POPC  H12S 1278   5.533   6.046   5.089
   10POPC  C213 1279   5.594   6.053   4.882
   10POPC  H13R 1280   5.506   6.119   4.863
   10POPC  H13S 1281   5.565   5.950   4.850
   10POPC  C214 1282   5.712   6.104   4.800
   10POPC  H14R 1283   5.807   6.065   4.843
   10POPC  H14S 1284   5.715   6.214   4.810
   10POPC  C215 1285   5.709   6.063   4.653
   10POPC  H15R 1286   5.616   6.099   4.604
   10POPC  H15S 1287   5.710   5.952   4.649
   10POPC  C216 1288   5.832   6.119   4.580
   10POPC  H16R 1289   5.923   6.080   4.630
   10POPC  H16S 1290   5.833   6.230   4.589
   10POPC  C217 1291   5.837   6.080   4.432
   10POPC  H17R 1292   5.928   6.124   4.385
   10POPC  H17S 1293   5.749   6.124   4.380
   10POPC  C218 1294   5.836   5.929   4.411
   10POPC  H18R 1295   5.919   5.883   4.470
   10POPC  H18S 1296   5.850   5.903   4.305
   10POPC  H18T 1297   5.740   5.886   4.446
   10POPC   C33 1298   5.979   5.692   5.734
   10POPC   H3X 1299   5.916   5.602   5.751
   10POPC   H3Y 1300   6.080   5.668   5.774
   10POPC   C34 1301   5.993   5.714   5.583
   10POPC   H4X 1302   6.072   5.790   5.564
   10POPC   H4Y 1303   5.898   5.754   5.541
   10POPC   C35 1304   6.029   5.584   5.509
   10POPC   H5X 1305   6.094   5.521   5.573
   10POPC   H5Y 1306   6.086   5.608   5.416
   10POPC   C36 1307   5.902   5.508   5.468
   10POPC   H6X 1308   5.862   5.555   5.376
   10POPC   H6Y 1309   5.826   5.521   5.548
   10POPC   C37 1310   5.918   5.357   5.445
   10POPC   H7X 1311   5.819   5.314   5.417
   10POPC   H7Y 1312   5.949   5.309   5.541
   10POPC   C38 1313   6.020   5.320   5.336
   10POPC   H8X 1314   6.032   5.210   5.331
   10POPC   H8Y 1315   6.118   5.361   5.366
   10POPC   C39 1316   5.986   5.373   5.196
   10POPC   H9X 1317   6.082   5.374   5.141
   10POPC   H9Y 1318   5.948   5.477   5.197
   10POPC  C310 1319   5.892   5.281   5.117
   10POPC  H10X 1320   5.786   5.309   5.135
   10POPC  H10Y 1321   5.906   5.177   5.155
   10POPC  C311 1322   5.925   5.279   4.967
   10POPC  H11X 1323   5.860   5.202   4.918
   10POPC  H11Y 1324   6.030   5.246   4.955
   10POPC  C312 1325   5.907   5.412   4.893
   10POPC  H12X 1326   5.978   5.488   4.933
   10POPC  H12Y 1327   5.804   5.450   4.911
   10POPC  C313 1328   5.930   5.395   4.742
   10POPC  H13X 1329   5.865   5.310   4.708
   10POPC  H13Y 1330   6.035   5.365   4.724
   10POPC  C314 1331   5.895   5.517   4.657
   10POPC  H14X 1332   5.964   5.602   4.680
   10POPC  H14Y 1333   5.792   5.550   4.683
   10POPC  C315 1334   5.900   5.484   4.507
   10POPC  H15X 1335   5.862   5.380   4.492
   10POPC  H15Y 1336   6.006   5.486   4.473
   10POPC  C316 1337   5.816   5.578   4.421
   10POPC  H16X 1338   5.710   5.578   4.455
   10POPC  H16Y 1339   5.819   5.548   4.314
   10POPC  H16Z 1340   5.856   5.680   4.429
   11POPC     N 1341   3.392   5.267   6.275
   11POPC   C12 1342   3.331   5.311   6.143
   11POPC  H12A 1343   3.247   5.375   6.166
   11POPC  H12B 1344   3.295   5.224   6.090
   11POPC   C13 1345   3.425   5.388   6.357
   11POPC  H13A 1346   3.335   5.438   6.390
   11POPC  H13B 1347   3.484   5.360   6.443
   11POPC  H13C 1348   3.482   5.458   6.296
   11POPC   C14 1349   3.297   5.184   6.354
   11POPC  H14A 1350   3.209   5.242   6.382
   11POPC  H14B 1351   3.259   5.098   6.300
   11POPC  H14C 1352   3.345   5.146   6.444
   11POPC   C15 1353   3.522   5.194   6.252
   11POPC  H15A 1354   3.510   5.104   6.192
   11POPC  H15B 1355   3.567   5.170   6.348
   11POPC  H15C 1356   3.590   5.261   6.201
   11POPC   C11 1357   3.423   5.393   6.048
   11POPC  H11A 1358   3.363   5.422   5.958
   11POPC  H11B 1359   3.507   5.329   6.014
   11POPC     P 1360   3.497   5.646   6.054
   11POPC   O13 1361   3.616   5.703   6.123
   11POPC   O14 1362   3.370   5.721   6.067
   11POPC   O12 1363   3.474   5.505   6.118
   11POPC   O11 1364   3.524   5.605   5.904
   11POPC    C1 1365   3.632   5.535   5.843
   11POPC    HA 1366   3.594   5.435   5.812
   11POPC    HB 1367   3.717   5.518   5.913
   11POPC    C2 1368   3.685   5.604   5.711
   11POPC    HS 1369   3.761   5.680   5.740
   11POPC   O21 1370   3.575   5.666   5.641
   11POPC   C21 1371   3.537   5.778   5.700
   11POPC   O22 1372   3.598   5.837   5.787
   11POPC   C22 1373   3.414   5.834   5.630
   11POPC   H2R 1374   3.458   5.889   5.545
   11POPC   H2S 1375   3.367   5.907   5.700
   11POPC    C3 1376   3.758   5.507   5.612
   11POPC    HX 1377   3.699   5.412   5.609
   11POPC    HY 1378   3.857   5.482   5.657
   11POPC   O31 1379   3.780   5.564   5.480
   11POPC   C31 1380   3.706   5.518   5.380
   11POPC   O32 1381   3.621   5.432   5.388
   11POPC   C32 1382   3.756   5.576   5.246
   11POPC   H2X 1383   3.803   5.493   5.191
   11POPC   H2Y 1384   3.834   5.652   5.265
   11POPC   C23 1385   3.311   5.734   5.575
   11POPC   H3R 1386   3.257   5.685   5.659
   11POPC   H3S 1387   3.362   5.654   5.516
   11POPC   C24 1388   3.214   5.808   5.481
   11POPC   H4R 1389   3.270   5.844   5.392
   11POPC   H4S 1390   3.176   5.897   5.536
   11POPC   C25 1391   3.093   5.726   5.435
   11POPC   H5R 1392   3.018   5.798   5.396
   11POPC   H5S 1393   3.047   5.674   5.523
   11POPC   C26 1394   3.123   5.625   5.324
   11POPC   H6R 1395   3.206   5.559   5.356
   11POPC   H6S 1396   3.156   5.680   5.233
   11POPC   C27 1397   3.000   5.538   5.291
   11POPC   H7R 1398   2.918   5.602   5.251
   11POPC   H7S 1399   2.963   5.494   5.386
   11POPC   C28 1400   3.027   5.423   5.193
   11POPC   H8R 1401   2.935   5.361   5.185
   11POPC   H8S 1402   3.107   5.357   5.236
   11POPC   C29 1403   3.063   5.471   5.055
   11POPC   H91 1404   2.978   5.494   4.989
   11POPC  C210 1405   3.188   5.485   5.009
   11POPC  H101 1406   3.203   5.524   4.907
   11POPC  C211 1407   3.315   5.457   5.088
   11POPC  H11R 1408   3.298   5.456   5.197
   11POPC  H11S 1409   3.385   5.540   5.068
   11POPC  C212 1410   3.385   5.325   5.051
   11POPC  H12R 1411   3.313   5.241   5.062
   11POPC  H12S 1412   3.470   5.307   5.121
   11POPC  C213 1413   3.439   5.331   4.908
   11POPC  H13R 1414   3.535   5.386   4.904
   11POPC  H13S 1415   3.365   5.393   4.853
   11POPC  C214 1416   3.450   5.198   4.833
   11POPC  H14R 1417   3.392   5.118   4.884
   11POPC  H14S 1418   3.557   5.167   4.831
   11POPC  C215 1419   3.397   5.216   4.690
   11POPC  H15R 1420   3.286   5.215   4.693
   11POPC  H15S 1421   3.427   5.130   4.628
   11POPC  C216 1422   3.442   5.349   4.626
   11POPC  H16R 1423   3.537   5.384   4.672
   11POPC  H16S 1424   3.362   5.424   4.646
   11POPC  C217 1425   3.465   5.347   4.476
   11POPC  H17R 1426   3.566   5.306   4.458
   11POPC  H17S 1427   3.477   5.451   4.441
   11POPC  C218 1428   3.356   5.271   4.397
   11POPC  H18R 1429   3.346   5.166   4.433
   11POPC  H18S 1430   3.385   5.266   4.290
   11POPC  H18T 1431   3.258   5.319   4.406
   11POPC   C33 1432   3.643   5.635   5.157
   11POPC   H3X 1433   3.600   5.727   5.202
   11POPC   H3Y 1434   3.562   5.560   5.149
   11POPC   C34 1435   3.695   5.666   5.015
   11POPC   H4X 1436   3.710   5.570   4.960
   11POPC   H4Y 1437   3.796   5.713   5.027
   11POPC   C35 1438   3.613   5.761   4.928
   11POPC   H5X 1439   3.680   5.791   4.844
   11POPC   H5Y 1440   3.586   5.855   4.981
   11POPC   C36 1441   3.486   5.703   4.864
   11POPC   H6X 1442   3.402   5.701   4.937
   11POPC   H6Y 1443   3.506   5.600   4.829
   11POPC   C37 1444   3.445   5.788   4.744
   11POPC   H7X 1445   3.536   5.818   4.688
   11POPC   H7Y 1446   3.395   5.880   4.782
   11POPC   C38 1447   3.353   5.720   4.644
   11POPC   H8X 1448   3.264   5.680   4.699
   11POPC   H8Y 1449   3.403   5.633   4.596
   11POPC   C39 1450   3.304   5.822   4.540
   11POPC   H9X 1451   3.276   5.912   4.596
   11POPC   H9Y 1452   3.211   5.785   4.494
   11POPC  C310 1453   3.399   5.874   4.430
   11POPC  H10X 1454   3.430   5.976   4.465
   11POPC  H10Y 1455   3.344   5.891   4.335
   11POPC  C311 1456   3.530   5.799   4.402
   11POPC  H11X 1457   3.553   5.722   4.477
   11POPC  H11Y 1458   3.606   5.879   4.410
   11POPC  C312 1459   3.558   5.750   4.260
   11POPC  H12X 1460   3.519   5.823   4.185
   11POPC  H12Y 1461   3.507   5.653   4.243
   11POPC  C313 1462   3.711   5.736   4.242
   11POPC  H13X 1463   3.756   5.838   4.239
   11POPC  H13Y 1464   3.733   5.687   4.145
   11POPC  C314 1465   3.775   5.660   4.359
   11POPC  H14X 1466   3.708   5.576   4.387
   11POPC  H14Y 1467   3.784   5.726   4.448
   11POPC  C315 1468   3.914   5.601   4.331
   11POPC  H15X 1469   3.990   5.681   4.329
   11POPC  H15Y 1470   3.914   5.552   4.231
   11POPC  C316 1471   3.950   5.496   4.437
   11POPC  H16X 1472   3.873   5.416   4.441
   11POPC  H16Y 1473   3.959   5.542   4.537
   11POPC  H16Z 1474   4.046   5.448   4.412
   12POPC     N 1475   3.975   6.049   6.328
   12POPC   C12 1476   4.046   5.943   6.245
   12POPC  H12A 1477   3.991   5.850   6.250
   12POPC  H12B 1478   4.145   5.927   6.288
   12POPC   C13 1479   4.070   6.163   6.348
   12POPC  H13A 1480   4.115   6.187   6.251
   12POPC  H13B 1481   4.020   6.249   6.387
   12POPC  H13C 1482   4.150   6.133   6.415
   12POPC   C14 1483   3.856   6.099   6.252
   12POPC  H14A 1484   3.801   6.176   6.305
   12POPC  H14B 1485   3.891   6.139   6.156
   12POPC  H14C 1486   3.789   6.018   6.227
   12POPC   C15 1487   3.934   5.996   6.460
   12POPC  H15A 1488   3.898   6.076   6.524
   12POPC  H15B 1489   4.019   5.952   6.509
   12POPC  H15C 1490   3.855   5.923   6.451
   12POPC   C11 1491   4.069   5.975   6.095
   12POPC  H11A 1492   3.970   5.969   6.042
   12POPC  H11B 1493   4.133   5.897   6.049
   12POPC     P 1494   4.089   6.201   5.966
   12POPC   O13 1495   4.116   6.137   5.835
   12POPC   O14 1496   4.140   6.336   5.993
   12POPC   O12 1497   4.133   6.102   6.080
   12POPC   O11 1498   3.933   6.209   5.993
   12POPC    C1 1499   3.861   6.326   5.951
   12POPC    HA 1500   3.921   6.394   5.886
   12POPC    HB 1501   3.829   6.385   6.040
   12POPC    C2 1502   3.738   6.286   5.868
   12POPC    HS 1503   3.687   6.203   5.924
   12POPC   O21 1504   3.786   6.241   5.739
   12POPC   C21 1505   3.709   6.155   5.677
   12POPC   O22 1506   3.599   6.119   5.719
   12POPC   C22 1507   3.774   6.106   5.545
   12POPC   H2R 1508   3.881   6.086   5.567
   12POPC   H2S 1509   3.766   6.188   5.471
   12POPC    C3 1510   3.641   6.407   5.856
   12POPC    HX 1511   3.619   6.445   5.958
   12POPC    HY 1512   3.543   6.375   5.813
   12POPC   O31 1513   3.706   6.514   5.784
   12POPC   C31 1514   3.681   6.510   5.654
   12POPC   O32 1515   3.588   6.452   5.601
   12POPC   C32 1516   3.789   6.584   5.576
   12POPC   H2X 1517   3.791   6.688   5.616
   12POPC   H2Y 1518   3.759   6.587   5.470
   12POPC   C23 1519   3.709   5.980   5.485
   12POPC   H3R 1520   3.608   6.001   5.445
   12POPC   H3S 1521   3.698   5.909   5.570
   12POPC   C24 1522   3.786   5.897   5.380
   12POPC   H4R 1523   3.722   5.808   5.363
   12POPC   H4S 1524   3.882   5.862   5.425
   12POPC   C25 1525   3.814   5.960   5.242
   12POPC   H5R 1526   3.855   5.881   5.175
   12POPC   H5S 1527   3.892   6.036   5.257
   12POPC   C26 1528   3.696   6.030   5.172
   12POPC   H6R 1529   3.658   6.101   5.247
   12POPC   H6S 1530   3.616   5.957   5.149
   12POPC   C27 1531   3.739   6.109   5.047
   12POPC   H7R 1532   3.791   6.041   4.976
   12POPC   H7S 1533   3.814   6.183   5.084
   12POPC   C28 1534   3.636   6.198   4.972
   12POPC   H8R 1535   3.697   6.273   4.916
   12POPC   H8S 1536   3.575   6.256   5.043
   12POPC   C29 1537   3.545   6.131   4.874
   12POPC   H91 1538   3.437   6.133   4.898
   12POPC  C210 1539   3.586   6.076   4.759
   12POPC  H101 1540   3.511   6.033   4.691
   12POPC  C211 1541   3.728   6.071   4.709
   12POPC  H11R 1542   3.780   5.982   4.753
   12POPC  H11S 1543   3.784   6.160   4.743
   12POPC  C212 1544   3.741   6.061   4.556
   12POPC  H12R 1545   3.722   5.956   4.531
   12POPC  H12S 1546   3.846   6.080   4.527
   12POPC  C213 1547   3.647   6.159   4.482
   12POPC  H13R 1548   3.674   6.260   4.518
   12POPC  H13S 1549   3.543   6.142   4.516
   12POPC  C214 1550   3.638   6.154   4.328
   12POPC  H14R 1551   3.533   6.175   4.299
   12POPC  H14S 1552   3.662   6.052   4.292
   12POPC  C215 1553   3.726   6.256   4.254
   12POPC  H15R 1554   3.702   6.252   4.146
   12POPC  H15S 1555   3.829   6.218   4.264
   12POPC  C216 1556   3.720   6.403   4.302
   12POPC  H16R 1557   3.805   6.455   4.252
   12POPC  H16S 1558   3.740   6.411   4.410
   12POPC  C217 1559   3.593   6.481   4.266
   12POPC  H17R 1560   3.596   6.578   4.322
   12POPC  H17S 1561   3.503   6.426   4.300
   12POPC  C218 1562   3.584   6.514   4.117
   12POPC  H18R 1563   3.584   6.419   4.058
   12POPC  H18S 1564   3.671   6.574   4.085
   12POPC  H18T 1565   3.491   6.570   4.095
   12POPC   C33 1566   3.929   6.520   5.588
   12POPC   H3X 1567   3.951   6.486   5.692
   12POPC   H3Y 1568   4.003   6.597   5.563
   12POPC   C34 1569   3.965   6.411   5.487
   12POPC   H4X 1570   3.923   6.437   5.387
   12POPC   H4Y 1571   3.921   6.314   5.519
   12POPC   C35 1572   4.117   6.396   5.475
   12POPC   H5X 1573   4.158   6.357   5.571
   12POPC   H5Y 1574   4.162   6.497   5.458
   12POPC   C36 1575   4.163   6.305   5.360
   12POPC   H6X 1576   4.274   6.308   5.354
   12POPC   H6Y 1577   4.124   6.345   5.263
   12POPC   C37 1578   4.117   6.160   5.379
   12POPC   H7X 1579   4.009   6.158   5.358
   12POPC   H7Y 1580   4.129   6.132   5.487
   12POPC   C38 1581   4.194   6.058   5.293
   12POPC   H8X 1582   4.145   5.959   5.306
   12POPC   H8Y 1583   4.297   6.049   5.334
   12POPC   C39 1584   4.204   6.090   5.143
   12POPC   H9X 1585   4.262   6.008   5.094
   12POPC   H9Y 1586   4.260   6.185   5.128
   12POPC  C310 1587   4.068   6.098   5.074
   12POPC  H10X 1588   4.005   6.167   5.133
   12POPC  H10Y 1589   4.022   5.997   5.077
   12POPC  C311 1590   4.067   6.146   4.928
   12POPC  H11X 1591   3.972   6.110   4.881
   12POPC  H11Y 1592   4.150   6.100   4.870
   12POPC  C312 1593   4.068   6.299   4.917
   12POPC  H12X 1594   4.172   6.333   4.932
   12POPC  H12Y 1595   4.005   6.342   4.998
   12POPC  C313 1596   4.017   6.353   4.783
   12POPC  H13X 1597   4.006   6.463   4.792
   12POPC  H13Y 1598   3.915   6.313   4.763
   12POPC  C314 1599   4.109   6.322   4.666
   12POPC  H14X 1600   4.115   6.211   4.653
   12POPC  H14Y 1601   4.212   6.358   4.688
   12POPC  C315 1602   4.058   6.385   4.537
   12POPC  H15X 1603   4.127   6.465   4.503
   12POPC  H15Y 1604   3.960   6.435   4.558
   12POPC  C316 1605   4.038   6.284   4.425
   12POPC  H16X 1606   3.972   6.329   4.349
   12POPC  H16Y 1607   3.988   6.193   4.463
   12POPC  H16Z 1608   4.133   6.255   4.378
   13POPC     N 1609   3.238   4.227   6.257
   13POPC   C12 1610   3.265   4.166   6.121
   13POPC  H12A 1611   3.325   4.234   6.063
   13POPC  H12B 1612   3.169   4.158   6.068
   13POPC   C13 1613   3.141   4.138   6.329
   13POPC  H13A 1614   3.107   4.180   6.422
   13POPC  H13B 1615   3.056   4.115   6.265
   13POPC  H13C 1616   3.189   4.042   6.346
   13POPC   C14 1617   3.362   4.235   6.338
   13POPC  H14A 1618   3.435   4.299   6.289
   13POPC  H14B 1619   3.341   4.274   6.438
   13POPC  H14C 1620   3.403   4.135   6.346
   13POPC   C15 1621   3.181   4.364   6.238
   13POPC  H15A 1622   3.248   4.427   6.179
   13POPC  H15B 1623   3.164   4.413   6.334
   13POPC  H15C 1624   3.085   4.363   6.187
   13POPC   C11 1625   3.327   4.024   6.111
   13POPC  H11A 1626   3.419   4.020   6.174
   13POPC  H11B 1627   3.361   4.008   6.006
   13POPC     P 1628   3.116   3.886   6.053
   13POPC   O13 1629   3.054   4.016   6.015
   13POPC   O14 1630   3.031   3.786   6.122
   13POPC   O12 1631   3.236   3.921   6.153
   13POPC   O11 1632   3.186   3.820   5.925
   13POPC    C1 1633   3.130   3.700   5.868
   13POPC    HA 1634   3.020   3.711   5.854
   13POPC    HB 1635   3.152   3.614   5.936
   13POPC    C2 1636   3.190   3.662   5.728
   13POPC    HS 1637   3.286   3.610   5.751
   13POPC   O21 1638   3.209   3.779   5.647
   13POPC   C21 1639   3.335   3.813   5.627
   13POPC   O22 1640   3.430   3.778   5.694
   13POPC   C22 1641   3.345   3.884   5.493
   13POPC   H2R 1642   3.402   3.978   5.508
   13POPC   H2S 1643   3.245   3.910   5.455
   13POPC    C3 1644   3.107   3.559   5.642
   13POPC    HX 1645   3.066   3.479   5.707
   13POPC    HY 1646   3.185   3.510   5.579
   13POPC   O31 1647   3.009   3.615   5.549
   13POPC   C31 1648   2.881   3.602   5.582
   13POPC   O32 1649   2.843   3.564   5.692
   13POPC   C32 1650   2.784   3.624   5.460
   13POPC   H2X 1651   2.705   3.550   5.475
   13POPC   H2Y 1652   2.840   3.592   5.372
   13POPC   C23 1653   3.414   3.797   5.386
   13POPC   H3R 1654   3.354   3.706   5.365
   13POPC   H3S 1655   3.513   3.765   5.424
   13POPC   C24 1656   3.434   3.875   5.255
   13POPC   H4R 1657   3.525   3.835   5.206
   13POPC   H4S 1658   3.450   3.983   5.277
   13POPC   C25 1659   3.318   3.860   5.157
   13POPC   H5R 1660   3.326   3.933   5.074
   13POPC   H5S 1661   3.225   3.889   5.209
   13POPC   C26 1662   3.310   3.718   5.099
   13POPC   H6R 1663   3.223   3.664   5.143
   13POPC   H6S 1664   3.401   3.660   5.127
   13POPC   C27 1665   3.298   3.722   4.946
   13POPC   H7R 1666   3.397   3.748   4.904
   13POPC   H7S 1667   3.227   3.803   4.918
   13POPC   C28 1668   3.250   3.590   4.885
   13POPC   H8R 1669   3.148   3.569   4.922
   13POPC   H8S 1670   3.315   3.508   4.921
   13POPC   C29 1671   3.255   3.599   4.734
   13POPC   H91 1672   3.347   3.561   4.687
   13POPC  C210 1673   3.161   3.657   4.657
   13POPC  H101 1674   3.176   3.662   4.548
   13POPC  C211 1675   3.036   3.723   4.709
   13POPC  H11R 1676   3.051   3.832   4.716
   13POPC  H11S 1677   3.013   3.694   4.812
   13POPC  C212 1678   2.913   3.694   4.623
   13POPC  H12R 1679   2.823   3.725   4.682
   13POPC  H12S 1680   2.902   3.586   4.603
   13POPC  C213 1681   2.908   3.775   4.492
   13POPC  H13R 1682   2.813   3.748   4.441
   13POPC  H13S 1683   2.992   3.747   4.426
   13POPC  C214 1684   2.910   3.926   4.520
   13POPC  H14R 1685   3.012   3.955   4.550
   13POPC  H14S 1686   2.840   3.945   4.604
   13POPC  C215 1687   2.870   4.015   4.403
   13POPC  H15R 1688   2.765   3.996   4.374
   13POPC  H15S 1689   2.935   3.995   4.316
   13POPC  C216 1690   2.878   4.163   4.440
   13POPC  H16R 1691   2.879   4.223   4.347
   13POPC  H16S 1692   2.971   4.185   4.498
   13POPC  C217 1693   2.755   4.205   4.516
   13POPC  H17R 1694   2.744   4.153   4.613
   13POPC  H17S 1695   2.665   4.177   4.455
   13POPC  C218 1696   2.750   4.354   4.535
   13POPC  H18R 1697   2.821   4.393   4.612
   13POPC  H18S 1698   2.646   4.371   4.565
   13POPC  H18T 1699   2.764   4.407   4.440
   13POPC   C33 1700   2.720   3.769   5.446
   13POPC   H3X 1701   2.799   3.843   5.455
   13POPC   H3Y 1702   2.663   3.776   5.541
   13POPC   C34 1703   2.620   3.817   5.332
   13POPC   H4X 1704   2.569   3.907   5.372
   13POPC   H4Y 1705   2.543   3.737   5.327
   13POPC   C35 1706   2.648   3.858   5.181
   13POPC   H5X 1707   2.549   3.844   5.131
   13POPC   H5Y 1708   2.712   3.786   5.130
   13POPC   C36 1709   2.693   4.002   5.139
   13POPC   H6X 1710   2.795   4.015   5.173
   13POPC   H6Y 1711   2.631   4.079   5.189
   13POPC   C37 1712   2.723   4.039   4.989
   13POPC   H7X 1713   2.645   4.110   4.954
   13POPC   H7Y 1714   2.717   3.948   4.926
   13POPC   C38 1715   2.865   4.105   4.970
   13POPC   H8X 1716   2.944   4.033   4.999
   13POPC   H8Y 1717   2.873   4.191   5.040
   13POPC   C39 1718   2.904   4.154   4.828
   13POPC   H9X 1719   2.833   4.236   4.804
   13POPC   H9Y 1720   2.886   4.072   4.756
   13POPC  C310 1721   3.048   4.210   4.804
   13POPC  H10X 1722   3.079   4.275   4.888
   13POPC  H10Y 1723   3.039   4.276   4.715
   13POPC  C311 1724   3.163   4.110   4.768
   13POPC  H11X 1725   3.119   4.019   4.723
   13POPC  H11Y 1726   3.216   4.079   4.861
   13POPC  C312 1727   3.264   4.167   4.665
   13POPC  H12X 1728   3.302   4.261   4.710
   13POPC  H12Y 1729   3.209   4.195   4.574
   13POPC  C313 1730   3.388   4.083   4.623
   13POPC  H13X 1731   3.445   4.054   4.713
   13POPC  H13Y 1732   3.455   4.150   4.564
   13POPC  C314 1733   3.360   3.959   4.535
   13POPC  H14X 1734   3.292   3.987   4.453
   13POPC  H14Y 1735   3.308   3.884   4.599
   13POPC  C315 1736   3.485   3.890   4.473
   13POPC  H15X 1737   3.452   3.792   4.431
   13POPC  H15Y 1738   3.560   3.868   4.552
   13POPC  C316 1739   3.555   3.966   4.360
   13POPC  H16X 1740   3.485   3.977   4.274
   13POPC  H16Y 1741   3.643   3.911   4.323
   13POPC  H16Z 1742   3.588   4.067   4.392
   14POPC     N 1743   5.694   3.314   6.359
   14POPC   C12 1744   5.633   3.222   6.255
   14POPC  H12A 1745   5.526   3.224   6.264
   14POPC  H12B 1746   5.668   3.121   6.270
   14POPC   C13 1747   5.636   3.452   6.347
   14POPC  H13A 1748   5.534   3.454   6.383
   14POPC  H13B 1749   5.693   3.524   6.405
   14POPC  H13C 1750   5.636   3.482   6.242
   14POPC   C14 1751   5.666   3.261   6.496
   14POPC  H14A 1752   5.710   3.324   6.572
   14POPC  H14B 1753   5.559   3.254   6.514
   14POPC  H14C 1754   5.705   3.160   6.508
   14POPC   C15 1755   5.842   3.324   6.334
   14POPC  H15A 1756   5.887   3.226   6.332
   14POPC  H15B 1757   5.892   3.391   6.402
   14POPC  H15C 1758   5.858   3.359   6.231
   14POPC   C11 1759   5.669   3.253   6.109
   14POPC  H11A 1760   5.661   3.362   6.094
   14POPC  H11B 1761   5.595   3.200   6.044
   14POPC     P 1762   5.847   3.237   5.931
   14POPC   O13 1763   5.740   3.192   5.840
   14POPC   O14 1764   5.985   3.188   5.905
   14POPC   O12 1765   5.803   3.208   6.081
   14POPC   O11 1766   5.850   3.395   5.935
   14POPC    C1 1767   5.871   3.475   5.819
   14POPC    HA 1768   5.862   3.419   5.723
   14POPC    HB 1769   5.973   3.519   5.824
   14POPC    C2 1770   5.766   3.588   5.822
   14POPC    HS 1771   5.749   3.614   5.929
   14POPC   O21 1772   5.646   3.536   5.761
   14POPC   C21 1773   5.549   3.486   5.842
   14POPC   O22 1774   5.541   3.502   5.962
   14POPC   C22 1775   5.433   3.431   5.758
   14POPC   H2R 1776   5.448   3.457   5.651
   14POPC   H2S 1777   5.341   3.483   5.794
   14POPC    C3 1778   5.816   3.723   5.752
   14POPC    HX 1779   5.908   3.747   5.811
   14POPC    HY 1780   5.740   3.801   5.771
   14POPC   O31 1781   5.847   3.724   5.609
   14POPC   C31 1782   5.936   3.822   5.569
   14POPC   O32 1783   5.982   3.905   5.646
   14POPC   C32 1784   5.958   3.824   5.413
   14POPC   H2X 1785   5.915   3.921   5.383
   14POPC   H2Y 1786   5.893   3.747   5.373
   14POPC   C23 1787   5.415   3.279   5.769
   14POPC   H3R 1788   5.310   3.252   5.747
   14POPC   H3S 1789   5.439   3.244   5.872
   14POPC   C24 1790   5.507   3.210   5.668
   14POPC   H4R 1791   5.530   3.109   5.705
   14POPC   H4S 1792   5.605   3.263   5.662
   14POPC   C25 1793   5.445   3.204   5.528
   14POPC   H5R 1794   5.460   3.301   5.476
   14POPC   H5S 1795   5.335   3.188   5.539
   14POPC   C26 1796   5.499   3.088   5.443
   14POPC   H6R 1797   5.440   3.085   5.349
   14POPC   H6S 1798   5.479   2.992   5.493
   14POPC   C27 1799   5.649   3.095   5.412
   14POPC   H7R 1800   5.683   2.994   5.382
   14POPC   H7S 1801   5.708   3.123   5.502
   14POPC   C28 1802   5.670   3.195   5.298
   14POPC   H8R 1803   5.678   3.295   5.346
   14POPC   H8S 1804   5.575   3.198   5.240
   14POPC   C29 1805   5.786   3.165   5.207
   14POPC   H91 1806   5.871   3.110   5.250
   14POPC  C210 1807   5.786   3.202   5.079
   14POPC  H101 1808   5.874   3.184   5.015
   14POPC  C211 1809   5.670   3.277   5.017
   14POPC  H11R 1810   5.655   3.374   5.069
   14POPC  H11S 1811   5.576   3.219   5.026
   14POPC  C212 1812   5.692   3.305   4.868
   14POPC  H12R 1813   5.699   3.210   4.812
   14POPC  H12S 1814   5.789   3.358   4.859
   14POPC  C213 1815   5.583   3.395   4.809
   14POPC  H13R 1816   5.547   3.461   4.891
   14POPC  H13S 1817   5.495   3.336   4.776
   14POPC  C214 1818   5.630   3.488   4.696
   14POPC  H14R 1819   5.632   3.439   4.597
   14POPC  H14S 1820   5.734   3.522   4.718
   14POPC  C215 1821   5.546   3.614   4.693
   14POPC  H15R 1822   5.558   3.655   4.796
   14POPC  H15S 1823   5.438   3.592   4.677
   14POPC  C216 1824   5.599   3.722   4.598
   14POPC  H16R 1825   5.705   3.726   4.627
   14POPC  H16S 1826   5.550   3.819   4.620
   14POPC  C217 1827   5.596   3.693   4.448
   14POPC  H17R 1828   5.668   3.611   4.426
   14POPC  H17S 1829   5.631   3.783   4.392
   14POPC  C218 1830   5.458   3.654   4.400
   14POPC  H18R 1831   5.385   3.736   4.414
   14POPC  H18S 1832   5.424   3.567   4.461
   14POPC  H18T 1833   5.460   3.624   4.294
   14POPC   C33 1834   6.102   3.818   5.346
   14POPC   H3X 1835   6.176   3.803   5.428
   14POPC   H3Y 1836   6.120   3.919   5.303
   14POPC   C34 1837   6.142   3.717   5.231
   14POPC   H4X 1838   6.091   3.622   5.247
   14POPC   H4Y 1839   6.250   3.696   5.243
   14POPC   C35 1840   6.117   3.755   5.080
   14POPC   H5X 1841   6.179   3.842   5.048
   14POPC   H5Y 1842   6.016   3.796   5.074
   14POPC   C36 1843   6.138   3.645   4.968
   14POPC   H6X 1844   6.244   3.656   4.945
   14POPC   H6Y 1845   6.099   3.676   4.870
   14POPC   C37 1846   6.086   3.499   4.985
   14POPC   H7X 1847   5.982   3.511   5.012
   14POPC   H7Y 1848   6.137   3.451   5.071
   14POPC   C38 1849   6.079   3.393   4.868
   14POPC   H8X 1850   6.010   3.313   4.902
   14POPC   H8Y 1851   6.177   3.344   4.856
   14POPC   C39 1852   6.028   3.437   4.728
   14POPC   H9X 1853   6.065   3.539   4.707
   14POPC   H9Y 1854   5.918   3.447   4.730
   14POPC  C310 1855   6.067   3.345   4.609
   14POPC  H10X 1856   6.175   3.321   4.614
   14POPC  H10Y 1857   6.050   3.404   4.516
   14POPC  C311 1858   5.986   3.214   4.589
   14POPC  H11X 1859   5.997   3.148   4.678
   14POPC  H11Y 1860   6.028   3.159   4.502
   14POPC  C312 1861   5.839   3.241   4.560
   14POPC  H12X 1862   5.828   3.307   4.471
   14POPC  H12Y 1863   5.799   3.298   4.646
   14POPC  C313 1864   5.749   3.118   4.544
   14POPC  H13X 1865   5.758   3.054   4.634
   14POPC  H13Y 1866   5.779   3.058   4.456
   14POPC  C314 1867   5.602   3.160   4.530
   14POPC  H14X 1868   5.576   3.234   4.608
   14POPC  H14Y 1869   5.536   3.075   4.553
   14POPC  C315 1870   5.566   3.219   4.393
   14POPC  H15X 1871   5.609   3.157   4.312
   14POPC  H15Y 1872   5.613   3.320   4.385
   14POPC  C316 1873   5.416   3.231   4.373
   14POPC  H16X 1874   5.370   3.270   4.466
   14POPC  H16Y 1875   5.369   3.133   4.351
   14POPC  H16Z 1876   5.393   3.301   4.290
   15POPC     N 1877   4.441   3.102   6.092
   15POPC   C12 1878   4.379   2.970   6.047
   15POPC  H12A 1879   4.424   2.934   5.956
   15POPC  H12B 1880   4.274   2.989   6.025
   15POPC   C13 1881   4.339   3.211   6.083
   15POPC  H13A 1882   4.304   3.227   5.983
   15POPC  H13B 1883   4.251   3.182   6.142
   15POPC  H13C 1884   4.375   3.305   6.123
   15POPC   C14 1885   4.481   3.094   6.237
   15POPC  H14A 1886   4.493   3.192   6.281
   15POPC  H14B 1887   4.401   3.044   6.293
   15POPC  H14C 1888   4.570   3.035   6.253
   15POPC   C15 1889   4.555   3.142   6.005
   15POPC  H15A 1890   4.595   3.237   6.041
   15POPC  H15B 1891   4.521   3.164   5.905
   15POPC  H15C 1892   4.633   3.067   6.002
   15POPC   C11 1893   4.376   2.854   6.151
   15POPC  H11A 1894   4.478   2.841   6.188
   15POPC  H11B 1895   4.347   2.757   6.104
   15POPC     P 1896   4.136   2.907   6.220
   15POPC   O13 1897   4.126   3.048   6.175
   15POPC   O14 1898   4.048   2.867   6.330
   15POPC   O12 1899   4.289   2.882   6.261
   15POPC   O11 1900   4.126   2.809   6.093
   15POPC    C1 1901   4.023   2.806   5.993
   15POPC    HA 1902   3.994   2.909   5.964
   15POPC    HB 1903   3.935   2.755   6.038
   15POPC    C2 1904   4.053   2.728   5.857
   15POPC    HS 1905   3.968   2.658   5.839
   15POPC   O21 1906   4.174   2.651   5.869
   15POPC   C21 1907   4.243   2.610   5.764
   15POPC   O22 1908   4.200   2.588   5.652
   15POPC   C22 1909   4.389   2.614   5.810
   15POPC   H2R 1910   4.414   2.513   5.847
   15POPC   H2S 1911   4.395   2.685   5.895
   15POPC    C3 1912   4.060   2.827   5.734
   15POPC    HX 1913   3.966   2.886   5.733
   15POPC    HY 1914   4.062   2.771   5.638
   15POPC   O31 1915   4.174   2.916   5.744
   15POPC   C31 1916   4.170   3.023   5.665
   15POPC   O32 1917   4.090   3.042   5.576
   15POPC   C32 1918   4.273   3.123   5.718
   15POPC   H2X 1919   4.355   3.065   5.766
   15POPC   H2Y 1920   4.221   3.182   5.796
   15POPC   C23 1921   4.492   2.661   5.705
   15POPC   H3R 1922   4.496   2.587   5.623
   15POPC   H3S 1923   4.591   2.664   5.754
   15POPC   C24 1924   4.470   2.797   5.638
   15POPC   H4R 1925   4.462   2.874   5.717
   15POPC   H4S 1926   4.374   2.798   5.583
   15POPC   C25 1927   4.591   2.829   5.546
   15POPC   H5R 1928   4.676   2.764   5.577
   15POPC   H5S 1929   4.626   2.932   5.566
   15POPC   C26 1930   4.576   2.810   5.392
   15POPC   H6R 1931   4.613   2.709   5.366
   15POPC   H6S 1932   4.644   2.881   5.341
   15POPC   C27 1933   4.435   2.827   5.332
   15POPC   H7R 1934   4.409   2.933   5.345
   15POPC   H7S 1935   4.359   2.767   5.387
   15POPC   C28 1936   4.420   2.791   5.182
   15POPC   H8R 1937   4.428   2.682   5.170
   15POPC   H8S 1938   4.504   2.839   5.125
   15POPC   C29 1939   4.285   2.843   5.137
   15POPC   H91 1940   4.241   2.913   5.209
   15POPC  C210 1941   4.209   2.813   5.029
   15POPC  H101 1942   4.114   2.866   5.020
   15POPC  C211 1943   4.235   2.717   4.916
   15POPC  H11R 1944   4.242   2.613   4.955
   15POPC  H11S 1945   4.332   2.739   4.865
   15POPC  C212 1946   4.120   2.722   4.812
   15POPC  H12R 1947   4.122   2.819   4.758
   15POPC  H12S 1948   4.023   2.714   4.865
   15POPC  C213 1949   4.124   2.607   4.709
   15POPC  H13R 1950   4.144   2.512   4.763
   15POPC  H13S 1951   4.208   2.624   4.638
   15POPC  C214 1952   3.993   2.590   4.629
   15POPC  H14R 1953   3.908   2.573   4.699
   15POPC  H14S 1954   4.003   2.498   4.567
   15POPC  C215 1955   3.959   2.708   4.536
   15POPC  H15R 1956   4.048   2.729   4.474
   15POPC  H15S 1957   3.936   2.799   4.595
   15POPC  C216 1958   3.840   2.676   4.444
   15POPC  H16R 1959   3.746   2.682   4.502
   15POPC  H16S 1960   3.851   2.571   4.408
   15POPC  C217 1961   3.823   2.763   4.318
   15POPC  H17R 1962   3.757   2.705   4.251
   15POPC  H17S 1963   3.920   2.775   4.266
   15POPC  C218 1964   3.756   2.899   4.337
   15POPC  H18R 1965   3.658   2.889   4.388
   15POPC  H18S 1966   3.740   2.949   4.239
   15POPC  H18T 1967   3.822   2.964   4.397
   15POPC   C33 1968   4.334   3.218   5.612
   15POPC   H3X 1969   4.400   3.292   5.662
   15POPC   H3Y 1970   4.254   3.273   5.558
   15POPC   C34 1971   4.416   3.133   5.515
   15POPC   H4X 1972   4.342   3.069   5.463
   15POPC   H4Y 1973   4.480   3.067   5.577
   15POPC   C35 1974   4.508   3.198   5.410
   15POPC   H5X 1975   4.564   3.117   5.358
   15POPC   H5Y 1976   4.584   3.263   5.459
   15POPC   C36 1977   4.435   3.277   5.301
   15POPC   H6X 1978   4.510   3.325   5.234
   15POPC   H6Y 1979   4.375   3.358   5.348
   15POPC   C37 1980   4.345   3.189   5.213
   15POPC   H7X 1981   4.286   3.117   5.273
   15POPC   H7Y 1982   4.409   3.130   5.143
   15POPC   C38 1983   4.243   3.274   5.136
   15POPC   H8X 1984   4.294   3.367   5.103
   15POPC   H8Y 1985   4.161   3.302   5.206
   15POPC   C39 1986   4.184   3.205   5.012
   15POPC   H9X 1987   4.095   3.262   4.978
   15POPC   H9Y 1988   4.150   3.103   5.038
   15POPC  C310 1989   4.285   3.201   4.898
   15POPC  H10X 1990   4.373   3.140   4.927
   15POPC  H10Y 1991   4.321   3.305   4.877
   15POPC  C311 1992   4.226   3.144   4.770
   15POPC  H11X 1993   4.129   3.193   4.746
   15POPC  H11Y 1994   4.204   3.036   4.787
   15POPC  C312 1995   4.322   3.160   4.653
   15POPC  H12X 1996   4.428   3.143   4.685
   15POPC  H12Y 1997   4.315   3.264   4.615
   15POPC  C313 1998   4.288   3.062   4.542
   15POPC  H13X 1999   4.321   3.101   4.444
   15POPC  H13Y 2000   4.177   3.054   4.541
   15POPC  C314 2001   4.346   2.921   4.563
   15POPC  H14X 2002   4.272   2.847   4.524
   15POPC  H14Y 2003   4.359   2.899   4.671
   15POPC  C315 2004   4.477   2.902   4.488
   15POPC  H15X 2005   4.560   2.953   4.542
   15POPC  H15Y 2006   4.468   2.949   4.388
   15POPC  C316 2007   4.511   2.755   4.466
   15POPC  H16X 2008   4.525   2.702   4.563
   15POPC  H16Y 2009   4.603   2.747   4.406
   15POPC  H16Z 2010   4.429   2.706   4.410
   16POPC     N 2011   6.242   4.069   6.180
   16POPC   C12 2012   6.263   4.012   6.040
   16POPC  H12A 2013   6.348   4.060   5.994
   16POPC  H12B 2014   6.175   4.034   5.979
   16POPC   C13 2015   6.372   4.100   6.247
   16POPC  H13A 2016   6.360   4.110   6.355
   16POPC  H13B 2017   6.441   4.018   6.231
   16POPC  H13C 2018   6.417   4.191   6.209
   16POPC   C14 2019   6.160   4.192   6.170
   16POPC  H14A 2020   6.134   4.230   6.268
   16POPC  H14B 2021   6.216   4.271   6.120
   16POPC  H14C 2022   6.070   4.176   6.114
   16POPC   C15 2023   6.169   3.972   6.267
   16POPC  H15A 2024   6.083   3.930   6.217
   16POPC  H15B 2025   6.138   4.017   6.361
   16POPC  H15C 2026   6.232   3.887   6.291
   16POPC   C11 2027   6.288   3.862   6.024
   16POPC  H11A 2028   6.282   3.837   5.915
   16POPC  H11B 2029   6.205   3.805   6.074
   16POPC     P 2030   6.443   3.674   6.094
   16POPC   O13 2031   6.340   3.629   6.191
   16POPC   O14 2032   6.585   3.654   6.133
   16POPC   O12 2033   6.417   3.830   6.074
   16POPC   O11 2034   6.414   3.617   5.947
   16POPC    C1 2035   6.503   3.660   5.842
   16POPC    HA 2036   6.586   3.587   5.837
   16POPC    HB 2037   6.555   3.756   5.867
   16POPC    C2 2038   6.438   3.667   5.698
   16POPC    HS 2039   6.520   3.660   5.623
   16POPC   O21 2040   6.363   3.790   5.676
   16POPC   C21 2041   6.437   3.901   5.684
   16POPC   O22 2042   6.557   3.907   5.701
   16POPC   C22 2043   6.352   4.026   5.661
   16POPC   H2R 2044   6.362   4.091   5.750
   16POPC   H2S 2045   6.246   3.996   5.649
   16POPC    C3 2046   6.344   3.543   5.677
   16POPC    HX 2047   6.267   3.551   5.757
   16POPC    HY 2048   6.405   3.454   5.705
   16POPC   O31 2049   6.289   3.518   5.543
   16POPC   C31 2050   6.155   3.541   5.538
   16POPC   O32 2051   6.098   3.611   5.618
   16POPC   C32 2052   6.079   3.454   5.430
   16POPC   H2X 2053   6.078   3.354   5.479
   16POPC   H2Y 2054   6.142   3.445   5.340
   16POPC   C23 2055   6.403   4.100   5.534
   16POPC   H3R 2056   6.513   4.116   5.538
   16POPC   H3S 2057   6.355   4.201   5.528
   16POPC   C24 2058   6.364   4.019   5.411
   16POPC   H4R 2059   6.253   4.019   5.410
   16POPC   H4S 2060   6.398   3.914   5.423
   16POPC   C25 2061   6.414   4.069   5.275
   16POPC   H5R 2062   6.518   4.106   5.283
   16POPC   H5S 2063   6.349   4.155   5.245
   16POPC   C26 2064   6.403   3.958   5.168
   16POPC   H6R 2065   6.395   4.004   5.068
   16POPC   H6S 2066   6.308   3.906   5.187
   16POPC   C27 2067   6.518   3.854   5.171
   16POPC   H7R 2068   6.523   3.808   5.272
   16POPC   H7S 2069   6.613   3.911   5.159
   16POPC   C28 2070   6.514   3.743   5.062
   16POPC   H8R 2071   6.620   3.721   5.036
   16POPC   H8S 2072   6.467   3.785   4.970
   16POPC   C29 2073   6.449   3.613   5.105
   16POPC   H91 2074   6.434   3.607   5.213
   16POPC  C210 2075   6.407   3.507   5.031
   16POPC  H101 2076   6.358   3.425   5.087
   16POPC  C211 2077   6.409   3.480   4.881
   16POPC  H11R 2078   6.310   3.507   4.843
   16POPC  H11S 2079   6.407   3.372   4.860
   16POPC  C212 2080   6.512   3.546   4.787
   16POPC  H12R 2081   6.612   3.501   4.803
   16POPC  H12S 2082   6.519   3.654   4.811
   16POPC  C213 2083   6.472   3.535   4.639
   16POPC  H13R 2084   6.472   3.428   4.607
   16POPC  H13S 2085   6.548   3.589   4.578
   16POPC  C214 2086   6.333   3.596   4.612
   16POPC  H14R 2087   6.327   3.693   4.666
   16POPC  H14S 2088   6.258   3.529   4.656
   16POPC  C215 2089   6.291   3.616   4.467
   16POPC  H15R 2090   6.201   3.555   4.444
   16POPC  H15S 2091   6.367   3.577   4.399
   16POPC  C216 2092   6.264   3.763   4.438
   16POPC  H16R 2093   6.195   3.800   4.517
   16POPC  H16S 2094   6.213   3.777   4.341
   16POPC  C217 2095   6.392   3.847   4.441
   16POPC  H17R 2096   6.460   3.816   4.523
   16POPC  H17S 2097   6.364   3.950   4.464
   16POPC  C218 2098   6.468   3.850   4.310
   16POPC  H18R 2099   6.516   3.753   4.293
   16POPC  H18S 2100   6.547   3.927   4.313
   16POPC  H18T 2101   6.402   3.873   4.223
   16POPC   C33 2102   5.926   3.484   5.394
   16POPC   H3X 2103   5.885   3.566   5.454
   16POPC   H3Y 2104   5.873   3.394   5.434
   16POPC   C34 2105   5.872   3.493   5.244
   16POPC   H4X 2106   5.777   3.436   5.243
   16POPC   H4Y 2107   5.944   3.435   5.185
   16POPC   C35 2108   5.822   3.628   5.177
   16POPC   H5X 2109   5.905   3.696   5.178
   16POPC   H5Y 2110   5.748   3.676   5.243
   16POPC   C36 2111   5.763   3.632   5.030
   16POPC   H6X 2112   5.659   3.596   5.042
   16POPC   H6Y 2113   5.805   3.555   4.965
   16POPC   C37 2114   5.768   3.769   4.949
   16POPC   H7X 2115   5.798   3.848   5.021
   16POPC   H7Y 2116   5.668   3.796   4.912
   16POPC   C38 2117   5.875   3.767   4.833
   16POPC   H8X 2118   5.883   3.661   4.800
   16POPC   H8Y 2119   5.963   3.800   4.889
   16POPC   C39 2120   5.904   3.854   4.704
   16POPC   H9X 2121   5.826   3.866   4.629
   16POPC   H9Y 2122   5.984   3.792   4.655
   16POPC  C310 2123   5.974   3.992   4.715
   16POPC  H10X 2124   6.056   3.989   4.789
   16POPC  H10Y 2125   5.898   4.064   4.751
   16POPC  C311 2126   6.026   4.042   4.577
   16POPC  H11X 2127   5.959   4.124   4.542
   16POPC  H11Y 2128   6.018   3.960   4.502
   16POPC  C312 2129   6.171   4.094   4.576
   16POPC  H12X 2130   6.239   4.013   4.610
   16POPC  H12Y 2131   6.178   4.174   4.653
   16POPC  C313 2132   6.220   4.154   4.441
   16POPC  H13X 2133   6.138   4.216   4.399
   16POPC  H13Y 2134   6.238   4.076   4.365
   16POPC  C314 2135   6.344   4.247   4.456
   16POPC  H14X 2136   6.359   4.267   4.565
   16POPC  H14Y 2137   6.322   4.344   4.408
   16POPC  C315 2138   6.478   4.198   4.397
   16POPC  H15X 2139   6.502   4.098   4.439
   16POPC  H15Y 2140   6.559   4.265   4.433
   16POPC  C316 2141   6.483   4.195   4.244
   16POPC  H16X 2142   6.569   4.135   4.208
   16POPC  H16Y 2143   6.493   4.298   4.204
   16POPC  H16Z 2144   6.390   4.150   4.203
   17POPC     N 2145   3.495   3.397   6.286
   17POPC   C12 2146   3.362   3.373   6.211
   17POPC  H12A 2147   3.289   3.447   6.238
   17POPC  H12B 2148   3.322   3.275   6.239
   17POPC   C13 2149   3.574   3.505   6.223
   17POPC  H13A 2150   3.677   3.503   6.258
   17POPC  H13B 2151   3.577   3.490   6.114
   17POPC  H13C 2152   3.531   3.603   6.239
   17POPC   C14 2153   3.471   3.427   6.431
   17POPC  H14A 2154   3.405   3.353   6.476
   17POPC  H14B 2155   3.564   3.422   6.486
   17POPC  H14C 2156   3.427   3.525   6.444
   17POPC   C15 2157   3.574   3.270   6.285
   17POPC  H15A 2158   3.593   3.240   6.182
   17POPC  H15B 2159   3.516   3.190   6.330
   17POPC  H15C 2160   3.669   3.277   6.337
   17POPC   C11 2161   3.364   3.368   6.056
   17POPC  H11A 2162   3.412   3.459   6.013
   17POPC  H11B 2163   3.259   3.368   6.016
   17POPC     P 2164   3.364   3.110   6.014
   17POPC   O13 2165   3.261   3.107   5.907
   17POPC   O14 2166   3.317   3.088   6.153
   17POPC   O12 2167   3.434   3.252   6.012
   17POPC   O11 2168   3.483   3.012   5.982
   17POPC    C1 2169   3.590   2.984   6.072
   17POPC    HA 2170   3.564   2.894   6.131
   17POPC    HB 2171   3.609   3.066   6.144
   17POPC    C2 2172   3.722   2.956   5.995
   17POPC    HS 2173   3.793   2.913   6.068
   17POPC   O21 2174   3.780   3.073   5.935
   17POPC   C21 2175   3.822   3.171   6.011
   17POPC   O22 2176   3.841   3.165   6.131
   17POPC   C22 2177   3.843   3.295   5.925
   17POPC   H2R 2178   3.919   3.271   5.847
   17POPC   H2S 2179   3.883   3.376   5.989
   17POPC    C3 2180   3.698   2.850   5.881
   17POPC    HX 2181   3.661   2.758   5.931
   17POPC    HY 2182   3.794   2.825   5.832
   17POPC   O31 2183   3.601   2.891   5.783
   17POPC   C31 2184   3.635   2.995   5.705
   17POPC   O32 2185   3.749   3.031   5.681
   17POPC   C32 2186   3.512   3.046   5.633
   17POPC   H2X 2187   3.424   3.005   5.681
   17POPC   H2Y 2188   3.521   3.017   5.526
   17POPC   C23 2189   3.713   3.342   5.854
   17POPC   H3R 2190   3.624   3.327   5.918
   17POPC   H3S 2191   3.701   3.278   5.765
   17POPC   C24 2192   3.721   3.491   5.818
   17POPC   H4R 2193   3.829   3.505   5.801
   17POPC   H4S 2194   3.698   3.554   5.908
   17POPC   C25 2195   3.642   3.548   5.696
   17POPC   H5R 2196   3.686   3.642   5.659
   17POPC   H5S 2197   3.541   3.575   5.735
   17POPC   C26 2198   3.624   3.450   5.580
   17POPC   H6R 2199   3.521   3.416   5.603
   17POPC   H6S 2200   3.700   3.370   5.589
   17POPC   C27 2201   3.614   3.485   5.430
   17POPC   H7R 2202   3.678   3.571   5.408
   17POPC   H7S 2203   3.510   3.520   5.411
   17POPC   C28 2204   3.642   3.360   5.335
   17POPC   H8R 2205   3.612   3.395   5.234
   17POPC   H8S 2206   3.570   3.281   5.363
   17POPC   C29 2207   3.778   3.293   5.326
   17POPC   H91 2208   3.858   3.359   5.298
   17POPC  C210 2209   3.821   3.166   5.318
   17POPC  H101 2210   3.930   3.151   5.312
   17POPC  C211 2211   3.744   3.037   5.316
   17POPC  H11R 2212   3.702   3.015   5.416
   17POPC  H11S 2213   3.816   2.954   5.294
   17POPC  C212 2214   3.636   3.034   5.207
   17POPC  H12R 2215   3.550   3.095   5.242
   17POPC  H12S 2216   3.600   2.930   5.196
   17POPC  C213 2217   3.678   3.088   5.068
   17POPC  H13R 2218   3.694   3.198   5.073
   17POPC  H13S 2219   3.591   3.071   5.002
   17POPC  C214 2220   3.802   3.023   5.003
   17POPC  H14R 2221   3.787   2.913   5.002
   17POPC  H14S 2222   3.893   3.045   5.063
   17POPC  C215 2223   3.824   3.071   4.858
   17POPC  H15R 2224   3.900   3.004   4.810
   17POPC  H15S 2225   3.866   3.174   4.858
   17POPC  C216 2226   3.695   3.069   4.774
   17POPC  H16R 2227   3.634   3.159   4.799
   17POPC  H16S 2228   3.636   2.979   4.803
   17POPC  C217 2229   3.716   3.062   4.623
   17POPC  H17R 2230   3.617   3.048   4.574
   17POPC  H17S 2231   3.777   2.972   4.602
   17POPC  C218 2232   3.783   3.186   4.561
   17POPC  H18R 2233   3.791   3.175   4.451
   17POPC  H18S 2234   3.885   3.201   4.602
   17POPC  H18T 2235   3.721   3.275   4.581
   17POPC   C33 2236   3.471   3.192   5.634
   17POPC   H3X 2237   3.545   3.231   5.563
   17POPC   H3Y 2238   3.484   3.235   5.736
   17POPC   C34 2239   3.327   3.221   5.584
   17POPC   H4X 2240   3.293   3.315   5.632
   17POPC   H4Y 2241   3.259   3.140   5.618
   17POPC   C35 2242   3.320   3.240   5.431
   17POPC   H5X 2243   3.358   3.147   5.384
   17POPC   H5Y 2244   3.385   3.325   5.404
   17POPC   C36 2245   3.184   3.275   5.368
   17POPC   H6X 2246   3.167   3.384   5.377
   17POPC   H6Y 2247   3.103   3.222   5.424
   17POPC   C37 2248   3.175   3.234   5.220
   17POPC   H7X 2249   3.081   3.276   5.176
   17POPC   H7Y 2250   3.165   3.123   5.218
   17POPC   C38 2251   3.293   3.273   5.128
   17POPC   H8X 2252   3.389   3.265   5.184
   17POPC   H8Y 2253   3.281   3.379   5.097
   17POPC   C39 2254   3.307   3.181   5.005
   17POPC   H9X 2255   3.218   3.116   4.996
   17POPC   H9Y 2256   3.392   3.112   5.020
   17POPC  C310 2257   3.322   3.252   4.870
   17POPC  H10X 2258   3.414   3.315   4.868
   17POPC  H10Y 2259   3.234   3.318   4.856
   17POPC  C311 2260   3.326   3.154   4.752
   17POPC  H11X 2261   3.242   3.082   4.763
   17POPC  H11Y 2262   3.420   3.095   4.754
   17POPC  C312 2263   3.311   3.226   4.618
   17POPC  H12X 2264   3.395   3.298   4.605
   17POPC  H12Y 2265   3.216   3.285   4.621
   17POPC  C313 2266   3.305   3.133   4.497
   17POPC  H13X 2267   3.222   3.059   4.511
   17POPC  H13Y 2268   3.398   3.073   4.489
   17POPC  C314 2269   3.279   3.212   4.369
   17POPC  H14X 2270   3.228   3.308   4.392
   17POPC  H14Y 2271   3.209   3.154   4.305
   17POPC  C315 2272   3.409   3.237   4.291
   17POPC  H15X 2273   3.470   3.144   4.292
   17POPC  H15Y 2274   3.468   3.316   4.342
   17POPC  C316 2275   3.384   3.276   4.146
   17POPC  H16X 2276   3.480   3.272   4.088
   17POPC  H16Y 2277   3.342   3.379   4.138
   17POPC  H16Z 2278   3.312   3.207   4.098
   18POPC     N 2279   2.615   4.722   6.123
   18POPC   C12 2280   2.617   4.875   6.113
   18POPC  H12A 2281   2.515   4.913   6.108
   18POPC  H12B 2282   2.668   4.904   6.022
   18POPC   C13 2283   2.756   4.673   6.108
   18POPC  H13A 2284   2.800   4.709   6.015
   18POPC  H13B 2285   2.819   4.720   6.185
   18POPC  H13C 2286   2.768   4.566   6.113
   18POPC   C14 2287   2.563   4.684   6.257
   18POPC  H14A 2288   2.631   4.726   6.331
   18POPC  H14B 2289   2.465   4.727   6.274
   18POPC  H14C 2290   2.559   4.576   6.270
   18POPC   C15 2291   2.527   4.662   6.018
   18POPC  H15A 2292   2.527   4.554   6.028
   18POPC  H15B 2293   2.563   4.687   5.919
   18POPC  H15C 2294   2.426   4.700   6.028
   18POPC   C11 2295   2.687   4.954   6.226
   18POPC  H11A 2296   2.642   4.931   6.325
   18POPC  H11B 2297   2.670   5.064   6.211
   18POPC     P 2298   2.934   4.998   6.142
   18POPC   O13 2299   3.017   4.895   6.074
   18POPC   O14 2300   3.008   5.096   6.224
   18POPC   O12 2301   2.826   4.925   6.232
   18POPC   O11 2302   2.847   5.072   6.032
   18POPC    C1 2303   2.917   5.166   5.948
   18POPC    HA 2304   3.019   5.129   5.921
   18POPC    HB 2305   2.926   5.264   6.002
   18POPC    C2 2306   2.845   5.194   5.812
   18POPC    HS 2307   2.760   5.263   5.832
   18POPC   O21 2308   2.799   5.070   5.756
   18POPC   C21 2309   2.680   5.032   5.799
   18POPC   O22 2310   2.605   5.094   5.872
   18POPC   C22 2311   2.648   4.894   5.740
   18POPC   H2R 2312   2.540   4.876   5.757
   18POPC   H2S 2313   2.708   4.819   5.796
   18POPC    C3 2314   2.942   5.267   5.712
   18POPC    HX 2315   3.045   5.247   5.747
   18POPC    HY 2316   2.925   5.377   5.720
   18POPC   O31 2317   2.934   5.220   5.576
   18POPC   C31 2318   2.821   5.247   5.511
   18POPC   O32 2319   2.734   5.323   5.547
   18POPC   C32 2320   2.824   5.164   5.381
   18POPC   H2X 2321   2.856   5.061   5.409
   18POPC   H2Y 2322   2.904   5.206   5.317
   18POPC   C23 2323   2.681   4.882   5.589
   18POPC   H3R 2324   2.790   4.901   5.575
   18POPC   H3S 2325   2.626   4.960   5.532
   18POPC   C24 2326   2.648   4.744   5.532
   18POPC   H4R 2327   2.539   4.727   5.543
   18POPC   H4S 2328   2.701   4.666   5.591
   18POPC   C25 2329   2.689   4.729   5.385
   18POPC   H5R 2330   2.644   4.811   5.324
   18POPC   H5S 2331   2.649   4.633   5.345
   18POPC   C26 2332   2.842   4.730   5.367
   18POPC   H6R 2333   2.888   4.658   5.438
   18POPC   H6S 2334   2.878   4.832   5.394
   18POPC   C27 2335   2.889   4.695   5.226
   18POPC   H7R 2336   2.835   4.757   5.152
   18POPC   H7S 2337   2.864   4.589   5.205
   18POPC   C28 2338   3.041   4.716   5.205
   18POPC   H8R 2339   3.067   4.675   5.105
   18POPC   H8S 2340   3.096   4.656   5.280
   18POPC   C29 2341   3.079   4.862   5.217
   18POPC   H91 2342   3.069   4.904   5.319
   18POPC  C210 2343   3.117   4.944   5.117
   18POPC  H101 2344   3.138   5.050   5.140
   18POPC  C211 2345   3.131   4.906   4.972
   18POPC  H11R 2346   3.178   4.806   4.961
   18POPC  H11S 2347   3.197   4.978   4.920
   18POPC  C212 2348   2.993   4.904   4.902
   18POPC  H12R 2349   2.945   5.004   4.911
   18POPC  H12S 2350   2.927   4.831   4.954
   18POPC  C213 2351   3.000   4.864   4.754
   18POPC  H13R 2352   2.896   4.851   4.717
   18POPC  H13S 2353   3.049   4.764   4.748
   18POPC  C214 2354   3.077   4.962   4.664
   18POPC  H14R 2355   3.074   4.921   4.560
   18POPC  H14S 2356   3.183   4.967   4.696
   18POPC  C215 2357   3.020   5.105   4.656
   18POPC  H15R 2358   3.084   5.164   4.586
   18POPC  H15S 2359   3.026   5.154   4.755
   18POPC  C216 2360   2.876   5.109   4.602
   18POPC  H16R 2361   2.853   5.004   4.572
   18POPC  H16S 2362   2.871   5.168   4.509
   18POPC  C217 2363   2.772   5.159   4.705
   18POPC  H17R 2364   2.823   5.226   4.777
   18POPC  H17S 2365   2.740   5.070   4.763
   18POPC  C218 2366   2.646   5.231   4.653
   18POPC  H18R 2367   2.618   5.199   4.551
   18POPC  H18S 2368   2.659   5.340   4.646
   18POPC  H18T 2369   2.559   5.211   4.720
   18POPC   C33 2370   2.693   5.152   5.297
   18POPC   H3X 2371   2.656   5.252   5.267
   18POPC   H3Y 2372   2.614   5.104   5.359
   18POPC   C34 2373   2.717   5.065   5.171
   18POPC   H4X 2374   2.777   4.977   5.202
   18POPC   H4Y 2375   2.778   5.122   5.097
   18POPC   C35 2376   2.591   5.011   5.100
   18POPC   H5X 2377   2.535   5.094   5.052
   18POPC   H5Y 2378   2.524   4.965   5.177
   18POPC   C36 2379   2.621   4.901   4.996
   18POPC   H6X 2380   2.673   4.817   5.046
   18POPC   H6Y 2381   2.688   4.940   4.917
   18POPC   C37 2382   2.494   4.844   4.929
   18POPC   H7X 2383   2.461   4.918   4.853
   18POPC   H7Y 2384   2.414   4.838   5.007
   18POPC   C38 2385   2.507   4.703   4.867
   18POPC   H8X 2386   2.405   4.669   4.842
   18POPC   H8Y 2387   2.549   4.632   4.941
   18POPC   C39 2388   2.585   4.697   4.735
   18POPC   H9X 2389   2.694   4.688   4.755
   18POPC   H9Y 2390   2.571   4.792   4.681
   18POPC  C310 2391   2.538   4.582   4.642
   18POPC  H10X 2392   2.430   4.563   4.649
   18POPC  H10Y 2393   2.585   4.493   4.687
   18POPC  C311 2394   2.572   4.615   4.494
   18POPC  H11X 2395   2.682   4.633   4.489
   18POPC  H11Y 2396   2.519   4.711   4.477
   18POPC  C312 2397   2.527   4.531   4.372
   18POPC  H12X 2398   2.422   4.552   4.346
   18POPC  H12Y 2399   2.533   4.423   4.393
   18POPC  C313 2400   2.615   4.561   4.246
   18POPC  H13X 2401   2.656   4.466   4.207
   18POPC  H13Y 2402   2.701   4.624   4.278
   18POPC  C314 2403   2.548   4.636   4.129
   18POPC  H14X 2404   2.498   4.727   4.170
   18POPC  H14Y 2405   2.470   4.572   4.082
   18POPC  C315 2406   2.648   4.682   4.021
   18POPC  H15X 2407   2.731   4.736   4.072
   18POPC  H15Y 2408   2.599   4.755   3.954
   18POPC  C316 2409   2.711   4.571   3.935
   18POPC  H16X 2410   2.781   4.615   3.861
   18POPC  H16Y 2411   2.633   4.515   3.879
   18POPC  H16Z 2412   2.768   4.499   3.998
   19POPC     N 2413   5.838   6.306   5.989
   19POPC   C12 2414   5.703   6.243   6.020
   19POPC  H12A 2415   5.719   6.153   6.079
   19POPC  H12B 2416   5.658   6.211   5.927
   19POPC   C13 2417   5.914   6.327   6.116
   19POPC  H13A 2418   6.019   6.353   6.100
   19POPC  H13B 2419   5.867   6.403   6.178
   19POPC  H13C 2420   5.918   6.236   6.175
   19POPC   C14 2421   5.923   6.219   5.902
   19POPC  H14A 2422   5.880   6.198   5.805
   19POPC  H14B 2423   6.020   6.267   5.887
   19POPC  H14C 2424   5.946   6.126   5.952
   19POPC   C15 2425   5.818   6.440   5.926
   19POPC  H15A 2426   5.775   6.432   5.827
   19POPC  H15B 2427   5.912   6.493   5.917
   19POPC  H15C 2428   5.753   6.499   5.989
   19POPC   C11 2429   5.597   6.327   6.097
   19POPC  H11A 2430   5.508   6.262   6.113
   19POPC  H11B 2431   5.566   6.412   6.034
   19POPC     P 2432   5.569   6.417   6.350
   19POPC   O13 2433   5.675   6.436   6.450
   19POPC   O14 2434   5.465   6.315   6.379
   19POPC   O12 2435   5.647   6.373   6.221
   19POPC   O11 2436   5.509   6.556   6.304
   19POPC    C1 2437   5.593   6.648   6.234
   19POPC    HA 2438   5.679   6.601   6.181
   19POPC    HB 2439   5.633   6.723   6.306
   19POPC    C2 2440   5.508   6.717   6.127
   19POPC    HS 2441   5.423   6.763   6.183
   19POPC   O21 2442   5.465   6.620   6.030
   19POPC   C21 2443   5.334   6.612   6.011
   19POPC   O22 2444   5.251   6.680   6.067
   19POPC   C22 2445   5.306   6.514   5.898
   19POPC   H2R 2446   5.199   6.525   5.875
   19POPC   H2S 2447   5.323   6.410   5.934
   19POPC    C3 2448   5.586   6.832   6.057
   19POPC    HX 2449   5.608   6.905   6.137
   19POPC    HY 2450   5.517   6.883   5.985
   19POPC   O31 2451   5.713   6.794   5.997
   19POPC   C31 2452   5.705   6.764   5.867
   19POPC   O32 2453   5.601   6.758   5.804
   19POPC   C32 2454   5.846   6.757   5.806
   19POPC   H2X 2455   5.905   6.680   5.857
   19POPC   H2Y 2456   5.894   6.855   5.828
   19POPC   C23 2457   5.389   6.546   5.772
   19POPC   H3R 2458   5.498   6.535   5.793
   19POPC   H3S 2459   5.371   6.653   5.745
   19POPC   C24 2460   5.354   6.462   5.650
   19POPC   H4R 2461   5.390   6.518   5.561
   19POPC   H4S 2462   5.244   6.453   5.639
   19POPC   C25 2463   5.420   6.322   5.653
   19POPC   H5R 2464   5.360   6.257   5.721
   19POPC   H5S 2465   5.522   6.331   5.695
   19POPC   C26 2466   5.429   6.258   5.513
   19POPC   H6R 2467   5.328   6.264   5.468
   19POPC   H6S 2468   5.455   6.150   5.522
   19POPC   C27 2469   5.530   6.327   5.419
   19POPC   H7R 2470   5.634   6.298   5.446
   19POPC   H7S 2471   5.521   6.437   5.431
   19POPC   C28 2472   5.500   6.297   5.271
   19POPC   H8R 2473   5.391   6.315   5.262
   19POPC   H8S 2474   5.516   6.188   5.255
   19POPC   C29 2475   5.573   6.374   5.165
   19POPC   H91 2476   5.680   6.349   5.155
   19POPC  C210 2477   5.521   6.466   5.080
   19POPC  H101 2478   5.586   6.511   5.004
   19POPC  C211 2479   5.379   6.514   5.072
   19POPC  H11R 2480   5.377   6.624   5.079
   19POPC  H11S 2481   5.318   6.478   5.158
   19POPC  C212 2482   5.304   6.483   4.942
   19POPC  H12R 2483   5.197   6.511   4.957
   19POPC  H12S 2484   5.309   6.374   4.920
   19POPC  C213 2485   5.355   6.559   4.819
   19POPC  H13R 2486   5.451   6.512   4.788
   19POPC  H13S 2487   5.375   6.665   4.845
   19POPC  C214 2488   5.259   6.557   4.699
   19POPC  H14R 2489   5.314   6.590   4.608
   19POPC  H14S 2490   5.179   6.633   4.717
   19POPC  C215 2491   5.197   6.419   4.680
   19POPC  H15R 2492   5.138   6.393   4.770
   19POPC  H15S 2493   5.278   6.343   4.669
   19POPC  C216 2494   5.100   6.409   4.562
   19POPC  H16R 2495   5.018   6.480   4.580
   19POPC  H16S 2496   5.056   6.307   4.564
   19POPC  C217 2497   5.160   6.438   4.423
   19POPC  H17R 2498   5.271   6.443   4.430
   19POPC  H17S 2499   5.127   6.540   4.391
   19POPC  C218 2500   5.118   6.336   4.318
   19POPC  H18R 2501   5.195   6.257   4.306
   19POPC  H18S 2502   5.101   6.385   4.220
   19POPC  H18T 2503   5.024   6.286   4.347
   19POPC   C33 2504   5.848   6.738   5.652
   19POPC   H3X 2505   5.953   6.750   5.616
   19POPC   H3Y 2506   5.788   6.819   5.604
   19POPC   C34 2507   5.795   6.603   5.601
   19POPC   H4X 2508   5.693   6.586   5.643
   19POPC   H4Y 2509   5.859   6.518   5.633
   19POPC   C35 2510   5.779   6.603   5.449
   19POPC   H5X 2511   5.744   6.705   5.420
   19POPC   H5Y 2512   5.700   6.532   5.417
   19POPC   C36 2513   5.905   6.574   5.368
   19POPC   H6X 2514   5.941   6.470   5.386
   19POPC   H6Y 2515   5.985   6.645   5.399
   19POPC   C37 2516   5.874   6.594   5.219
   19POPC   H7X 2517   5.799   6.675   5.209
   19POPC   H7Y 2518   5.828   6.501   5.179
   19POPC   C38 2519   5.993   6.635   5.132
   19POPC   H8X 2520   6.063   6.548   5.122
   19POPC   H8Y 2521   6.046   6.718   5.182
   19POPC   C39 2522   5.949   6.679   4.992
   19POPC   H9X 2523   6.037   6.706   4.930
   19POPC   H9Y 2524   5.884   6.769   5.000
   19POPC  C310 2525   5.871   6.567   4.923
   19POPC  H10X 2526   5.771   6.563   4.971
   19POPC  H10Y 2527   5.921   6.469   4.941
   19POPC  C311 2528   5.852   6.587   4.774
   19POPC  H11X 2529   5.945   6.558   4.720
   19POPC  H11Y 2530   5.833   6.695   4.753
   19POPC  C312 2531   5.732   6.508   4.721
   19POPC  H12X 2532   5.642   6.541   4.775
   19POPC  H12Y 2533   5.747   6.399   4.739
   19POPC  C313 2534   5.717   6.533   4.572
   19POPC  H13X 2535   5.740   6.441   4.514
   19POPC  H13Y 2536   5.792   6.612   4.549
   19POPC  C314 2537   5.586   6.593   4.523
   19POPC  H14X 2538   5.552   6.673   4.592
   19POPC  H14Y 2539   5.508   6.514   4.520
   19POPC  C315 2540   5.606   6.653   4.384
   19POPC  H15X 2541   5.673   6.586   4.326
   19POPC  H15Y 2542   5.659   6.751   4.392
   19POPC  C316 2543   5.477   6.668   4.307
   19POPC  H16X 2544   5.412   6.737   4.363
   19POPC  H16Y 2545   5.424   6.571   4.301
   19POPC  H16Z 2546   5.493   6.706   4.204
   20POPC     N 2547   4.986   2.664   6.279
   20POPC   C12 2548   4.988   2.633   6.130
   20POPC  H12A 2549   4.889   2.642   6.089
   20POPC  H12B 2550   5.025   2.532   6.117
   20POPC   C13 2551   5.122   2.653   6.340
   20POPC  H13A 2552   5.189   2.724   6.291
   20POPC  H13B 2553   5.121   2.671   6.446
   20POPC  H13C 2554   5.167   2.557   6.320
   20POPC   C14 2555   4.937   2.803   6.306
   20POPC  H14A 2556   4.933   2.821   6.413
   20POPC  H14B 2557   5.005   2.874   6.260
   20POPC  H14C 2558   4.837   2.815   6.266
   20POPC   C15 2559   4.896   2.572   6.353
   20POPC  H15A 2560   4.904   2.590   6.460
   20POPC  H15B 2561   4.920   2.468   6.336
   20POPC  H15C 2562   4.792   2.593   6.327
   20POPC   C11 2563   5.085   2.712   6.042
   20POPC  H11A 2564   5.058   2.821   6.045
   20POPC  H11B 2565   5.076   2.678   5.936
   20POPC     P 2566   5.321   2.798   6.082
   20POPC   O13 2567   5.453   2.738   6.112
   20POPC   O14 2568   5.275   2.907   6.172
   20POPC   O12 2569   5.216   2.682   6.088
   20POPC   O11 2570   5.294   2.834   5.934
   20POPC    C1 2571   5.347   2.943   5.864
   20POPC    HA 2572   5.452   2.966   5.893
   20POPC    HB 2573   5.285   3.033   5.883
   20POPC    C2 2574   5.344   2.907   5.713
   20POPC    HS 2575   5.358   3.000   5.656
   20POPC   O21 2576   5.220   2.844   5.671
   20POPC   C21 2577   5.119   2.930   5.676
   20POPC   O22 2578   5.126   3.047   5.708
   20POPC   C22 2579   4.988   2.867   5.628
   20POPC   H2R 2580   4.912   2.889   5.706
   20POPC   H2S 2581   4.998   2.757   5.618
   20POPC    C3 2582   5.464   2.814   5.680
   20POPC    HX 2583   5.557   2.869   5.704
   20POPC    HY 2584   5.462   2.796   5.570
   20POPC   O31 2585   5.458   2.695   5.759
   20POPC   C31 2586   5.454   2.582   5.694
   20POPC   O32 2587   5.487   2.564   5.578
   20POPC   C32 2588   5.382   2.481   5.782
   20POPC   H2X 2589   5.337   2.535   5.869
   20POPC   H2Y 2590   5.456   2.408   5.820
   20POPC   C23 2591   4.943   2.931   5.494
   20POPC   H3R 2592   4.983   3.035   5.484
   20POPC   H3S 2593   4.832   2.940   5.489
   20POPC   C24 2594   4.987   2.845   5.376
   20POPC   H4R 2595   4.914   2.761   5.367
   20POPC   H4S 2596   5.085   2.800   5.401
   20POPC   C25 2597   4.996   2.919   5.242
   20POPC   H5R 2598   4.918   2.998   5.236
   20POPC   H5S 2599   4.975   2.846   5.160
   20POPC   C26 2600   5.135   2.977   5.213
   20POPC   H6R 2601   5.162   3.053   5.290
   20POPC   H6S 2602   5.132   3.029   5.114
   20POPC   C27 2603   5.244   2.869   5.207
   20POPC   H7R 2604   5.206   2.782   5.149
   20POPC   H7S 2605   5.264   2.833   5.310
   20POPC   C28 2606   5.374   2.917   5.142
   20POPC   H8R 2607   5.386   3.026   5.161
   20POPC   H8S 2608   5.363   2.909   5.031
   20POPC   C29 2609   5.493   2.842   5.196
   20POPC   H91 2610   5.559   2.906   5.255
   20POPC  C210 2611   5.535   2.715   5.176
   20POPC  H101 2612   5.627   2.685   5.227
   20POPC  C211 2613   5.476   2.606   5.090
   20POPC  H11R 2614   5.400   2.546   5.146
   20POPC  H11S 2615   5.557   2.535   5.063
   20POPC  C212 2616   5.417   2.654   4.956
   20POPC  H12R 2617   5.322   2.708   4.974
   20POPC  H12S 2618   5.394   2.565   4.893
   20POPC  C213 2619   5.517   2.745   4.882
   20POPC  H13R 2620   5.609   2.685   4.884
   20POPC  H13S 2621   5.537   2.838   4.938
   20POPC  C214 2622   5.487   2.787   4.738
   20POPC  H14R 2623   5.570   2.855   4.709
   20POPC  H14S 2624   5.393   2.845   4.732
   20POPC  C215 2625   5.485   2.668   4.643
   20POPC  H15R 2626   5.398   2.603   4.666
   20POPC  H15S 2627   5.575   2.606   4.666
   20POPC  C216 2628   5.486   2.702   4.493
   20POPC  H16R 2629   5.384   2.680   4.452
   20POPC  H16S 2630   5.561   2.635   4.447
   20POPC  C217 2631   5.523   2.845   4.454
   20POPC  H17R 2632   5.622   2.869   4.498
   20POPC  H17S 2633   5.445   2.910   4.499
   20POPC  C218 2634   5.528   2.877   4.304
   20POPC  H18R 2635   5.543   2.787   4.242
   20POPC  H18S 2636   5.612   2.947   4.281
   20POPC  H18T 2637   5.435   2.929   4.274
   20POPC   C33 2638   5.272   2.415   5.698
   20POPC   H3X 2639   5.214   2.345   5.763
   20POPC   H3Y 2640   5.319   2.355   5.617
   20POPC   C34 2641   5.177   2.518   5.637
   20POPC   H4X 2642   5.229   2.582   5.562
   20POPC   H4Y 2643   5.141   2.586   5.717
   20POPC   C35 2644   5.058   2.450   5.570
   20POPC   H5X 2645   4.985   2.528   5.540
   20POPC   H5Y 2646   5.014   2.385   5.648
   20POPC   C36 2647   5.090   2.360   5.449
   20POPC   H6X 2648   4.994   2.323   5.406
   20POPC   H6Y 2649   5.146   2.271   5.486
   20POPC   C37 2650   5.173   2.428   5.339
   20POPC   H7X 2651   5.208   2.352   5.267
   20POPC   H7Y 2652   5.264   2.475   5.382
   20POPC   C38 2653   5.095   2.531   5.256
   20POPC   H8X 2654   5.169   2.584   5.193
   20POPC   H8Y 2655   5.049   2.604   5.325
   20POPC   C39 2656   4.986   2.467   5.168
   20POPC   H9X 2657   4.896   2.451   5.232
   20POPC   H9Y 2658   5.021   2.368   5.133
   20POPC  C310 2659   4.945   2.550   5.045
   20POPC  H10X 2660   4.923   2.654   5.078
   20POPC  H10Y 2661   4.852   2.508   5.002
   20POPC  C311 2662   5.052   2.553   4.935
   20POPC  H11X 2663   5.064   2.451   4.890
   20POPC  H11Y 2664   5.149   2.580   4.981
   20POPC  C312 2665   5.022   2.655   4.824
   20POPC  H12X 2666   4.998   2.752   4.874
   20POPC  H12Y 2667   4.934   2.624   4.765
   20POPC  C313 2668   5.142   2.678   4.730
   20POPC  H13X 2669   5.173   2.580   4.686
   20POPC  H13Y 2670   5.226   2.714   4.793
   20POPC  C314 2671   5.123   2.781   4.619
   20POPC  H14X 2672   5.050   2.741   4.546
   20POPC  H14Y 2673   5.219   2.793   4.563
   20POPC  C315 2674   5.077   2.920   4.667
   20POPC  H15X 2675   5.160   2.963   4.728
   20POPC  H15Y 2676   4.989   2.908   4.734
   20POPC  C316 2677   5.039   3.017   4.555
   20POPC  H16X 2678   5.124   3.031   4.485
   20POPC  H16Y 2679   5.010   3.115   4.597
   20POPC  H16Z 2680   4.953   2.976   4.498
   21POPC     N 2681   4.717   6.922   6.190
   21POPC   C12 2682   4.743   6.811   6.088
   21POPC  H12A 2683   4.739   6.853   5.988
   21POPC  H12B 2684   4.661   6.738   6.095
   21POPC   C13 2685   4.615   7.019   6.137
   21POPC  H13A 2686   4.584   7.088   6.214
   21POPC  H13B 2687   4.652   7.075   6.052
   21POPC  H13C 2688   4.526   6.965   6.105
   21POPC   C14 2689   4.662   6.864   6.316
   21POPC  H14A 2690   4.660   6.936   6.397
   21POPC  H14B 2691   4.561   6.826   6.304
   21POPC  H14C 2692   4.723   6.780   6.350
   21POPC   C15 2693   4.844   6.993   6.227
   21POPC  H15A 2694   4.909   6.920   6.276
   21POPC  H15B 2695   4.824   7.074   6.296
   21POPC  H15C 2696   4.893   7.030   6.138
   21POPC   C11 2697   4.875   6.728   6.096
   21POPC  H11A 2698   4.961   6.794   6.073
   21POPC  H11B 2699   4.875   6.650   6.015
   21POPC     P 2700   4.816   6.540   6.270
   21POPC   O13 2701   4.764   6.567   6.406
   21POPC   O14 2702   4.898   6.419   6.252
   21POPC   O12 2703   4.895   6.669   6.225
   21POPC   O11 2704   4.689   6.537   6.169
   21POPC    C1 2705   4.565   6.489   6.222
   21POPC    HA 2706   4.542   6.538   6.319
   21POPC    HB 2707   4.571   6.379   6.240
   21POPC    C2 2708   4.435   6.514   6.136
   21POPC    HS 2709   4.353   6.455   6.183
   21POPC   O21 2710   4.451   6.482   5.996
   21POPC   C21 2711   4.424   6.354   5.970
   21POPC   O22 2712   4.411   6.269   6.057
   21POPC   C22 2713   4.413   6.336   5.817
   21POPC   H2R 2714   4.331   6.402   5.782
   21POPC   H2S 2715   4.384   6.231   5.798
   21POPC    C3 2716   4.387   6.662   6.147
   21POPC    HX 2717   4.415   6.703   6.247
   21POPC    HY 2718   4.275   6.660   6.147
   21POPC   O31 2719   4.442   6.746   6.044
   21POPC   C31 2720   4.366   6.748   5.933
   21POPC   O32 2721   4.249   6.714   5.927
   21POPC   C32 2722   4.454   6.792   5.817
   21POPC   H2X 2723   4.555   6.748   5.829
   21POPC   H2Y 2724   4.463   6.902   5.821
   21POPC   C23 2725   4.546   6.370   5.743
   21POPC   H3R 2726   4.623   6.307   5.792
   21POPC   H3S 2727   4.575   6.476   5.757
   21POPC   C24 2728   4.556   6.330   5.594
   21POPC   H4R 2729   4.501   6.236   5.575
   21POPC   H4S 2730   4.664   6.310   5.575
   21POPC   C25 2731   4.512   6.440   5.497
   21POPC   H5R 2732   4.541   6.539   5.538
   21POPC   H5S 2733   4.401   6.439   5.489
   21POPC   C26 2734   4.577   6.431   5.359
   21POPC   H6R 2735   4.525   6.505   5.294
   21POPC   H6S 2736   4.562   6.330   5.316
   21POPC   C27 2737   4.727   6.466   5.359
   21POPC   H7R 2738   4.787   6.381   5.398
   21POPC   H7S 2739   4.741   6.551   5.430
   21POPC   C28 2740   4.783   6.514   5.223
   21POPC   H8R 2741   4.875   6.574   5.244
   21POPC   H8S 2742   4.710   6.586   5.179
   21POPC   C29 2743   4.820   6.404   5.127
   21POPC   H91 2744   4.902   6.340   5.164
   21POPC  C210 2745   4.764   6.375   5.009
   21POPC  H101 2746   4.801   6.290   4.950
   21POPC  C211 2747   4.649   6.450   4.947
   21POPC  H11R 2748   4.648   6.440   4.836
   21POPC  H11S 2749   4.656   6.559   4.969
   21POPC  C212 2750   4.518   6.395   5.005
   21POPC  H12R 2751   4.525   6.388   5.115
   21POPC  H12S 2752   4.502   6.290   4.971
   21POPC  C213 2753   4.393   6.477   4.974
   21POPC  H13R 2754   4.311   6.434   5.036
   21POPC  H13S 2755   4.367   6.464   4.867
   21POPC  C214 2756   4.402   6.626   5.009
   21POPC  H14R 2757   4.471   6.676   4.939
   21POPC  H14S 2758   4.443   6.636   5.112
   21POPC  C215 2759   4.265   6.695   5.003
   21POPC  H15R 2760   4.277   6.802   5.031
   21POPC  H15S 2761   4.195   6.648   5.077
   21POPC  C216 2762   4.204   6.686   4.863
   21POPC  H16R 2763   4.185   6.579   4.838
   21POPC  H16S 2764   4.278   6.724   4.789
   21POPC  C217 2765   4.073   6.763   4.844
   21POPC  H17R 2766   4.093   6.871   4.864
   21POPC  H17S 2767   3.997   6.727   4.917
   21POPC  C218 2768   4.020   6.747   4.703
   21POPC  H18R 2769   3.977   6.646   4.687
   21POPC  H18S 2770   4.104   6.760   4.630
   21POPC  H18T 2771   3.942   6.823   4.681
   21POPC   C33 2772   4.395   6.746   5.682
   21POPC   H3X 2773   4.285   6.753   5.684
   21POPC   H3Y 2774   4.418   6.638   5.669
   21POPC   C34 2775   4.446   6.829   5.564
   21POPC   H4X 2776   4.408   6.934   5.573
   21POPC   H4Y 2777   4.406   6.786   5.469
   21POPC   C35 2778   4.599   6.835   5.557
   21POPC   H5X 2779   4.639   6.731   5.554
   21POPC   H5Y 2780   4.641   6.883   5.648
   21POPC   C36 2781   4.650   6.910   5.433
   21POPC   H6X 2782   4.621   7.017   5.441
   21POPC   H6Y 2783   4.600   6.868   5.343
   21POPC   C37 2784   4.802   6.897   5.418
   21POPC   H7X 2785   4.827   6.789   5.405
   21POPC   H7Y 2786   4.851   6.931   5.512
   21POPC   C38 2787   4.859   6.975   5.300
   21POPC   H8X 2788   4.970   6.959   5.298
   21POPC   H8Y 2789   4.841   7.083   5.314
   21POPC   C39 2790   4.801   6.930   5.165
   21POPC   H9X 2791   4.696   6.967   5.157
   21POPC   H9Y 2792   4.798   6.819   5.162
   21POPC  C310 2793   4.883   6.982   5.047
   21POPC  H10X 2794   4.987   6.944   5.052
   21POPC  H10Y 2795   4.887   7.093   5.054
   21POPC  C311 2796   4.820   6.944   4.913
   21POPC  H11X 2797   4.858   7.014   4.834
   21POPC  H11Y 2798   4.710   6.959   4.920
   21POPC  C312 2799   4.849   6.801   4.867
   21POPC  H12X 2800   4.812   6.727   4.941
   21POPC  H12Y 2801   4.960   6.788   4.859
   21POPC  C313 2802   4.786   6.773   4.730
   21POPC  H13X 2803   4.796   6.864   4.666
   21POPC  H13Y 2804   4.677   6.752   4.742
   21POPC  C314 2805   4.853   6.657   4.655
   21POPC  H14X 2806   4.832   6.561   4.707
   21POPC  H14Y 2807   4.963   6.675   4.659
   21POPC  C315 2808   4.813   6.647   4.507
   21POPC  H15X 2809   4.871   6.565   4.458
   21POPC  H15Y 2810   4.842   6.742   4.456
   21POPC  C316 2811   4.665   6.621   4.484
   21POPC  H16X 2812   4.606   6.708   4.518
   21POPC  H16Y 2813   4.630   6.532   4.541
   21POPC  H16Z 2814   4.645   6.604   4.376
   22POPC     N 2815   6.734   5.119   6.107
   22POPC   C12 2816   6.833   5.230   6.137
   22POPC  H12A 2817   6.848   5.286   6.045
   22POPC  H12B 2818   6.930   5.190   6.166
   22POPC   C13 2819   6.622   5.175   6.024
   22POPC  H13A 2820   6.550   5.099   5.996
   22POPC  H13B 2821   6.571   5.253   6.081
   22POPC  H13C 2822   6.659   5.225   5.935
   22POPC   C14 2823   6.804   5.008   6.033
   22POPC  H14A 2824   6.855   5.042   5.944
   22POPC  H14B 2825   6.878   4.960   6.095
   22POPC  H14C 2826   6.733   4.932   6.002
   22POPC   C15 2827   6.673   5.067   6.234
   22POPC  H15A 2828   6.623   5.149   6.285
   22POPC  H15B 2829   6.747   5.026   6.303
   22POPC  H15C 2830   6.598   4.992   6.213
   22POPC   C11 2831   6.796   5.337   6.243
   22POPC  H11A 2832   6.882   5.409   6.249
   22POPC  H11B 2833   6.792   5.286   6.341
   22POPC     P 2834   6.673   5.523   6.112
   22POPC   O13 2835   6.759   5.630   6.165
   22POPC   O14 2836   6.538   5.558   6.063
   22POPC   O12 2837   6.670   5.405   6.219
   22POPC   O11 2838   6.754   5.449   6.001
   22POPC    C1 2839   6.827   5.521   5.904
   22POPC    HA 2840   6.935   5.527   5.934
   22POPC    HB 2841   6.788   5.624   5.894
   22POPC    C2 2842   6.814   5.447   5.771
   22POPC    HS 2843   6.855   5.509   5.690
   22POPC   O21 2844   6.677   5.411   5.743
   22POPC   C21 2845   6.608   5.513   5.700
   22POPC   O22 2846   6.646   5.627   5.691
   22POPC   C22 2847   6.479   5.461   5.637
   22POPC   H2R 2848   6.403   5.540   5.649
   22POPC   H2S 2849   6.445   5.371   5.690
   22POPC    C3 2850   6.895   5.317   5.774
   22POPC    HX 2851   6.854   5.255   5.857
   22POPC    HY 2852   7.002   5.342   5.795
   22POPC   O31 2853   6.879   5.252   5.647
   22POPC   C31 2854   6.924   5.128   5.647
   22POPC   O32 2855   6.980   5.073   5.740
   22POPC   C32 2856   6.889   5.059   5.516
   22POPC   H2X 2857   6.790   5.094   5.481
   22POPC   H2Y 2858   6.882   4.950   5.539
   22POPC   C23 2859   6.502   5.432   5.486
   22POPC   H3R 2860   6.580   5.353   5.474
   22POPC   H3S 2861   6.540   5.525   5.436
   22POPC   C24 2862   6.374   5.388   5.417
   22POPC   H4R 2863   6.291   5.454   5.451
   22POPC   H4S 2864   6.349   5.284   5.450
   22POPC   C25 2865   6.379   5.393   5.263
   22POPC   H5R 2866   6.307   5.318   5.222
   22POPC   H5S 2867   6.481   5.367   5.227
   22POPC   C26 2868   6.336   5.531   5.210
   22POPC   H6R 2869   6.415   5.604   5.236
   22POPC   H6S 2870   6.243   5.562   5.264
   22POPC   C27 2871   6.304   5.539   5.060
   22POPC   H7R 2872   6.272   5.643   5.035
   22POPC   H7S 2873   6.216   5.475   5.041
   22POPC   C28 2874   6.417   5.498   4.966
   22POPC   H8R 2875   6.466   5.405   5.001
   22POPC   H8S 2876   6.495   5.576   4.967
   22POPC   C29 2877   6.357   5.482   4.829
   22POPC   H91 2878   6.346   5.573   4.768
   22POPC  C210 2879   6.312   5.365   4.781
   22POPC  H101 2880   6.263   5.363   4.682
   22POPC  C211 2881   6.313   5.233   4.853
   22POPC  H11R 2882   6.210   5.192   4.856
   22POPC  H11S 2883   6.342   5.242   4.961
   22POPC  C212 2884   6.407   5.129   4.789
   22POPC  H12R 2885   6.365   5.028   4.808
   22POPC  H12S 2886   6.506   5.137   4.839
   22POPC  C213 2887   6.430   5.141   4.637
   22POPC  H13R 2888   6.468   5.242   4.612
   22POPC  H13S 2889   6.331   5.129   4.590
   22POPC  C214 2890   6.530   5.037   4.583
   22POPC  H14R 2891   6.521   5.031   4.473
   22POPC  H14S 2892   6.505   4.938   4.624
   22POPC  C215 2893   6.677   5.074   4.613
   22POPC  H15R 2894   6.688   5.103   4.720
   22POPC  H15S 2895   6.700   5.164   4.552
   22POPC  C216 2896   6.778   4.963   4.581
   22POPC  H16R 2897   6.726   4.880   4.528
   22POPC  H16S 2898   6.818   4.921   4.676
   22POPC  C217 2899   6.895   5.009   4.492
   22POPC  H17R 2900   6.854   5.043   4.395
   22POPC  H17S 2901   6.960   4.921   4.471
   22POPC  C218 2902   6.982   5.122   4.550
   22POPC  H18R 2903   7.025   5.091   4.648
   22POPC  H18S 2904   6.921   5.213   4.566
   22POPC  H18T 2905   7.065   5.147   4.481
   22POPC   C33 2906   6.998   5.077   5.407
   22POPC   H3X 2907   6.978   5.003   5.326
   22POPC   H3Y 2908   7.099   5.053   5.448
   22POPC   C34 2909   6.999   5.217   5.345
   22POPC   H4X 2910   7.080   5.219   5.268
   22POPC   H4Y 2911   7.026   5.293   5.422
   22POPC   C35 2912   6.867   5.259   5.278
   22POPC   H5X 2913   6.791   5.284   5.355
   22POPC   H5Y 2914   6.828   5.176   5.215
   22POPC   C36 2915   6.896   5.381   5.191
   22POPC   H6X 2916   6.979   5.352   5.122
   22POPC   H6Y 2917   6.934   5.462   5.257
   22POPC   C37 2918   6.783   5.437   5.106
   22POPC   H7X 2919   6.703   5.481   5.169
   22POPC   H7Y 2920   6.738   5.354   5.047
   22POPC   C38 2921   6.841   5.543   5.010
   22POPC   H8X 2922   6.947   5.514   4.987
   22POPC   H8Y 2923   6.844   5.642   5.060
   22POPC   C39 2924   6.768   5.550   4.877
   22POPC   H9X 2925   6.673   5.605   4.893
   22POPC   H9Y 2926   6.744   5.448   4.840
   22POPC  C310 2927   6.845   5.626   4.769
   22POPC  H10X 2928   6.933   5.567   4.734
   22POPC  H10Y 2929   6.883   5.720   4.813
   22POPC  C311 2930   6.752   5.659   4.652
   22POPC  H11X 2931   6.791   5.746   4.594
   22POPC  H11Y 2932   6.653   5.688   4.694
   22POPC  C312 2933   6.727   5.541   4.559
   22POPC  H12X 2934   6.695   5.453   4.621
   22POPC  H12Y 2935   6.821   5.512   4.507
   22POPC  C313 2936   6.616   5.570   4.458
   22POPC  H13X 2937   6.654   5.641   4.381
   22POPC  H13Y 2938   6.531   5.619   4.510
   22POPC  C314 2939   6.566   5.441   4.391
   22POPC  H14X 2940   6.487   5.466   4.318
   22POPC  H14Y 2941   6.518   5.379   4.469
   22POPC  C315 2942   6.678   5.358   4.326
   22POPC  H15X 2943   6.748   5.323   4.405
   22POPC  H15Y 2944   6.738   5.422   4.257
   22POPC  C316 2945   6.625   5.236   4.250
   22POPC  H16X 2946   6.590   5.264   4.149
   22POPC  H16Y 2947   6.539   5.192   4.305
   22POPC  H16Z 2948   6.704   5.159   4.240
   23POPC     N 2949   3.195   6.131   6.134
   23POPC   C12 2950   3.275   6.217   6.038
   23POPC  H12A 2951   3.210   6.287   5.985
   23POPC  H12B 2952   3.318   6.154   5.961
   23POPC   C13 2953   3.112   6.219   6.223
   23POPC  H13A 2954   3.174   6.279   6.289
   23POPC  H13B 2955   3.055   6.292   6.166
   23POPC  H13C 2956   3.045   6.160   6.285
   23POPC   C14 2957   3.103   6.039   6.060
   23POPC  H14A 2958   3.029   5.999   6.129
   23POPC  H14B 2959   3.048   6.095   5.985
   23POPC  H14C 2960   3.157   5.958   6.013
   23POPC   C15 2961   3.285   6.048   6.221
   23POPC  H15A 2962   3.341   5.976   6.161
   23POPC  H15B 2963   3.228   5.992   6.292
   23POPC  H15C 2964   3.352   6.112   6.276
   23POPC   C11 2965   3.390   6.304   6.094
   23POPC  H11A 2966   3.434   6.360   6.009
   23POPC  H11B 2967   3.469   6.236   6.131
   23POPC     P 2968   3.268   6.527   6.163
   23POPC   O13 2969   3.352   6.642   6.202
   23POPC   O14 2970   3.134   6.519   6.222
   23POPC   O12 2971   3.347   6.392   6.198
   23POPC   O11 2972   3.254   6.520   6.005
   23POPC    C1 2973   3.124   6.537   5.947
   23POPC    HA 2974   3.095   6.644   5.949
   23POPC    HB 2975   3.046   6.478   6.002
   23POPC    C2 2976   3.119   6.484   5.802
   23POPC    HS 2977   3.011   6.474   5.775
   23POPC   O21 2978   3.191   6.358   5.797
   23POPC   C21 2979   3.136   6.269   5.717
   23POPC   O22 2980   3.018   6.266   5.685
   23POPC   C22 2981   3.243   6.173   5.666
   23POPC   H2R 2982   3.208   6.069   5.678
   23POPC   H2S 2983   3.337   6.186   5.724
   23POPC    C3 2984   3.181   6.583   5.700
   23POPC    HX 2985   3.287   6.603   5.728
   23POPC    HY 2986   3.125   6.679   5.702
   23POPC   O31 2987   3.178   6.521   5.571
   23POPC   C31 2988   3.118   6.575   5.467
   23POPC   O32 2989   3.078   6.689   5.457
   23POPC   C32 2990   3.120   6.467   5.357
   23POPC   H2X 2991   3.103   6.369   5.404
   23POPC   H2Y 2992   3.222   6.472   5.316
   23POPC   C23 2993   3.268   6.209   5.519
   23POPC   H3R 2994   3.291   6.318   5.515
   23POPC   H3S 2995   3.177   6.188   5.459
   23POPC   C24 2996   3.386   6.139   5.452
   23POPC   H4R 2997   3.364   6.031   5.455
   23POPC   H4S 2998   3.480   6.161   5.507
   23POPC   C25 2999   3.400   6.177   5.305
   23POPC   H5R 3000   3.299   6.161   5.260
   23POPC   H5S 3001   3.464   6.106   5.252
   23POPC   C26 3002   3.440   6.323   5.277
   23POPC   H6R 3003   3.389   6.389   5.349
   23POPC   H6S 3004   3.403   6.344   5.174
   23POPC   C27 3005   3.587   6.366   5.283
   23POPC   H7R 3006   3.652   6.297   5.226
   23POPC   H7S 3007   3.624   6.363   5.387
   23POPC   C28 3008   3.609   6.506   5.219
   23POPC   H8R 3009   3.575   6.498   5.113
   23POPC   H8S 3010   3.719   6.523   5.213
   23POPC   C29 3011   3.546   6.627   5.285
   23POPC   H91 3012   3.600   6.667   5.371
   23POPC  C210 3013   3.428   6.683   5.254
   23POPC  H101 3014   3.392   6.770   5.312
   23POPC  C211 3015   3.333   6.639   5.146
   23POPC  H11R 3016   3.230   6.657   5.186
   23POPC  H11S 3017   3.343   6.530   5.131
   23POPC  C212 3018   3.337   6.700   5.006
   23POPC  H12R 3019   3.420   6.657   4.947
   23POPC  H12S 3020   3.356   6.809   5.017
   23POPC  C213 3021   3.201   6.682   4.934
   23POPC  H13R 3022   3.162   6.783   4.910
   23POPC  H13S 3023   3.127   6.638   5.002
   23POPC  C214 3024   3.204   6.602   4.803
   23POPC  H14R 3025   3.234   6.497   4.823
   23POPC  H14S 3026   3.282   6.648   4.739
   23POPC  C215 3027   3.068   6.604   4.730
   23POPC  H15R 3028   3.026   6.706   4.736
   23POPC  H15S 3029   2.997   6.538   4.785
   23POPC  C216 3030   3.070   6.564   4.581
   23POPC  H16R 3031   2.968   6.578   4.539
   23POPC  H16S 3032   3.093   6.456   4.574
   23POPC  C217 3033   3.170   6.644   4.495
   23POPC  H17R 3034   3.272   6.629   4.535
   23POPC  H17S 3035   3.146   6.751   4.505
   23POPC  C218 3036   3.172   6.611   4.345
   23POPC  H18R 3037   3.161   6.502   4.328
   23POPC  H18S 3038   3.269   6.644   4.301
   23POPC  H18T 3039   3.090   6.663   4.292
   23POPC   C33 3040   3.025   6.480   5.238
   23POPC   H3X 3041   3.014   6.589   5.214
   23POPC   H3Y 3042   2.926   6.439   5.266
   23POPC   C34 3043   3.074   6.408   5.110
   23POPC   H4X 3044   3.182   6.422   5.094
   23POPC   H4Y 3045   3.022   6.454   5.024
   23POPC   C35 3046   3.046   6.258   5.103
   23POPC   H5X 3047   2.937   6.245   5.122
   23POPC   H5Y 3048   3.100   6.203   5.183
   23POPC   C36 3049   3.081   6.201   4.964
   23POPC   H6X 3050   3.190   6.183   4.953
   23POPC   H6Y 3051   3.053   6.280   4.889
   23POPC   C37 3052   2.999   6.076   4.929
   23POPC   H7X 3053   2.901   6.096   4.975
   23POPC   H7Y 3054   3.041   5.984   4.975
   23POPC   C38 3055   2.968   6.058   4.780
   23POPC   H8X 3056   3.011   6.144   4.724
   23POPC   H8Y 3057   2.857   6.062   4.765
   23POPC   C39 3058   3.015   5.926   4.720
   23POPC   H9X 3059   2.992   5.841   4.788
   23POPC   H9Y 3060   3.125   5.930   4.719
   23POPC  C310 3061   2.955   5.902   4.579
   23POPC  H10X 3062   2.849   5.869   4.587
   23POPC  H10Y 3063   3.012   5.820   4.530
   23POPC  C311 3064   2.957   6.022   4.485
   23POPC  H11X 3065   2.893   6.103   4.526
   23POPC  H11Y 3066   2.914   5.993   4.386
   23POPC  C312 3067   3.100   6.070   4.467
   23POPC  H12X 3068   3.155   5.997   4.404
   23POPC  H12Y 3069   3.149   6.073   4.567
   23POPC  C313 3070   3.117   6.210   4.410
   23POPC  H13X 3071   3.052   6.281   4.464
   23POPC  H13Y 3072   3.083   6.208   4.305
   23POPC  C314 3073   3.265   6.250   4.423
   23POPC  H14X 3074   3.283   6.342   4.363
   23POPC  H14Y 3075   3.328   6.170   4.380
   23POPC  C315 3076   3.306   6.275   4.569
   23POPC  H15X 3077   3.347   6.181   4.613
   23POPC  H15Y 3078   3.215   6.298   4.628
   23POPC  C316 3079   3.406   6.389   4.589
   23POPC  H16X 3080   3.510   6.353   4.592
   23POPC  H16Y 3081   3.387   6.441   4.685
   23POPC  H16Z 3082   3.398   6.463   4.507
   24POPC     N 3083   6.739   4.505   6.279
   24POPC   C12 3084   6.689   4.484   6.136
   24POPC  H12A 3085   6.631   4.569   6.103
   24POPC  H12B 3086   6.625   4.397   6.135
   24POPC   C13 3087   6.631   4.556   6.369
   24POPC  H13A 3088   6.608   4.660   6.351
   24POPC  H13B 3089   6.540   4.498   6.360
   24POPC  H13C 3090   6.665   4.551   6.473
   24POPC   C14 3091   6.790   4.374   6.335
   24POPC  H14A 3092   6.823   4.385   6.438
   24POPC  H14B 3093   6.716   4.296   6.330
   24POPC  H14C 3094   6.878   4.341   6.276
   24POPC   C15 3095   6.857   4.598   6.279
   24POPC  H15A 3096   6.933   4.563   6.208
   24POPC  H15B 3097   6.905   4.600   6.377
   24POPC  H15C 3098   6.830   4.698   6.252
   24POPC   C11 3099   6.796   4.459   6.027
   24POPC  H11A 3100   6.836   4.559   5.996
   24POPC  H11B 3101   6.752   4.412   5.937
   24POPC     P 3102   7.048   4.392   6.053
   24POPC   O13 3103   7.121   4.355   6.176
   24POPC   O14 3104   7.062   4.532   6.007
   24POPC   O12 3105   6.894   4.371   6.081
   24POPC   O11 3106   7.073   4.291   5.934
   24POPC    C1 3107   6.974   4.193   5.896
   24POPC    HA 3108   6.873   4.210   5.937
   24POPC    HB 3109   7.005   4.094   5.937
   24POPC    C2 3110   6.954   4.186   5.743
   24POPC    HS 3111   7.054   4.163   5.699
   24POPC   O21 3112   6.902   4.314   5.699
   24POPC   C21 3113   6.952   4.359   5.587
   24POPC   O22 3114   7.045   4.311   5.524
   24POPC   C22 3115   6.867   4.477   5.540
   24POPC   H2R 3116   6.901   4.568   5.592
   24POPC   H2S 3117   6.761   4.456   5.567
   24POPC    C3 3118   6.854   4.073   5.703
   24POPC    HX 3119   6.762   4.090   5.763
   24POPC    HY 3120   6.892   3.973   5.734
   24POPC   O31 3121   6.814   4.071   5.564
   24POPC   C31 3122   6.912   4.036   5.481
   24POPC   O32 3123   7.027   4.013   5.510
   24POPC   C32 3124   6.861   4.030   5.339
   24POPC   H2X 3125   6.760   4.075   5.332
   24POPC   H2Y 3126   6.857   3.923   5.307
   24POPC   C23 3127   6.879   4.493   5.387
   24POPC   H3R 3128   6.848   4.396   5.340
   24POPC   H3S 3129   6.985   4.510   5.357
   24POPC   C24 3130   6.794   4.607   5.328
   24POPC   H4R 3131   6.844   4.704   5.349
   24POPC   H4S 3132   6.694   4.609   5.376
   24POPC   C25 3133   6.774   4.589   5.177
   24POPC   H5R 3134   6.873   4.568   5.130
   24POPC   H5S 3135   6.739   4.685   5.133
   24POPC   C26 3136   6.673   4.477   5.145
   24POPC   H6R 3137   6.571   4.517   5.165
   24POPC   H6S 3138   6.688   4.391   5.213
   24POPC   C27 3139   6.677   4.422   5.001
   24POPC   H7R 3140   6.780   4.390   4.973
   24POPC   H7S 3141   6.650   4.507   4.934
   24POPC   C28 3142   6.576   4.307   4.978
   24POPC   H8R 3143   6.548   4.316   4.871
   24POPC   H8S 3144   6.487   4.332   5.040
   24POPC   C29 3145   6.612   4.165   5.008
   24POPC   H91 3146   6.636   4.145   5.114
   24POPC  C210 3147   6.612   4.061   4.921
   24POPC  H101 3148   6.640   3.961   4.957
   24POPC  C211 3149   6.575   4.067   4.776
   24POPC  H11R 3150   6.508   4.153   4.754
   24POPC  H11S 3151   6.518   3.976   4.748
   24POPC  C212 3152   6.701   4.078   4.689
   24POPC  H12R 3153   6.771   4.154   4.730
   24POPC  H12S 3154   6.670   4.114   4.589
   24POPC  C213 3155   6.774   3.944   4.672
   24POPC  H13R 3156   6.699   3.862   4.662
   24POPC  H13S 3157   6.834   3.924   4.763
   24POPC  C214 3158   6.864   3.945   4.547
   24POPC  H14R 3159   6.944   3.869   4.558
   24POPC  H14S 3160   6.914   4.043   4.538
   24POPC  C215 3161   6.786   3.915   4.419
   24POPC  H15R 3162   6.718   4.000   4.402
   24POPC  H15S 3163   6.722   3.826   4.438
   24POPC  C216 3164   6.873   3.895   4.293
   24POPC  H16R 3165   6.896   3.790   4.269
   24POPC  H16S 3166   6.974   3.933   4.318
   24POPC  C217 3167   6.821   3.971   4.169
   24POPC  H17R 3168   6.910   3.997   4.107
   24POPC  H17S 3169   6.777   4.067   4.204
   24POPC  C218 3170   6.721   3.900   4.076
   24POPC  H18R 3171   6.764   3.806   4.037
   24POPC  H18S 3172   6.696   3.965   3.990
   24POPC  H18T 3173   6.626   3.876   4.124
   24POPC   C33 3174   6.964   4.108   5.255
   24POPC   H3X 3175   7.061   4.056   5.255
   24POPC   H3Y 3176   6.982   4.208   5.300
   24POPC   C34 3177   6.916   4.129   5.113
   24POPC   H4X 3178   6.833   4.202   5.119
   24POPC   H4Y 3179   6.880   4.034   5.069
   24POPC   C35 3180   7.022   4.191   5.022
   24POPC   H5X 3181   6.979   4.194   4.920
   24POPC   H5Y 3182   7.113   4.127   5.019
   24POPC   C36 3183   7.061   4.332   5.069
   24POPC   H6X 3184   7.118   4.326   5.164
   24POPC   H6Y 3185   6.967   4.388   5.090
   24POPC   C37 3186   7.139   4.410   4.963
   24POPC   H7X 3187   7.227   4.350   4.931
   24POPC   H7Y 3188   7.178   4.504   5.010
   24POPC   C38 3189   7.049   4.449   4.845
   24POPC   H8X 3190   6.994   4.541   4.875
   24POPC   H8Y 3191   6.971   4.371   4.826
   24POPC   C39 3192   7.119   4.473   4.711
   24POPC   H9X 3193   7.124   4.380   4.653
   24POPC   H9Y 3194   7.224   4.503   4.730
   24POPC  C310 3195   7.050   4.584   4.630
   24POPC  H10X 3196   7.115   4.614   4.545
   24POPC  H10Y 3197   7.039   4.672   4.697
   24POPC  C311 3198   6.913   4.548   4.570
   24POPC  H11X 3199   6.856   4.644   4.560
   24POPC  H11Y 3200   6.854   4.483   4.638
   24POPC  C312 3201   6.928   4.491   4.429
   24POPC  H12X 3202   6.854   4.409   4.410
   24POPC  H12Y 3203   7.030   4.448   4.418
   24POPC  C313 3204   6.914   4.602   4.325
   24POPC  H13X 3205   6.967   4.575   4.231
   24POPC  H13Y 3206   6.964   4.693   4.366
   24POPC  C314 3207   6.767   4.633   4.296
   24POPC  H14X 3208   6.710   4.627   4.391
   24POPC  H14Y 3209   6.726   4.555   4.228
   24POPC  C315 3210   6.740   4.771   4.238
   24POPC  H15X 3211   6.784   4.779   4.136
   24POPC  H15Y 3212   6.787   4.851   4.298
   24POPC  C316 3213   6.589   4.792   4.232
   24POPC  H16X 3214   6.561   4.861   4.149
   24POPC  H16Y 3215   6.552   4.833   4.329
   24POPC  H16Z 3216   6.539   4.694   4.214
   25POPC     N 3217   6.701   6.226   6.107
   25POPC   C12 3218   6.571   6.240   6.031
   25POPC  H12A 3219   6.521   6.143   6.033
   25POPC  H12B 3220   6.592   6.265   5.928
   25POPC   C13 3221   6.772   6.358   6.109
   25POPC  H13A 3222   6.713   6.430   6.167
   25POPC  H13B 3223   6.867   6.352   6.163
   25POPC  H13C 3224   6.786   6.401   6.012
   25POPC   C14 3225   6.668   6.187   6.248
   25POPC  H14A 3226   6.756   6.192   6.310
   25POPC  H14B 3227   6.595   6.257   6.290
   25POPC  H14C 3228   6.625   6.088   6.254
   25POPC   C15 3229   6.791   6.120   6.051
   25POPC  H15A 3230   6.825   6.145   5.952
   25POPC  H15B 3231   6.742   6.023   6.045
   25POPC  H15C 3232   6.877   6.107   6.117
   25POPC   C11 3233   6.467   6.343   6.085
   25POPC  H11A 3234   6.389   6.359   6.006
   25POPC  H11B 3235   6.517   6.442   6.096
   25POPC     P 3236   6.298   6.190   6.205
   25POPC   O13 3237   6.184   6.241   6.127
   25POPC   O14 3238   6.272   6.144   6.343
   25POPC   O12 3239   6.408   6.304   6.210
   25POPC   O11 3240   6.375   6.080   6.123
   25POPC    C1 3241   6.303   5.973   6.061
   25POPC    HA 3242   6.196   5.998   6.042
   25POPC    HB 3243   6.306   5.885   6.128
   25POPC    C2 3244   6.367   5.937   5.924
   25POPC    HS 3245   6.465   5.888   5.949
   25POPC   O21 3246   6.383   6.058   5.847
   25POPC   C21 3247   6.492   6.060   5.772
   25POPC   O22 3248   6.580   5.975   5.772
   25POPC   C22 3249   6.494   6.190   5.691
   25POPC   H2R 3250   6.469   6.273   5.761
   25POPC   H2S 3251   6.414   6.185   5.615
   25POPC    C3 3252   6.280   5.832   5.848
   25POPC    HX 3253   6.183   5.881   5.822
   25POPC    HY 3254   6.256   5.752   5.921
   25POPC   O31 3255   6.347   5.772   5.734
   25POPC   C31 3256   6.337   5.843   5.621
   25POPC   O32 3257   6.262   5.939   5.608
   25POPC   C32 3258   6.430   5.793   5.511
   25POPC   H2X 3259   6.402   5.689   5.487
   25POPC   H2Y 3260   6.534   5.797   5.550
   25POPC   C23 3261   6.631   6.218   5.626
   25POPC   H3R 3262   6.713   6.188   5.694
   25POPC   H3S 3263   6.640   6.329   5.611
   25POPC   C24 3264   6.652   6.152   5.489
   25POPC   H4R 3265   6.615   6.047   5.491
   25POPC   H4S 3266   6.762   6.145   5.470
   25POPC   C25 3267   6.589   6.231   5.371
   25POPC   H5R 3268   6.607   6.339   5.390
   25POPC   H5S 3269   6.479   6.216   5.370
   25POPC   C26 3270   6.651   6.195   5.235
   25POPC   H6R 3271   6.620   6.093   5.205
   25POPC   H6S 3272   6.762   6.194   5.247
   25POPC   C27 3273   6.616   6.288   5.118
   25POPC   H7R 3274   6.687   6.265   5.035
   25POPC   H7S 3275   6.634   6.393   5.148
   25POPC   C28 3276   6.473   6.274   5.061
   25POPC   H8R 3277   6.446   6.167   5.059
   25POPC   H8S 3278   6.476   6.308   4.955
   25POPC   C29 3279   6.373   6.357   5.135
   25POPC   H91 3280   6.403   6.462   5.144
   25POPC  C210 3281   6.253   6.321   5.184
   25POPC  H101 3282   6.194   6.395   5.239
   25POPC  C211 3283   6.188   6.185   5.176
   25POPC  H11R 3284   6.153   6.154   5.277
   25POPC  H11S 3285   6.259   6.106   5.142
   25POPC  C212 3286   6.068   6.185   5.079
   25POPC  H12R 3287   5.992   6.258   5.115
   25POPC  H12S 3288   6.021   6.085   5.080
   25POPC  C213 3289   6.104   6.220   4.933
   25POPC  H13R 3290   6.162   6.315   4.928
   25POPC  H13S 3291   6.010   6.236   4.876
   25POPC  C214 3292   6.184   6.109   4.862
   25POPC  H14R 3293   6.126   6.014   4.869
   25POPC  H14S 3294   6.281   6.094   4.914
   25POPC  C215 3295   6.211   6.139   4.714
   25POPC  H15R 3296   6.288   6.220   4.706
   25POPC  H15S 3297   6.118   6.178   4.666
   25POPC  C216 3298   6.258   6.015   4.637
   25POPC  H16R 3299   6.182   5.934   4.647
   25POPC  H16S 3300   6.352   5.978   4.684
   25POPC  C217 3301   6.283   6.040   4.488
   25POPC  H17R 3302   6.348   6.129   4.477
   25POPC  H17S 3303   6.186   6.066   4.439
   25POPC  C218 3304   6.348   5.922   4.415
   25POPC  H18R 3305   6.451   5.905   4.454
   25POPC  H18S 3306   6.355   5.942   4.306
   25POPC  H18T 3307   6.289   5.830   4.431
   25POPC   C33 3308   6.415   5.881   5.385
   25POPC   H3X 3309   6.424   5.989   5.410
   25POPC   H3Y 3310   6.311   5.868   5.346
   25POPC   C34 3311   6.515   5.848   5.273
   25POPC   H4X 3312   6.549   5.743   5.282
   25POPC   H4Y 3313   6.606   5.910   5.285
   25POPC   C35 3314   6.449   5.871   5.135
   25POPC   H5X 3315   6.416   5.977   5.129
   25POPC   H5Y 3316   6.355   5.811   5.132
   25POPC   C36 3317   6.532   5.837   5.011
   25POPC   H6X 3318   6.468   5.778   4.941
   25POPC   H6Y 3319   6.620   5.774   5.038
   25POPC   C37 3320   6.574   5.962   4.932
   25POPC   H7X 3321   6.643   6.023   4.995
   25POPC   H7Y 3322   6.484   6.022   4.909
   25POPC   C38 3323   6.642   5.930   4.799
   25POPC   H8X 3324   6.574   5.875   4.732
   25POPC   H8Y 3325   6.730   5.866   4.822
   25POPC   C39 3326   6.694   6.055   4.729
   25POPC   H9X 3327   6.776   6.026   4.659
   25POPC   H9Y 3328   6.735   6.125   4.805
   25POPC  C310 3329   6.590   6.130   4.647
   25POPC  H10X 3330   6.500   6.151   4.709
   25POPC  H10Y 3331   6.560   6.068   4.561
   25POPC  C311 3332   6.647   6.262   4.598
   25POPC  H11X 3333   6.754   6.250   4.570
   25POPC  H11Y 3334   6.643   6.336   4.682
   25POPC  C312 3335   6.571   6.317   4.477
   25POPC  H12X 3336   6.580   6.427   4.487
   25POPC  H12Y 3337   6.463   6.295   4.482
   25POPC  C313 3338   6.633   6.278   4.341
   25POPC  H13X 3339   6.741   6.301   4.348
   25POPC  H13Y 3340   6.590   6.345   4.264
   25POPC  C314 3341   6.628   6.132   4.289
   25POPC  H14X 3342   6.522   6.102   4.278
   25POPC  H14Y 3343   6.677   6.064   4.360
   25POPC  C315 3344   6.700   6.124   4.152
   25POPC  H15X 3345   6.807   6.102   4.167
   25POPC  H15Y 3346   6.695   6.226   4.107
   25POPC  C316 3347   6.647   6.027   4.046
   25POPC  H16X 3348   6.536   6.023   4.045
   25POPC  H16Y 3349   6.687   5.925   4.061
   25POPC  H16Z 3350   6.680   6.060   3.945
   26POPC     N 3351   2.448   5.817   6.317
   26POPC   C12 3352   2.448   5.665   6.306
   26POPC  H12A 3353   2.348   5.629   6.320
   26POPC  H12B 3354   2.505   5.624   6.389
   26POPC   C13 3355   2.583   5.875   6.285
   26POPC  H13A 3356   2.656   5.843   6.359
   26POPC  H13B 3357   2.618   5.836   6.188
   26POPC  H13C 3358   2.583   5.983   6.281
   26POPC   C14 3359   2.348   5.871   6.220
   26POPC  H14A 3360   2.247   5.843   6.247
   26POPC  H14B 3361   2.357   5.979   6.215
   26POPC  H14C 3362   2.370   5.831   6.121
   26POPC   C15 3363   2.413   5.858   6.457
   26POPC  H15A 3364   2.411   5.966   6.468
   26POPC  H15B 3365   2.484   5.817   6.528
   26POPC  H15C 3366   2.315   5.820   6.485
   26POPC   C11 3367   2.504   5.602   6.175
   26POPC  H11A 3368   2.449   5.652   6.091
   26POPC  H11B 3369   2.477   5.494   6.172
   26POPC     P 3370   2.713   5.603   6.016
   26POPC   O13 3371   2.813   5.494   6.017
   26POPC   O14 3372   2.762   5.739   5.982
   26POPC   O12 3373   2.646   5.616   6.163
   26POPC   O11 3374   2.589   5.564   5.929
   26POPC    C1 3375   2.597   5.485   5.811
   26POPC    HA 3376   2.548   5.386   5.827
   26POPC    HB 3377   2.703   5.465   5.779
   26POPC    C2 3378   2.527   5.557   5.694
   26POPC    HS 3379   2.528   5.488   5.607
   26POPC   O21 3380   2.599   5.679   5.670
   26POPC   C21 3381   2.593   5.719   5.546
   26POPC   O22 3382   2.543   5.658   5.453
   26POPC   C22 3383   2.664   5.852   5.531
   26POPC   H2R 3384   2.736   5.865   5.614
   26POPC   H2S 3385   2.590   5.934   5.533
   26POPC    C3 3386   2.380   5.592   5.730
   26POPC    HX 3387   2.383   5.635   5.832
   26POPC    HY 3388   2.319   5.499   5.736
   26POPC   O31 3389   2.322   5.692   5.643
   26POPC   C31 3390   2.265   5.644   5.533
   26POPC   O32 3391   2.255   5.526   5.502
   26POPC   C32 3392   2.208   5.758   5.448
   26POPC   H2X 3393   2.108   5.780   5.488
   26POPC   H2Y 3394   2.194   5.717   5.346
   26POPC   C23 3395   2.734   5.844   5.396
   26POPC   H3R 3396   2.658   5.820   5.318
   26POPC   H3S 3397   2.807   5.760   5.396
   26POPC   C24 3398   2.806   5.972   5.354
   26POPC   H4R 3399   2.888   5.995   5.426
   26POPC   H4S 3400   2.735   6.057   5.355
   26POPC   C25 3401   2.864   5.952   5.215
   26POPC   H5R 3402   2.926   5.860   5.211
   26POPC   H5S 3403   2.929   6.038   5.191
   26POPC   C26 3404   2.754   5.941   5.109
   26POPC   H6R 3405   2.688   5.853   5.125
   26POPC   H6S 3406   2.803   5.922   5.011
   26POPC   C27 3407   2.672   6.070   5.100
   26POPC   H7R 3408   2.739   6.156   5.121
   26POPC   H7S 3409   2.593   6.071   5.178
   26POPC   C28 3410   2.612   6.090   4.961
   26POPC   H8R 3411   2.690   6.093   4.883
   26POPC   H8S 3412   2.557   6.186   4.960
   26POPC   C29 3413   2.516   5.978   4.941
   26POPC   H91 3414   2.458   5.967   5.032
   26POPC  C210 3415   2.515   5.878   4.852
   26POPC  H101 3416   2.436   5.802   4.858
   26POPC  C211 3417   2.616   5.857   4.745
   26POPC  H11R 3418   2.672   5.951   4.724
   26POPC  H11S 3419   2.571   5.824   4.650
   26POPC  C212 3420   2.711   5.752   4.804
   26POPC  H12R 3421   2.723   5.757   4.914
   26POPC  H12S 3422   2.810   5.776   4.763
   26POPC  C213 3423   2.683   5.608   4.765
   26POPC  H13R 3424   2.611   5.604   4.680
   26POPC  H13S 3425   2.634   5.556   4.851
   26POPC  C214 3426   2.814   5.538   4.726
   26POPC  H14R 3427   2.805   5.431   4.748
   26POPC  H14S 3428   2.898   5.575   4.790
   26POPC  C215 3429   2.846   5.562   4.577
   26POPC  H15R 3430   2.906   5.653   4.566
   26POPC  H15S 3431   2.750   5.581   4.525
   26POPC  C216 3432   2.918   5.448   4.505
   26POPC  H16R 3433   2.908   5.356   4.565
   26POPC  H16S 3434   3.027   5.471   4.502
   26POPC  C217 3435   2.867   5.425   4.361
   26POPC  H17R 3436   2.932   5.349   4.312
   26POPC  H17S 3437   2.878   5.521   4.306
   26POPC  C218 3438   2.722   5.376   4.346
   26POPC  H18R 3439   2.652   5.432   4.411
   26POPC  H18S 3440   2.717   5.268   4.373
   26POPC  H18T 3441   2.689   5.388   4.241
   26POPC   C33 3442   2.292   5.889   5.439
   26POPC   H3X 3443   2.383   5.882   5.501
   26POPC   H3Y 3444   2.236   5.977   5.475
   26POPC   C34 3445   2.330   5.920   5.294
   26POPC   H4X 3446   2.368   5.824   5.250
   26POPC   H4Y 3447   2.413   5.993   5.289
   26POPC   C35 3448   2.209   5.972   5.214
   26POPC   H5X 3449   2.190   6.079   5.239
   26POPC   H5Y 3450   2.119   5.915   5.246
   26POPC   C36 3451   2.230   5.955   5.064
   26POPC   H6X 3452   2.300   5.869   5.056
   26POPC   H6Y 3453   2.274   6.046   5.019
   26POPC   C37 3454   2.112   5.907   4.981
   26POPC   H7X 3455   2.050   5.991   4.943
   26POPC   H7Y 3456   2.054   5.848   5.051
   26POPC   C38 3457   2.148   5.807   4.871
   26POPC   H8X 3458   2.058   5.747   4.844
   26POPC   H8Y 3459   2.225   5.735   4.908
   26POPC   C39 3460   2.197   5.879   4.747
   26POPC   H9X 3461   2.281   5.947   4.772
   26POPC   H9Y 3462   2.118   5.946   4.711
   26POPC  C310 3463   2.239   5.784   4.635
   26POPC  H10X 3464   2.154   5.722   4.601
   26POPC  H10Y 3465   2.317   5.715   4.675
   26POPC  C311 3466   2.299   5.862   4.518
   26POPC  H11X 3467   2.369   5.939   4.557
   26POPC  H11Y 3468   2.220   5.915   4.461
   26POPC  C312 3469   2.375   5.766   4.427
   26POPC  H12X 3470   2.305   5.727   4.352
   26POPC  H12Y 3471   2.411   5.679   4.486
   26POPC  C313 3472   2.494   5.829   4.356
   26POPC  H13X 3473   2.555   5.887   4.427
   26POPC  H13Y 3474   2.454   5.898   4.278
   26POPC  C314 3475   2.580   5.718   4.293
   26POPC  H14X 3476   2.515   5.654   4.229
   26POPC  H14Y 3477   2.619   5.653   4.374
   26POPC  C315 3478   2.697   5.770   4.211
   26POPC  H15X 3479   2.739   5.686   4.153
   26POPC  H15Y 3480   2.778   5.806   4.279
   26POPC  C316 3481   2.660   5.883   4.115
   26POPC  H16X 3482   2.634   5.975   4.171
   26POPC  H16Y 3483   2.573   5.855   4.052
   26POPC  H16Z 3484   2.747   5.905   4.049
   27POPC     N 3485   3.924   6.830   6.311
   27POPC   C12 3486   4.010   6.846   6.185
   27POPC  H12A 3487   3.947   6.819   6.100
   27POPC  H12B 3488   4.091   6.776   6.189
   27POPC   C13 3489   3.793   6.899   6.287
   27POPC  H13A 3490   3.726   6.887   6.371
   27POPC  H13B 3491   3.810   7.005   6.267
   27POPC  H13C 3492   3.747   6.863   6.195
   27POPC   C14 3493   3.893   6.686   6.334
   27POPC  H14A 3494   3.817   6.677   6.412
   27POPC  H14B 3495   3.852   6.641   6.243
   27POPC  H14C 3496   3.980   6.631   6.366
   27POPC   C15 3497   3.985   6.890   6.433
   27POPC  H15A 3498   3.917   6.880   6.518
   27POPC  H15B 3499   4.004   6.995   6.416
   27POPC  H15C 3500   4.078   6.842   6.459
   27POPC   C11 3501   4.069   6.986   6.149
   27POPC  H11A 3502   4.137   6.974   6.060
   27POPC  H11B 3503   4.133   7.021   6.233
   27POPC     P 3504   3.881   7.080   5.990
   27POPC   O13 3505   3.787   7.194   5.989
   27POPC   O14 3506   3.822   6.944   5.989
   27POPC   O12 3507   3.970   7.084   6.122
   27POPC   O11 3508   3.987   7.088   5.871
   27POPC    C1 3509   3.963   7.015   5.750
   27POPC    HA 3510   3.922   7.084   5.672
   27POPC    HB 3511   3.890   6.932   5.762
   27POPC    C2 3512   4.093   6.950   5.696
   27POPC    HS 3513   4.137   6.888   5.777
   27POPC   O21 3514   4.185   7.049   5.650
   27POPC   C21 3515   4.253   7.111   5.743
   27POPC   O22 3516   4.291   7.066   5.850
   27POPC   C22 3517   4.283   7.251   5.690
   27POPC   H2R 3518   4.356   7.245   5.607
   27POPC   H2S 3519   4.330   7.309   5.772
   27POPC    C3 3520   4.061   6.858   5.577
   27POPC    HX 3521   4.009   6.774   5.626
   27POPC    HY 3522   4.158   6.824   5.532
   27POPC   O31 3523   3.975   6.919   5.478
   27POPC   C31 3524   3.967   6.848   5.365
   27POPC   O32 3525   4.018   6.739   5.349
   27POPC   C32 3526   3.886   6.924   5.261
   27POPC   H2X 3527   3.853   7.020   5.306
   27POPC   H2Y 3528   3.797   6.864   5.234
   27POPC   C23 3529   4.152   7.321   5.645
   27POPC   H3R 3530   4.178   7.428   5.640
   27POPC   H3S 3531   4.074   7.311   5.725
   27POPC   C24 3532   4.092   7.283   5.508
   27POPC   H4R 3533   4.014   7.360   5.484
   27POPC   H4S 3534   4.040   7.185   5.513
   27POPC   C25 3535   4.195   7.280   5.394
   27POPC   H5R 3536   4.263   7.193   5.408
   27POPC   H5S 3537   4.254   7.373   5.403
   27POPC   C26 3538   4.134   7.278   5.253
   27POPC   H6R 3539   4.079   7.374   5.239
   27POPC   H6S 3540   4.060   7.196   5.245
   27POPC   C27 3541   4.238   7.265   5.140
   27POPC   H7R 3542   4.262   7.158   5.122
   27POPC   H7S 3543   4.331   7.315   5.175
   27POPC   C28 3544   4.192   7.334   5.010
   27POPC   H8R 3545   4.149   7.431   5.040
   27POPC   H8S 3546   4.108   7.276   4.966
   27POPC   C29 3547   4.300   7.361   4.908
   27POPC   H91 3548   4.348   7.459   4.917
   27POPC  C210 3549   4.342   7.279   4.811
   27POPC  H101 3550   4.421   7.314   4.742
   27POPC  C211 3551   4.292   7.140   4.783
   27POPC  H11R 3552   4.256   7.131   4.678
   27POPC  H11S 3553   4.206   7.114   4.849
   27POPC  C212 3554   4.403   7.036   4.809
   27POPC  H12R 3555   4.360   6.934   4.796
   27POPC  H12S 3556   4.436   7.043   4.915
   27POPC  C213 3557   4.527   7.048   4.718
   27POPC  H13R 3558   4.595   6.965   4.744
   27POPC  H13S 3559   4.582   7.143   4.739
   27POPC  C214 3560   4.500   7.037   4.567
   27POPC  H14R 3561   4.599   7.032   4.514
   27POPC  H14S 3562   4.447   7.128   4.531
   27POPC  C215 3563   4.418   6.912   4.531
   27POPC  H15R 3564   4.313   6.929   4.563
   27POPC  H15S 3565   4.456   6.826   4.589
   27POPC  C216 3566   4.419   6.879   4.381
   27POPC  H16R 3567   4.519   6.843   4.349
   27POPC  H16S 3568   4.399   6.974   4.325
   27POPC  C217 3569   4.311   6.777   4.342
   27POPC  H17R 3570   4.301   6.778   4.231
   27POPC  H17S 3571   4.213   6.812   4.384
   27POPC  C218 3572   4.336   6.633   4.386
   27POPC  H18R 3573   4.428   6.593   4.338
   27POPC  H18S 3574   4.251   6.568   4.356
   27POPC  H18T 3575   4.348   6.627   4.497
   27POPC   C33 3576   3.971   6.953   5.135
   27POPC   H3X 3577   3.987   6.860   5.077
   27POPC   H3Y 3578   4.072   6.990   5.166
   27POPC   C34 3579   3.908   7.061   5.046
   27POPC   H4X 3580   3.986   7.099   4.976
   27POPC   H4Y 3581   3.877   7.147   5.110
   27POPC   C35 3582   3.789   7.011   4.965
   27POPC   H5X 3583   3.719   6.956   5.032
   27POPC   H5Y 3584   3.824   6.939   4.888
   27POPC   C36 3585   3.710   7.124   4.896
   27POPC   H6X 3586   3.673   7.196   4.973
   27POPC   H6Y 3587   3.622   7.078   4.848
   27POPC   C37 3588   3.793   7.201   4.791
   27POPC   H7X 3589   3.836   7.128   4.719
   27POPC   H7Y 3590   3.878   7.252   4.842
   27POPC   C38 3591   3.712   7.307   4.714
   27POPC   H8X 3592   3.779   7.353   4.637
   27POPC   H8Y 3593   3.683   7.387   4.785
   27POPC   C39 3594   3.585   7.254   4.646
   27POPC   H9X 3595   3.537   7.337   4.590
   27POPC   H9Y 3596   3.513   7.221   4.724
   27POPC  C310 3597   3.608   7.137   4.548
   27POPC  H10X 3598   3.509   7.108   4.505
   27POPC  H10Y 3599   3.646   7.048   4.604
   27POPC  C311 3600   3.704   7.170   4.434
   27POPC  H11X 3601   3.809   7.168   4.472
   27POPC  H11Y 3602   3.684   7.274   4.398
   27POPC  C312 3603   3.691   7.075   4.314
   27POPC  H12X 3604   3.765   7.105   4.236
   27POPC  H12Y 3605   3.590   7.089   4.269
   27POPC  C313 3606   3.710   6.926   4.346
   27POPC  H13X 3607   3.698   6.870   4.250
   27POPC  H13Y 3608   3.631   6.890   4.415
   27POPC  C314 3609   3.848   6.894   4.406
   27POPC  H14X 3610   3.848   6.927   4.513
   27POPC  H14Y 3611   3.925   6.953   4.353
   27POPC  C315 3612   3.888   6.746   4.397
   27POPC  H15X 3613   3.812   6.682   4.445
   27POPC  H15Y 3614   3.985   6.733   4.451
   27POPC  C316 3615   3.915   6.700   4.254
   27POPC  H16X 3616   3.988   6.769   4.207
   27POPC  H16Y 3617   3.821   6.701   4.194
   27POPC  H16Z 3618   3.958   6.598   4.252
   28POPC     N 3619   2.751   3.556   6.053
   28POPC   C12 3620   2.708   3.435   6.136
   28POPC  H12A 3621   2.742   3.448   6.238
   28POPC  H12B 3622   2.761   3.348   6.098
   28POPC   C13 3623   2.733   3.682   6.131
   28POPC  H13A 3624   2.739   3.770   6.069
   28POPC  H13B 3625   2.636   3.679   6.180
   28POPC  H13C 3626   2.810   3.691   6.206
   28POPC   C14 3627   2.896   3.544   6.022
   28POPC  H14A 3628   2.913   3.490   5.930
   28POPC  H14B 3629   2.938   3.645   6.009
   28POPC  H14C 3630   2.952   3.502   6.104
   28POPC   C15 3631   2.677   3.570   5.924
   28POPC  H15A 3632   2.570   3.576   5.939
   28POPC  H15B 3633   2.701   3.488   5.857
   28POPC  H15C 3634   2.710   3.659   5.871
   28POPC   C11 3635   2.558   3.397   6.148
   28POPC  H11A 3636   2.553   3.296   6.194
   28POPC  H11B 3637   2.515   3.391   6.045
   28POPC     P 3638   2.329   3.499   6.206
   28POPC   O13 3639   2.269   3.581   6.315
   28POPC   O14 3640   2.273   3.364   6.180
   28POPC   O12 3641   2.486   3.486   6.233
   28POPC   O11 3642   2.333   3.581   6.069
   28POPC    C1 3643   2.385   3.715   6.072
   28POPC    HA 3644   2.481   3.719   6.015
   28POPC    HB 3645   2.405   3.753   6.175
   28POPC    C2 3646   2.291   3.819   6.005
   28POPC    HS 3647   2.200   3.829   6.069
   28POPC   O21 3648   2.255   3.779   5.874
   28POPC   C21 3649   2.162   3.687   5.865
   28POPC   O22 3650   2.075   3.663   5.948
   28POPC   C22 3651   2.190   3.607   5.738
   28POPC   H2R 3652   2.179   3.678   5.654
   28POPC   H2S 3653   2.115   3.526   5.728
   28POPC    C3 3654   2.359   3.959   5.997
   28POPC    HX 3655   2.371   3.992   6.102
   28POPC    HY 3656   2.286   4.027   5.948
   28POPC   O31 3657   2.491   3.967   5.936
   28POPC   C31 3658   2.501   3.972   5.805
   28POPC   O32 3659   2.417   3.938   5.724
   28POPC   C32 3660   2.634   4.038   5.764
   28POPC   H2X 3661   2.718   3.977   5.800
   28POPC   H2Y 3662   2.637   4.138   5.812
   28POPC   C23 3663   2.334   3.548   5.739
   28POPC   H3R 3664   2.342   3.475   5.823
   28POPC   H3S 3665   2.409   3.628   5.758
   28POPC   C24 3666   2.371   3.478   5.607
   28POPC   H4R 3667   2.284   3.419   5.571
   28POPC   H4S 3668   2.454   3.407   5.625
   28POPC   C25 3669   2.413   3.578   5.499
   28POPC   H5R 3670   2.519   3.560   5.475
   28POPC   H5S 3671   2.405   3.682   5.537
   28POPC   C26 3672   2.333   3.564   5.370
   28POPC   H6R 3673   2.321   3.457   5.342
   28POPC   H6S 3674   2.390   3.611   5.287
   28POPC   C27 3675   2.197   3.635   5.382
   28POPC   H7R 3676   2.206   3.719   5.455
   28POPC   H7S 3677   2.122   3.564   5.425
   28POPC   C28 3678   2.149   3.693   5.250
   28POPC   H8R 3679   2.043   3.727   5.262
   28POPC   H8S 3680   2.151   3.613   5.173
   28POPC   C29 3681   2.236   3.811   5.213
   28POPC   H91 3682   2.268   3.871   5.300
   28POPC  C210 3683   2.277   3.846   5.091
   28POPC  H101 3684   2.340   3.936   5.080
   28POPC  C211 3685   2.244   3.776   4.963
   28POPC  H11R 3686   2.291   3.675   4.966
   28POPC  H11S 3687   2.291   3.832   4.879
   28POPC  C212 3688   2.096   3.755   4.928
   28POPC  H12R 3689   2.046   3.853   4.910
   28POPC  H12S 3690   2.042   3.708   5.013
   28POPC  C213 3691   2.077   3.665   4.805
   28POPC  H13R 3692   1.971   3.629   4.803
   28POPC  H13S 3693   2.143   3.576   4.817
   28POPC  C214 3694   2.106   3.735   4.673
   28POPC  H14R 3695   2.206   3.784   4.678
   28POPC  H14S 3696   2.031   3.815   4.657
   28POPC  C215 3697   2.105   3.641   4.552
   28POPC  H15R 3698   2.005   3.594   4.542
   28POPC  H15S 3699   2.180   3.560   4.569
   28POPC  C216 3700   2.140   3.715   4.423
   28POPC  H16R 3701   2.231   3.776   4.441
   28POPC  H16S 3702   2.058   3.786   4.397
   28POPC  C217 3703   2.168   3.622   4.304
   28POPC  H17R 3704   2.075   3.566   4.280
   28POPC  H17S 3705   2.245   3.548   4.334
   28POPC  C218 3706   2.216   3.698   4.181
   28POPC  H18R 3707   2.316   3.742   4.199
   28POPC  H18S 3708   2.146   3.781   4.158
   28POPC  H18T 3709   2.223   3.631   4.093
   28POPC   C33 3710   2.639   4.057   5.610
   28POPC   H3X 3711   2.556   4.123   5.578
   28POPC   H3Y 3712   2.615   3.959   5.565
   28POPC   C34 3713   2.770   4.109   5.543
   28POPC   H4X 3714   2.782   4.217   5.565
   28POPC   H4Y 3715   2.749   4.102   5.434
   28POPC   C35 3716   2.900   4.033   5.581
   28POPC   H5X 3717   2.871   3.936   5.626
   28POPC   H5Y 3718   2.948   4.090   5.664
   28POPC   C36 3719   3.012   4.000   5.475
   28POPC   H6X 3720   3.055   3.905   5.512
   28POPC   H6Y 3721   3.091   4.078   5.481
   28POPC   C37 3722   2.978   3.974   5.325
   28POPC   H7X 3723   3.020   4.052   5.259
   28POPC   H7Y 3724   2.870   3.989   5.332
   28POPC   C38 3725   2.997   3.828   5.266
   28POPC   H8X 3726   2.918   3.773   5.315
   28POPC   H8Y 3727   3.089   3.781   5.306
   28POPC   C39 3728   2.968   3.782   5.118
   28POPC   H9X 3729   3.061   3.783   5.059
   28POPC   H9Y 3730   2.899   3.849   5.066
   28POPC  C310 3731   2.906   3.637   5.120
   28POPC  H10X 3732   2.816   3.636   5.184
   28POPC  H10Y 3733   2.984   3.580   5.176
   28POPC  C311 3734   2.870   3.548   4.996
   28POPC  H11X 3735   2.879   3.446   5.042
   28POPC  H11Y 3736   2.949   3.548   4.921
   28POPC  C312 3737   2.730   3.534   4.927
   28POPC  H12X 3738   2.668   3.464   4.987
   28POPC  H12Y 3739   2.750   3.483   4.830
   28POPC  C313 3740   2.640   3.655   4.893
   28POPC  H13X 3741   2.698   3.735   4.843
   28POPC  H13Y 3742   2.602   3.696   4.989
   28POPC  C314 3743   2.510   3.624   4.813
   28POPC  H14X 3744   2.456   3.720   4.798
   28POPC  H14Y 3745   2.446   3.559   4.878
   28POPC  C315 3746   2.516   3.554   4.676
   28POPC  H15X 3747   2.411   3.525   4.652
   28POPC  H15Y 3748   2.575   3.460   4.681
   28POPC  C316 3749   2.565   3.640   4.559
   28POPC  H16X 3750   2.505   3.619   4.467
   28POPC  H16Y 3751   2.671   3.618   4.536
   28POPC  H16Z 3752   2.556   3.749   4.582
   29POPC     N 3753   3.476   2.310   6.119
   29POPC   C12 3754   3.580   2.358   6.018
   29POPC  H12A 3755   3.532   2.417   5.941
   29POPC  H12B 3756   3.624   2.270   5.973
   29POPC   C13 3757   3.528   2.191   6.194
   29POPC  H13A 3758   3.457   2.155   6.267
   29POPC  H13B 3759   3.556   2.111   6.127
   29POPC  H13C 3760   3.620   2.221   6.245
   29POPC   C14 3761   3.446   2.417   6.220
   29POPC  H14A 3762   3.542   2.445   6.265
   29POPC  H14B 3763   3.408   2.508   6.176
   29POPC  H14C 3764   3.379   2.382   6.297
   29POPC   C15 3765   3.358   2.270   6.043
   29POPC  H15A 3766   3.322   2.348   5.978
   29POPC  H15B 3767   3.274   2.242   6.109
   29POPC  H15C 3768   3.378   2.184   5.981
   29POPC   C11 3769   3.696   2.441   6.074
   29POPC  H11A 3770   3.664   2.546   6.091
   29POPC  H11B 3771   3.781   2.441   6.002
   29POPC     P 3772   3.854   2.431   6.273
   29POPC   O13 3773   3.849   2.367   6.408
   29POPC   O14 3774   3.843   2.579   6.269
   29POPC   O12 3775   3.731   2.379   6.196
   29POPC   O11 3776   3.966   2.373   6.174
   29POPC    C1 3777   3.950   2.232   6.142
   29POPC    HA 3778   3.845   2.197   6.140
   29POPC    HB 3779   4.001   2.170   6.219
   29POPC    C2 3780   4.005   2.190   6.003
   29POPC    HS 3781   4.116   2.190   6.011
   29POPC   O21 3782   3.955   2.274   5.896
   29POPC   C21 3783   4.044   2.305   5.803
   29POPC   O22 3784   4.164   2.285   5.811
   29POPC   C22 3785   3.969   2.363   5.681
   29POPC   H2R 3786   3.964   2.473   5.697
   29POPC   H2S 3787   3.865   2.324   5.683
   29POPC    C3 3788   3.957   2.044   5.978
   29POPC    HX 3789   3.972   1.987   6.072
   29POPC    HY 3790   4.021   1.999   5.900
   29POPC   O31 3791   3.816   2.044   5.945
   29POPC   C31 3792   3.774   1.937   5.880
   29POPC   O32 3793   3.832   1.832   5.866
   29POPC   C32 3794   3.647   1.972   5.805
   29POPC   H2X 3795   3.560   1.977   5.873
   29POPC   H2Y 3796   3.630   1.889   5.733
   29POPC   C23 3797   4.030   2.336   5.540
   29POPC   H3R 3798   4.044   2.228   5.522
   29POPC   H3S 3799   4.131   2.384   5.534
   29POPC   C24 3800   3.941   2.395   5.429
   29POPC   H4R 3801   3.908   2.496   5.461
   29POPC   H4S 3802   3.851   2.333   5.417
   29POPC   C25 3803   4.004   2.410   5.290
   29POPC   H5R 3804   4.093   2.475   5.298
   29POPC   H5S 3805   3.932   2.465   5.225
   29POPC   C26 3806   4.040   2.279   5.217
   29POPC   H6R 3807   3.960   2.203   5.230
   29POPC   H6S 3808   4.133   2.237   5.261
   29POPC   C27 3809   4.061   2.304   5.065
   29POPC   H7R 3810   4.117   2.399   5.051
   29POPC   H7S 3811   3.961   2.316   5.018
   29POPC   C28 3812   4.142   2.192   4.997
   29POPC   H8R 3813   4.117   2.098   5.050
   29POPC   H8S 3814   4.248   2.208   5.025
   29POPC   C29 3815   4.139   2.175   4.847
   29POPC   H91 3816   4.238   2.152   4.805
   29POPC  C210 3817   4.038   2.187   4.758
   29POPC  H101 3818   4.066   2.179   4.653
   29POPC  C211 3819   3.891   2.218   4.769
   29POPC  H11R 3820   3.848   2.203   4.668
   29POPC  H11S 3821   3.891   2.328   4.788
   29POPC  C212 3822   3.782   2.158   4.864
   29POPC  H12R 3823   3.706   2.238   4.851
   29POPC  H12S 3824   3.809   2.158   4.972
   29POPC  C213 3825   3.682   2.047   4.821
   29POPC  H13R 3826   3.623   2.082   4.734
   29POPC  H13S 3827   3.605   2.046   4.903
   29POPC  C214 3828   3.727   1.902   4.801
   29POPC  H14R 3829   3.667   1.837   4.869
   29POPC  H14S 3830   3.829   1.884   4.832
   29POPC  C215 3831   3.726   1.842   4.660
   29POPC  H15R 3832   3.640   1.773   4.658
   29POPC  H15S 3833   3.815   1.777   4.649
   29POPC  C216 3834   3.722   1.940   4.542
   29POPC  H16R 3835   3.723   2.045   4.574
   29POPC  H16S 3836   3.625   1.922   4.492
   29POPC  C217 3837   3.835   1.930   4.439
   29POPC  H17R 3838   3.804   1.863   4.356
   29POPC  H17S 3839   3.922   1.883   4.486
   29POPC  C218 3840   3.881   2.067   4.385
   29POPC  H18R 3841   3.830   2.092   4.290
   29POPC  H18S 3842   3.990   2.064   4.364
   29POPC  H18T 3843   3.865   2.149   4.458
   29POPC   C33 3844   3.668   2.103   5.726
   29POPC   H3X 3845   3.773   2.110   5.689
   29POPC   H3Y 3846   3.653   2.191   5.792
   29POPC   C34 3847   3.574   2.109   5.606
   29POPC   H4X 3848   3.473   2.127   5.646
   29POPC   H4Y 3849   3.575   2.012   5.550
   29POPC   C35 3850   3.604   2.223   5.510
   29POPC   H5X 3851   3.550   2.205   5.414
   29POPC   H5Y 3852   3.711   2.222   5.487
   29POPC   C36 3853   3.557   2.355   5.571
   29POPC   H6X 3854   3.643   2.424   5.583
   29POPC   H6Y 3855   3.516   2.338   5.674
   29POPC   C37 3856   3.446   2.421   5.489
   29POPC   H7X 3857   3.357   2.436   5.554
   29POPC   H7Y 3858   3.413   2.357   5.404
   29POPC   C38 3859   3.491   2.557   5.436
   29POPC   H8X 3860   3.518   2.621   5.523
   29POPC   H8Y 3861   3.402   2.598   5.385
   29POPC   C39 3862   3.609   2.555   5.340
   29POPC   H9X 3863   3.684   2.482   5.375
   29POPC   H9Y 3864   3.658   2.655   5.337
   29POPC  C310 3865   3.563   2.519   5.199
   29POPC  H10X 3866   3.511   2.606   5.153
   29POPC  H10Y 3867   3.492   2.434   5.203
   29POPC  C311 3868   3.682   2.479   5.114
   29POPC  H11X 3869   3.737   2.397   5.165
   29POPC  H11Y 3870   3.752   2.565   5.101
   29POPC  C312 3871   3.640   2.426   4.978
   29POPC  H12X 3872   3.589   2.328   4.993
   29POPC  H12Y 3873   3.737   2.412   4.925
   29POPC  C313 3874   3.550   2.514   4.891
   29POPC  H13X 3875   3.600   2.612   4.872
   29POPC  H13Y 3876   3.454   2.532   4.944
   29POPC  C314 3877   3.521   2.443   4.757
   29POPC  H14X 3878   3.431   2.489   4.710
   29POPC  H14Y 3879   3.496   2.337   4.777
   29POPC  C315 3880   3.638   2.450   4.658
   29POPC  H15X 3881   3.733   2.437   4.714
   29POPC  H15Y 3882   3.642   2.552   4.616
   29POPC  C316 3883   3.635   2.346   4.546
   29POPC  H16X 3884   3.549   2.365   4.478
   29POPC  H16Y 3885   3.624   2.244   4.588
   29POPC  H16Z 3886   3.729   2.351   4.486
   30POPC     N 3887   6.572   3.086   6.210
   30POPC   C12 3888   6.605   3.119   6.066
   30POPC  H12A 3889   6.539   3.199   6.033
   30POPC  H12B 3890   6.583   3.033   6.003
   30POPC   C13 3891   6.568   3.213   6.290
   30POPC  H13A 3892   6.660   3.269   6.270
   30POPC  H13B 3893   6.487   3.278   6.259
   30POPC  H13C 3894   6.561   3.196   6.396
   30POPC   C14 3895   6.437   3.026   6.224
   30POPC  H14A 3896   6.422   2.942   6.157
   30POPC  H14B 3897   6.422   2.995   6.326
   30POPC  H14C 3898   6.363   3.100   6.198
   30POPC   C15 3899   6.680   3.000   6.268
   30POPC  H15A 3900   6.660   2.977   6.372
   30POPC  H15B 3901   6.775   3.055   6.265
   30POPC  H15C 3902   6.692   2.909   6.212
   30POPC   C11 3903   6.750   3.165   6.041
   30POPC  H11A 3904   6.762   3.191   5.935
   30POPC  H11B 3905   6.822   3.083   6.061
   30POPC     P 3906   6.921   3.318   6.165
   30POPC   O13 3907   6.982   3.197   6.225
   30POPC   O14 3908   6.912   3.438   6.249
   30POPC   O12 3909   6.776   3.282   6.118
   30POPC   O11 3910   6.993   3.354   6.029
   30POPC    C1 3911   6.932   3.452   5.945
   30POPC    HA 3912   6.982   3.551   5.964
   30POPC    HB 3913   6.823   3.467   5.961
   30POPC    C2 3914   6.960   3.413   5.798
   30POPC    HS 3915   6.941   3.503   5.735
   30POPC   O21 3916   6.884   3.300   5.754
   30POPC   C21 3917   6.759   3.321   5.726
   30POPC   O22 3918   6.699   3.427   5.730
   30POPC   C22 3919   6.696   3.189   5.684
   30POPC   H2R 3920   6.598   3.182   5.737
   30POPC   H2S 3921   6.760   3.103   5.713
   30POPC    C3 3922   7.108   3.371   5.787
   30POPC    HX 3923   7.119   3.272   5.838
   30POPC    HY 3924   7.170   3.443   5.843
   30POPC   O31 3925   7.151   3.369   5.649
   30POPC   C31 3926   7.136   3.253   5.586
   30POPC   O32 3927   7.092   3.151   5.634
   30POPC   C32 3928   7.192   3.265   5.445
   30POPC   H2X 3929   7.261   3.180   5.430
   30POPC   H2Y 3930   7.251   3.359   5.437
   30POPC   C23 3931   6.670   3.193   5.533
   30POPC   H3R 3932   6.676   3.297   5.493
   30POPC   H3S 3933   6.565   3.166   5.516
   30POPC   C24 3934   6.767   3.111   5.446
   30POPC   H4R 3935   6.864   3.163   5.445
   30POPC   H4S 3936   6.726   3.113   5.343
   30POPC   C25 3937   6.806   2.965   5.478
   30POPC   H5R 3938   6.718   2.907   5.512
   30POPC   H5S 3939   6.882   2.963   5.560
   30POPC   C26 3940   6.867   2.908   5.347
   30POPC   H6R 3941   6.957   2.969   5.324
   30POPC   H6S 3942   6.794   2.926   5.265
   30POPC   C27 3943   6.907   2.760   5.339
   30POPC   H7R 3944   6.814   2.699   5.350
   30POPC   H7S 3945   6.976   2.733   5.421
   30POPC   C28 3946   6.970   2.727   5.201
   30POPC   H8R 3947   6.898   2.757   5.121
   30POPC   H8S 3948   6.979   2.616   5.197
   30POPC   C29 3949   7.108   2.783   5.173
   30POPC   H91 3950   7.180   2.762   5.253
   30POPC  C210 3951   7.152   2.855   5.068
   30POPC  H101 3952   7.258   2.886   5.068
   30POPC  C211 3953   7.079   2.902   4.944
   30POPC  H11R 3954   6.976   2.861   4.937
   30POPC  H11S 3955   7.133   2.871   4.852
   30POPC  C212 3956   7.072   3.056   4.947
   30POPC  H12R 3957   7.172   3.102   4.964
   30POPC  H12S 3958   7.009   3.082   5.035
   30POPC  C213 3959   7.010   3.123   4.823
   30POPC  H13R 3960   6.936   3.053   4.778
   30POPC  H13S 3961   7.086   3.145   4.745
   30POPC  C214 3962   6.935   3.249   4.866
   30POPC  H14R 3963   6.874   3.215   4.952
   30POPC  H14S 3964   6.863   3.281   4.788
   30POPC  C215 3965   7.021   3.368   4.914
   30POPC  H15R 3966   7.091   3.334   4.993
   30POPC  H15S 3967   6.956   3.447   4.958
   30POPC  C216 3968   7.099   3.443   4.808
   30POPC  H16R 3969   7.175   3.369   4.778
   30POPC  H16S 3970   7.155   3.528   4.853
   30POPC  C217 3971   7.014   3.495   4.691
   30POPC  H17R 3972   6.916   3.445   4.686
   30POPC  H17S 3973   7.067   3.470   4.597
   30POPC  C218 3974   6.994   3.645   4.690
   30POPC  H18R 3975   6.943   3.681   4.782
   30POPC  H18S 3976   6.932   3.672   4.602
   30POPC  H18T 3977   7.093   3.696   4.681
   30POPC   C33 3978   7.085   3.263   5.336
   30POPC   H3X 3979   7.035   3.164   5.330
   30POPC   H3Y 3980   7.137   3.277   5.239
   30POPC   C34 3981   6.980   3.375   5.348
   30POPC   H4X 3982   7.031   3.468   5.377
   30POPC   H4Y 3983   6.903   3.356   5.425
   30POPC   C35 3984   6.920   3.400   5.211
   30POPC   H5X 3985   6.926   3.304   5.154
   30POPC   H5Y 3986   6.986   3.474   5.160
   30POPC   C36 3987   6.779   3.453   5.200
   30POPC   H6X 3988   6.785   3.562   5.175
   30POPC   H6Y 3989   6.720   3.443   5.292
   30POPC   C37 3990   6.711   3.385   5.081
   30POPC   H7X 3991   6.774   3.386   4.992
   30POPC   H7Y 3992   6.634   3.453   5.047
   30POPC   C38 3993   6.655   3.243   5.103
   30POPC   H8X 3994   6.595   3.243   5.197
   30POPC   H8Y 3995   6.736   3.169   5.114
   30POPC   C39 3996   6.562   3.209   4.986
   30POPC   H9X 3997   6.574   3.294   4.916
   30POPC   H9Y 3998   6.457   3.205   5.021
   30POPC  C310 3999   6.591   3.091   4.892
   30POPC  H10X 4000   6.605   2.995   4.947
   30POPC  H10Y 4001   6.684   3.112   4.835
   30POPC  C311 4002   6.471   3.080   4.796
   30POPC  H11X 4003   6.440   3.183   4.765
   30POPC  H11Y 4004   6.385   3.036   4.851
   30POPC  C312 4005   6.499   3.002   4.668
   30POPC  H12X 4006   6.407   2.947   4.637
   30POPC  H12Y 4007   6.578   2.927   4.688
   30POPC  C313 4008   6.540   3.096   4.553
   30POPC  H13X 4009   6.617   3.168   4.590
   30POPC  H13Y 4010   6.451   3.156   4.523
   30POPC  C314 4011   6.595   3.022   4.432
   30POPC  H14X 4012   6.599   3.091   4.345
   30POPC  H14Y 4013   6.528   2.939   4.402
   30POPC  C315 4014   6.736   2.969   4.456
   30POPC  H15X 4015   6.731   2.880   4.522
   30POPC  H15Y 4016   6.797   3.045   4.509
   30POPC  C316 4017   6.805   2.934   4.325
   30POPC  H16X 4018   6.829   3.024   4.264
   30POPC  H16Y 4019   6.738   2.870   4.263
   30POPC  H16Z 4020   6.901   2.881   4.344
   31POPC     N 4021   6.096   2.343   6.229
   31POPC   C12 4022   6.012   2.352   6.103
   31POPC  H12A 4023   5.908   2.339   6.131
   31POPC  H12B 4024   6.040   2.274   6.035
   31POPC   C13 4025   6.232   2.401   6.204
   31POPC  H13A 4026   6.272   2.366   6.109
   31POPC  H13B 4027   6.223   2.508   6.193
   31POPC  H13C 4028   6.300   2.378   6.286
   31POPC   C14 4029   6.032   2.423   6.339
   31POPC  H14A 4030   5.935   2.386   6.366
   31POPC  H14B 4031   6.094   2.430   6.427
   31POPC  H14C 4032   6.016   2.525   6.301
   31POPC   C15 4033   6.115   2.202   6.269
   31POPC  H15A 4034   6.172   2.198   6.362
   31POPC  H15B 4035   6.171   2.148   6.195
   31POPC  H15C 4036   6.021   2.152   6.288
   31POPC   C11 4037   6.019   2.486   6.028
   31POPC  H11A 4038   5.940   2.488   5.948
   31POPC  H11B 4039   6.118   2.494   5.978
   31POPC     P 4040   6.000   2.739   6.073
   31POPC   O13 4041   6.017   2.823   6.194
   31POPC   O14 4042   5.882   2.758   5.985
   31POPC   O12 4043   6.000   2.590   6.121
   31POPC   O11 4044   6.134   2.741   5.987
   31POPC    C1 4045   6.260   2.752   6.053
   31POPC    HA 4046   6.272   2.674   6.132
   31POPC    HB 4047   6.263   2.851   6.103
   31POPC    C2 4048   6.382   2.745   5.955
   31POPC    HS 4049   6.468   2.798   6.004
   31POPC   O21 4050   6.348   2.806   5.831
   31POPC   C21 4051   6.327   2.936   5.840
   31POPC   O22 4052   6.379   3.010   5.922
   31POPC   C22 4053   6.231   2.981   5.729
   31POPC   H2R 4054   6.178   3.070   5.770
   31POPC   H2S 4055   6.156   2.902   5.712
   31POPC    C3 4056   6.433   2.602   5.924
   31POPC    HX 4057   6.469   2.556   6.018
   31POPC    HY 4058   6.522   2.610   5.857
   31POPC   O31 4059   6.328   2.520   5.867
   31POPC   C31 4060   6.308   2.538   5.736
   31POPC   O32 4061   6.389   2.583   5.658
   31POPC   C32 4062   6.165   2.496   5.702
   31POPC   H2X 4063   6.096   2.559   5.763
   31POPC   H2Y 4064   6.152   2.389   5.729
   31POPC   C23 4065   6.304   3.019   5.598
   31POPC   H3R 4066   6.382   3.096   5.619
   31POPC   H3S 4067   6.231   3.065   5.529
   31POPC   C24 4068   6.365   2.897   5.529
   31POPC   H4R 4069   6.284   2.825   5.503
   31POPC   H4S 4070   6.433   2.843   5.600
   31POPC   C25 4071   6.448   2.930   5.405
   31POPC   H5R 4072   6.524   3.005   5.431
   31POPC   H5S 4073   6.385   2.977   5.327
   31POPC   C26 4074   6.528   2.811   5.353
   31POPC   H6R 4075   6.587   2.766   5.436
   31POPC   H6S 4076   6.599   2.846   5.275
   31POPC   C27 4077   6.441   2.701   5.293
   31POPC   H7R 4078   6.385   2.651   5.375
   31POPC   H7S 4079   6.508   2.624   5.247
   31POPC   C28 4080   6.341   2.756   5.190
   31POPC   H8R 4081   6.271   2.828   5.236
   31POPC   H8S 4082   6.280   2.668   5.165
   31POPC   C29 4083   6.401   2.810   5.063
   31POPC   H91 4084   6.407   2.920   5.055
   31POPC  C210 4085   6.446   2.732   4.963
   31POPC  H101 4086   6.485   2.778   4.871
   31POPC  C211 4087   6.443   2.582   4.966
   31POPC  H11R 4088   6.408   2.541   5.063
   31POPC  H11S 4089   6.546   2.542   4.952
   31POPC  C212 4090   6.351   2.524   4.857
   31POPC  H12R 4091   6.404   2.536   4.761
   31POPC  H12S 4092   6.256   2.580   4.849
   31POPC  C213 4093   6.322   2.375   4.878
   31POPC  H13R 4094   6.250   2.364   4.962
   31POPC  H13S 4095   6.415   2.323   4.910
   31POPC  C214 4096   6.264   2.304   4.754
   31POPC  H14R 4097   6.163   2.346   4.733
   31POPC  H14S 4098   6.249   2.198   4.781
   31POPC  C215 4099   6.347   2.309   4.624
   31POPC  H15R 4100   6.315   2.400   4.571
   31POPC  H15S 4101   6.317   2.223   4.560
   31POPC  C216 4102   6.500   2.309   4.637
   31POPC  H16R 4103   6.539   2.206   4.619
   31POPC  H16S 4104   6.533   2.336   4.740
   31POPC  C217 4105   6.571   2.406   4.541
   31POPC  H17R 4106   6.550   2.372   4.437
   31POPC  H17S 4107   6.680   2.394   4.560
   31POPC  C218 4108   6.535   2.555   4.552
   31POPC  H18R 4109   6.571   2.596   4.649
   31POPC  H18S 4110   6.581   2.614   4.471
   31POPC  H18T 4111   6.425   2.572   4.546
   31POPC   C33 4112   6.139   2.519   5.553
   31POPC   H3X 4113   6.213   2.460   5.494
   31POPC   H3Y 4114   6.155   2.627   5.528
   31POPC   C34 4115   5.998   2.479   5.507
   31POPC   H4X 4116   5.928   2.562   5.529
   31POPC   H4Y 4117   5.964   2.390   5.565
   31POPC   C35 4118   5.996   2.446   5.357
   31POPC   H5X 4119   5.892   2.420   5.325
   31POPC   H5Y 4120   6.061   2.357   5.339
   31POPC   C36 4121   6.047   2.563   5.271
   31POPC   H6X 4122   6.144   2.598   5.313
   31POPC   H6Y 4123   5.976   2.648   5.280
   31POPC   C37 4124   6.074   2.527   5.124
   31POPC   H7X 4125   6.146   2.443   5.121
   31POPC   H7Y 4126   6.121   2.614   5.073
   31POPC   C38 4127   5.951   2.496   5.038
   31POPC   H8X 4128   5.907   2.399   5.069
   31POPC   H8Y 4129   5.984   2.486   4.933
   31POPC   C39 4130   5.843   2.606   5.047
   31POPC   H9X 4131   5.797   2.597   5.147
   31POPC   H9Y 4132   5.765   2.582   4.972
   31POPC  C310 4133   5.891   2.752   5.030
   31POPC  H10X 4134   5.967   2.775   5.108
   31POPC  H10Y 4135   5.805   2.820   5.048
   31POPC  C311 4136   5.952   2.787   4.893
   31POPC  H11X 4137   6.023   2.708   4.863
   31POPC  H11Y 4138   6.009   2.883   4.900
   31POPC  C312 4139   5.844   2.806   4.786
   31POPC  H12X 4140   5.791   2.902   4.800
   31POPC  H12Y 4141   5.771   2.724   4.800
   31POPC  C313 4142   5.889   2.787   4.642
   31POPC  H13X 4143   5.990   2.829   4.627
   31POPC  H13Y 4144   5.820   2.842   4.574
   31POPC  C314 4145   5.879   2.639   4.604
   31POPC  H14X 4146   5.772   2.608   4.603
   31POPC  H14Y 4147   5.932   2.576   4.679
   31POPC  C315 4148   5.938   2.613   4.468
   31POPC  H15X 4149   5.902   2.689   4.396
   31POPC  H15Y 4150   5.898   2.515   4.433
   31POPC  C316 4151   6.091   2.612   4.476
   31POPC  H16X 4152   6.137   2.617   4.376
   31POPC  H16Y 4153   6.127   2.520   4.525
   31POPC  H16Z 4154   6.128   2.699   4.535
   32POPC     N 4155   4.704   2.289   6.189
   32POPC   C12 4156   4.748   2.142   6.184
   32POPC  H12A 4157   4.855   2.137   6.193
   32POPC  H12B 4158   4.726   2.101   6.085
   32POPC   C13 4159   4.569   2.306   6.127
   32POPC  H13A 4160   4.567   2.277   6.022
   32POPC  H13B 4161   4.499   2.234   6.171
   32POPC  H13C 4162   4.527   2.404   6.139
   32POPC   C14 4163   4.689   2.331   6.331
   32POPC  H14A 4164   4.661   2.435   6.341
   32POPC  H14B 4165   4.609   2.270   6.375
   32POPC  H14C 4166   4.777   2.312   6.390
   32POPC   C15 4167   4.808   2.369   6.118
   32POPC  H15A 4168   4.781   2.474   6.120
   32POPC  H15B 4169   4.819   2.338   6.015
   32POPC  H15C 4170   4.902   2.355   6.169
   32POPC   C11 4171   4.693   2.038   6.284
   32POPC  H11A 4172   4.724   2.062   6.387
   32POPC  H11B 4173   4.745   1.942   6.260
   32POPC     P 4174   4.489   1.963   6.143
   32POPC   O13 4175   4.419   2.073   6.074
   32POPC   O14 4176   4.413   1.839   6.174
   32POPC   O12 4177   4.552   2.023   6.276
   32POPC   O11 4178   4.619   1.921   6.062
   32POPC    C1 4179   4.625   1.830   5.952
   32POPC    HA 4180   4.535   1.767   5.948
   32POPC    HB 4181   4.711   1.761   5.966
   32POPC    C2 4182   4.643   1.900   5.813
   32POPC    HS 4183   4.751   1.899   5.788
   32POPC   O21 4184   4.594   2.034   5.816
   32POPC   C21 4185   4.678   2.122   5.857
   32POPC   O22 4186   4.790   2.105   5.905
   32POPC   C22 4187   4.634   2.256   5.810
   32POPC   H2R 4188   4.689   2.333   5.867
   32POPC   H2S 4189   4.524   2.270   5.823
   32POPC    C3 4190   4.570   1.833   5.694
   32POPC    HX 4191   4.461   1.837   5.713
   32POPC    HY 4192   4.599   1.726   5.688
   32POPC   O31 4193   4.601   1.904   5.572
   32POPC   C31 4194   4.547   1.852   5.462
   32POPC   O32 4195   4.474   1.755   5.460
   32POPC   C32 4196   4.589   1.928   5.336
   32POPC   H2X 4197   4.495   1.966   5.291
   32POPC   H2Y 4198   4.634   1.855   5.265
   32POPC   C23 4199   4.676   2.261   5.663
   32POPC   H3R 4200   4.588   2.220   5.608
   32POPC   H3S 4201   4.762   2.195   5.637
   32POPC   C24 4202   4.715   2.404   5.629
   32POPC   H4R 4203   4.822   2.418   5.646
   32POPC   H4S 4204   4.663   2.471   5.700
   32POPC   C25 4205   4.675   2.446   5.489
   32POPC   H5R 4206   4.746   2.408   5.412
   32POPC   H5S 4207   4.682   2.557   5.486
   32POPC   C26 4208   4.532   2.402   5.459
   32POPC   H6R 4209   4.470   2.402   5.552
   32POPC   H6S 4210   4.530   2.297   5.425
   32POPC   C27 4211   4.464   2.496   5.361
   32POPC   H7R 4212   4.539   2.532   5.287
   32POPC   H7S 4213   4.427   2.581   5.421
   32POPC   C28 4214   4.346   2.434   5.290
   32POPC   H8R 4215   4.294   2.510   5.227
   32POPC   H8S 4216   4.276   2.396   5.368
   32POPC   C29 4217   4.399   2.321   5.209
   32POPC   H91 4218   4.386   2.221   5.255
   32POPC  C210 4219   4.461   2.330   5.091
   32POPC  H101 4220   4.492   2.235   5.044
   32POPC  C211 4221   4.494   2.449   5.005
   32POPC  H11R 4222   4.601   2.478   5.013
   32POPC  H11S 4223   4.430   2.537   5.025
   32POPC  C212 4224   4.464   2.389   4.868
   32POPC  H12R 4225   4.358   2.353   4.863
   32POPC  H12S 4226   4.532   2.301   4.853
   32POPC  C213 4227   4.486   2.472   4.742
   32POPC  H13R 4228   4.585   2.523   4.745
   32POPC  H13S 4229   4.407   2.549   4.730
   32POPC  C214 4230   4.485   2.366   4.631
   32POPC  H14R 4231   4.423   2.279   4.665
   32POPC  H14S 4232   4.588   2.327   4.622
   32POPC  C215 4233   4.426   2.404   4.496
   32POPC  H15R 4234   4.444   2.511   4.475
   32POPC  H15S 4235   4.316   2.389   4.499
   32POPC  C216 4236   4.488   2.322   4.382
   32POPC  H16R 4237   4.434   2.342   4.287
   32POPC  H16S 4238   4.480   2.214   4.406
   32POPC  C217 4239   4.636   2.352   4.361
   32POPC  H17R 4240   4.695   2.324   4.451
   32POPC  H17S 4241   4.644   2.461   4.345
   32POPC  C218 4242   4.696   2.281   4.241
   32POPC  H18R 4243   4.681   2.172   4.254
   32POPC  H18S 4244   4.806   2.300   4.233
   32POPC  H18T 4245   4.648   2.314   4.147
   32POPC   C33 4246   4.688   2.046   5.361
   32POPC   H3X 4247   4.791   2.010   5.379
   32POPC   H3Y 4248   4.654   2.098   5.453
   32POPC   C34 4249   4.683   2.153   5.251
   32POPC   H4X 4250   4.677   2.253   5.297
   32POPC   H4Y 4251   4.591   2.136   5.194
   32POPC   C35 4252   4.803   2.162   5.158
   32POPC   H5X 4253   4.897   2.166   5.217
   32POPC   H5Y 4254   4.797   2.257   5.099
   32POPC   C36 4255   4.805   2.048   5.058
   32POPC   H6X 4256   4.809   1.950   5.112
   32POPC   H6Y 4257   4.897   2.058   4.996
   32POPC   C37 4258   4.684   2.047   4.966
   32POPC   H7X 4259   4.672   2.148   4.920
   32POPC   H7Y 4260   4.591   2.021   5.020
   32POPC   C38 4261   4.710   1.946   4.857
   32POPC   H8X 4262   4.735   1.847   4.903
   32POPC   H8Y 4263   4.798   1.981   4.798
   32POPC   C39 4264   4.595   1.926   4.763
   32POPC   H9X 4265   4.552   2.024   4.731
   32POPC   H9Y 4266   4.514   1.867   4.812
   32POPC  C310 4267   4.652   1.853   4.643
   32POPC  H10X 4268   4.698   1.756   4.675
   32POPC  H10Y 4269   4.731   1.915   4.595
   32POPC  C311 4270   4.541   1.824   4.547
   32POPC  H11X 4271   4.483   1.918   4.527
   32POPC  H11Y 4272   4.475   1.751   4.598
   32POPC  C312 4273   4.591   1.767   4.416
   32POPC  H12X 4274   4.501   1.727   4.363
   32POPC  H12Y 4275   4.661   1.683   4.433
   32POPC  C313 4276   4.655   1.874   4.328
   32POPC  H13X 4277   4.764   1.884   4.350
   32POPC  H13Y 4278   4.608   1.973   4.348
   32POPC  C314 4279   4.632   1.837   4.182
   32POPC  H14X 4280   4.527   1.800   4.173
   32POPC  H14Y 4281   4.692   1.749   4.159
   32POPC  C315 4282   4.642   1.954   4.083
   32POPC  H15X 4283   4.567   2.027   4.122
   32POPC  H15Y 4284   4.608   1.916   3.984
   32POPC  C316 4285   4.772   2.033   4.061
   32POPC  H16X 4286   4.832   2.036   4.154
   32POPC  H16Y 4287   4.748   2.137   4.031
   32POPC  H16Z 4288   4.832   1.991   3.979
   33POPC     N 4289   5.362   7.143   6.200
   33POPC   C12 4290   5.403   7.226   6.320
   33POPC  H12A 4291   5.464   7.165   6.386
   33POPC  H12B 4292   5.315   7.252   6.377
   33POPC   C13 4293   5.316   7.008   6.244
   33POPC  H13A 4294   5.392   6.959   6.304
   33POPC  H13B 4295   5.228   7.014   6.307
   33POPC  H13C 4296   5.292   6.942   6.162
   33POPC   C14 4297   5.255   7.217   6.125
   33POPC  H14A 4298   5.232   7.171   6.031
   33POPC  H14B 4299   5.166   7.231   6.185
   33POPC  H14C 4300   5.292   7.318   6.104
   33POPC   C15 4301   5.480   7.135   6.109
   33POPC  H15A 4302   5.461   7.073   6.024
   33POPC  H15B 4303   5.569   7.104   6.161
   33POPC  H15C 4304   5.502   7.236   6.070
   33POPC   C11 4305   5.483   7.356   6.292
   33POPC  H11A 4306   5.590   7.329   6.276
   33POPC  H11B 4307   5.479   7.419   6.384
   33POPC     P 4308   5.521   7.521   6.096
   33POPC   O13 4309   5.602   7.605   6.188
   33POPC   O14 4310   5.444   7.586   5.988
   33POPC   O12 4311   5.427   7.429   6.183
   33POPC   O11 4312   5.612   7.405   6.037
   33POPC    C1 4313   5.681   7.428   5.914
   33POPC    HA 4314   5.772   7.364   5.913
   33POPC    HB 4315   5.716   7.533   5.904
   33POPC    C2 4316   5.596   7.391   5.790
   33POPC    HS 4317   5.503   7.452   5.791
   33POPC   O21 4318   5.565   7.251   5.795
   33POPC   C21 4319   5.479   7.207   5.705
   33POPC   O22 4320   5.414   7.275   5.627
   33POPC   C22 4321   5.479   7.055   5.713
   33POPC   H2R 4322   5.377   7.018   5.731
   33POPC   H2S 4323   5.543   7.025   5.800
   33POPC    C3 4324   5.677   7.425   5.663
   33POPC    HX 4325   5.694   7.534   5.661
   33POPC    HY 4326   5.616   7.398   5.573
   33POPC   O31 4327   5.803   7.353   5.667
   33POPC   C31 4328   5.861   7.353   5.548
   33POPC   O32 4329   5.828   7.423   5.455
   33POPC   C32 4330   5.965   7.242   5.540
   33POPC   H2X 4331   5.951   7.170   5.623
   33POPC   H2Y 4332   6.065   7.288   5.549
   33POPC   C23 4333   5.540   6.990   5.588
   33POPC   H3R 4334   5.596   6.900   5.620
   33POPC   H3S 4335   5.614   7.057   5.541
   33POPC   C24 4336   5.437   6.944   5.486
   33POPC   H4R 4337   5.414   7.028   5.418
   33POPC   H4S 4338   5.343   6.914   5.537
   33POPC   C25 4339   5.490   6.822   5.410
   33POPC   H5R 4340   5.483   6.732   5.475
   33POPC   H5S 4341   5.598   6.838   5.389
   33POPC   C26 4342   5.422   6.797   5.275
   33POPC   H6R 4343   5.311   6.806   5.284
   33POPC   H6S 4344   5.449   6.693   5.249
   33POPC   C27 4345   5.480   6.892   5.170
   33POPC   H7R 4346   5.589   6.873   5.174
   33POPC   H7S 4347   5.462   6.997   5.204
   33POPC   C28 4348   5.433   6.881   5.024
   33POPC   H8R 4349   5.397   6.982   4.994
   33POPC   H8S 4350   5.345   6.815   5.015
   33POPC   C29 4351   5.548   6.838   4.935
   33POPC   H91 4352   5.628   6.781   4.985
   33POPC  C210 4353   5.559   6.863   4.804
   33POPC  H101 4354   5.647   6.826   4.749
   33POPC  C211 4355   5.459   6.939   4.722
   33POPC  H11R 4356   5.371   6.971   4.782
   33POPC  H11S 4357   5.418   6.871   4.644
   33POPC  C212 4358   5.519   7.063   4.653
   33POPC  H12R 4359   5.621   7.085   4.690
   33POPC  H12S 4360   5.455   7.151   4.677
   33POPC  C213 4361   5.522   7.047   4.501
   33POPC  H13R 4362   5.563   6.947   4.477
   33POPC  H13S 4363   5.589   7.123   4.454
   33POPC  C214 4364   5.381   7.062   4.441
   33POPC  H14R 4365   5.352   7.170   4.438
   33POPC  H14S 4366   5.308   7.013   4.510
   33POPC  C215 4367   5.365   6.999   4.303
   33POPC  H15R 4368   5.456   6.938   4.283
   33POPC  H15S 4369   5.362   7.077   4.225
   33POPC  C216 4370   5.242   6.907   4.294
   33POPC  H16R 4371   5.233   6.845   4.386
   33POPC  H16S 4372   5.260   6.836   4.210
   33POPC  C217 4373   5.110   6.979   4.270
   33POPC  H17R 4374   5.127   7.065   4.201
   33POPC  H17S 4375   5.074   7.020   4.367
   33POPC  C218 4376   5.004   6.886   4.209
   33POPC  H18R 4377   5.019   6.877   4.100
   33POPC  H18S 4378   4.901   6.926   4.226
   33POPC  H18T 4379   5.011   6.785   4.254
   33POPC   C33 4380   5.951   7.170   5.405
   33POPC   H3X 4381   6.032   7.095   5.389
   33POPC   H3Y 4382   5.955   7.246   5.324
   33POPC   C34 4383   5.817   7.098   5.396
   33POPC   H4X 4384   5.736   7.173   5.410
   33POPC   H4Y 4385   5.812   7.025   5.479
   33POPC   C35 4386   5.785   7.023   5.266
   33POPC   H5X 4387   5.675   7.012   5.274
   33POPC   H5Y 4388   5.832   6.922   5.268
   33POPC   C36 4389   5.814   7.089   5.130
   33POPC   H6X 4390   5.781   7.018   5.050
   33POPC   H6Y 4391   5.923   7.097   5.117
   33POPC   C37 4392   5.741   7.223   5.104
   33POPC   H7X 4393   5.809   7.297   5.059
   33POPC   H7Y 4394   5.706   7.265   5.201
   33POPC   C38 4395   5.621   7.203   5.009
   33POPC   H8X 4396   5.572   7.110   5.044
   33POPC   H8Y 4397   5.657   7.183   4.906
   33POPC   C39 4398   5.512   7.311   5.009
   33POPC   H9X 4399   5.484   7.335   5.114
   33POPC   H9Y 4400   5.422   7.266   4.961
   33POPC  C310 4401   5.543   7.440   4.932
   33POPC  H10X 4402   5.620   7.499   4.987
   33POPC  H10Y 4403   5.450   7.501   4.930
   33POPC  C311 4404   5.588   7.418   4.787
   33POPC  H11X 4405   5.522   7.342   4.740
   33POPC  H11Y 4406   5.692   7.377   4.787
   33POPC  C312 4407   5.583   7.546   4.704
   33POPC  H12X 4408   5.632   7.628   4.762
   33POPC  H12Y 4409   5.476   7.575   4.689
   33POPC  C313 4410   5.652   7.537   4.567
   33POPC  H13X 4411   5.759   7.511   4.581
   33POPC  H13Y 4412   5.648   7.638   4.521
   33POPC  C314 4413   5.587   7.437   4.470
   33POPC  H14X 4414   5.476   7.446   4.476
   33POPC  H14Y 4415   5.613   7.333   4.501
   33POPC  C315 4416   5.631   7.462   4.325
   33POPC  H15X 4417   5.740   7.442   4.317
   33POPC  H15Y 4418   5.616   7.569   4.300
   33POPC  C316 4419   5.556   7.378   4.221
   33POPC  H16X 4420   5.447   7.402   4.223
   33POPC  H16Y 4421   5.568   7.269   4.242
   33POPC  H16Z 4422   5.594   7.399   4.119
   34POPC     N 4423   2.176   4.186   6.326
   34POPC   C12 4424   2.096   4.060   6.297
   34POPC  H12A 4425   2.017   4.052   6.370
   34POPC  H12B 4426   2.159   3.974   6.315
   34POPC   C13 4427   2.087   4.304   6.346
   34POPC  H13A 4428   2.025   4.316   6.256
   34POPC  H13B 4429   2.020   4.293   6.430
   34POPC  H13C 4430   2.142   4.396   6.356
   34POPC   C14 4431   2.258   4.162   6.448
   34POPC  H14A 4432   2.306   4.253   6.481
   34POPC  H14B 4433   2.198   4.120   6.528
   34POPC  H14C 4434   2.335   4.089   6.426
   34POPC   C15 4435   2.265   4.217   6.209
   34POPC  H15A 4436   2.347   4.147   6.202
   34POPC  H15B 4437   2.305   4.317   6.215
   34POPC  H15C 4438   2.203   4.211   6.119
   34POPC   C11 4439   2.032   4.047   6.158
   34POPC  H11A 4440   1.958   3.963   6.163
   34POPC  H11B 4441   2.108   4.019   6.082
   34POPC     P 4442   1.843   4.169   6.032
   34POPC   O13 4443   1.735   4.124   6.122
   34POPC   O14 4444   1.869   4.096   5.906
   34POPC   O12 4445   1.974   4.170   6.118
   34POPC   O11 4446   1.825   4.325   6.006
   34POPC    C1 4447   1.757   4.403   6.105
   34POPC    HA 4448   1.819   4.413   6.197
   34POPC    HB 4449   1.660   4.355   6.134
   34POPC    C2 4450   1.721   4.546   6.054
   34POPC    HS 4451   1.629   4.578   6.108
   34POPC   O21 4452   1.699   4.549   5.912
   34POPC   C21 4453   1.616   4.455   5.867
   34POPC   O22 4454   1.523   4.409   5.930
   34POPC   C22 4455   1.642   4.435   5.717
   34POPC   H2R 4456   1.644   4.536   5.671
   34POPC   H2S 4457   1.557   4.378   5.676
   34POPC    C3 4458   1.832   4.650   6.090
   34POPC    HX 4459   1.863   4.640   6.197
   34POPC    HY 4460   1.789   4.751   6.078
   34POPC   O31 4461   1.944   4.638   6.000
   34POPC   C31 4462   2.034   4.546   6.029
   34POPC   O32 4463   2.056   4.498   6.139
   34POPC   C32 4464   2.115   4.517   5.902
   34POPC   H2X 4465   2.214   4.564   5.917
   34POPC   H2Y 4466   2.062   4.564   5.817
   34POPC   C23 4467   1.774   4.364   5.677
   34POPC   H3R 4468   1.785   4.268   5.733
   34POPC   H3S 4469   1.861   4.427   5.706
   34POPC   C24 4470   1.782   4.331   5.527
   34POPC   H4R 4471   1.718   4.241   5.507
   34POPC   H4S 4472   1.886   4.304   5.501
   34POPC   C25 4473   1.734   4.443   5.434
   34POPC   H5R 4474   1.793   4.535   5.452
   34POPC   H5S 4475   1.628   4.468   5.458
   34POPC   C26 4476   1.735   4.402   5.286
   34POPC   H6R 4477   1.674   4.474   5.227
   34POPC   H6S 4478   1.685   4.303   5.279
   34POPC   C27 4479   1.875   4.389   5.224
   34POPC   H7R 4480   1.864   4.368   5.116
   34POPC   H7S 4481   1.918   4.299   5.271
   34POPC   C28 4482   1.971   4.508   5.245
   34POPC   H8R 4483   1.966   4.545   5.349
   34POPC   H8S 4484   1.944   4.593   5.179
   34POPC   C29 4485   2.111   4.461   5.221
   34POPC   H91 4486   2.151   4.403   5.305
   34POPC  C210 4487   2.190   4.481   5.115
   34POPC  H101 4488   2.288   4.431   5.112
   34POPC  C211 4489   2.154   4.558   4.991
   34POPC  H11R 4490   2.248   4.600   4.951
   34POPC  H11S 4491   2.088   4.644   5.013
   34POPC  C212 4492   2.092   4.471   4.879
   34POPC  H12R 4493   2.108   4.365   4.903
   34POPC  H12S 4494   2.149   4.485   4.786
   34POPC  C213 4495   1.942   4.494   4.853
   34POPC  H13R 4496   1.909   4.586   4.905
   34POPC  H13S 4497   1.887   4.409   4.899
   34POPC  C214 4498   1.903   4.506   4.705
   34POPC  H14R 4499   1.983   4.460   4.644
   34POPC  H14S 4500   1.904   4.612   4.675
   34POPC  C215 4501   1.769   4.441   4.669
   34POPC  H15R 4502   1.737   4.376   4.753
   34POPC  H15S 4503   1.786   4.373   4.582
   34POPC  C216 4504   1.653   4.536   4.637
   34POPC  H16R 4505   1.617   4.582   4.732
   34POPC  H16S 4506   1.571   4.473   4.596
   34POPC  C217 4507   1.681   4.650   4.537
   34POPC  H17R 4508   1.760   4.717   4.577
   34POPC  H17S 4509   1.590   4.714   4.530
   34POPC  C218 4510   1.716   4.607   4.395
   34POPC  H18R 4511   1.625   4.583   4.337
   34POPC  H18S 4512   1.783   4.518   4.395
   34POPC  H18T 4513   1.767   4.689   4.341
   34POPC   C33 4514   2.135   4.368   5.867
   34POPC   H3X 4515   2.037   4.321   5.844
   34POPC   H3Y 4516   2.179   4.314   5.953
   34POPC   C34 4517   2.228   4.354   5.744
   34POPC   H4X 4518   2.325   4.402   5.768
   34POPC   H4Y 4519   2.183   4.407   5.657
   34POPC   C35 4520   2.252   4.208   5.706
   34POPC   H5X 4521   2.259   4.150   5.800
   34POPC   H5Y 4522   2.349   4.197   5.654
   34POPC   C36 4523   2.142   4.145   5.619
   34POPC   H6X 4524   2.046   4.200   5.636
   34POPC   H6Y 4525   2.126   4.040   5.652
   34POPC   C37 4526   2.178   4.144   5.470
   34POPC   H7X 4527   2.275   4.092   5.456
   34POPC   H7Y 4528   2.191   4.249   5.438
   34POPC   C38 4529   2.072   4.075   5.381
   34POPC   H8X 4530   1.972   4.113   5.410
   34POPC   H8Y 4531   2.072   3.966   5.399
   34POPC   C39 4532   2.099   4.105   5.233
   34POPC   H9X 4533   2.202   4.075   5.206
   34POPC   H9Y 4534   2.100   4.215   5.223
   34POPC  C310 4535   1.998   4.054   5.128
   34POPC  H10X 4536   1.895   4.086   5.156
   34POPC  H10Y 4537   2.000   3.944   5.121
   34POPC  C311 4538   2.036   4.119   4.993
   34POPC  H11X 4539   2.140   4.088   4.967
   34POPC  H11Y 4540   2.037   4.227   5.014
   34POPC  C312 4541   1.945   4.095   4.871
   34POPC  H12X 4542   1.878   4.183   4.857
   34POPC  H12Y 4543   1.881   4.007   4.891
   34POPC  C313 4544   2.023   4.070   4.739
   34POPC  H13X 4545   1.954   4.023   4.665
   34POPC  H13Y 4546   2.107   4.000   4.757
   34POPC  C314 4547   2.078   4.198   4.675
   34POPC  H14X 4548   2.145   4.248   4.747
   34POPC  H14Y 4549   1.990   4.263   4.654
   34POPC  C315 4550   2.157   4.184   4.544
   34POPC  H15X 4551   2.093   4.139   4.466
   34POPC  H15Y 4552   2.243   4.116   4.562
   34POPC  C316 4553   2.209   4.321   4.496
   34POPC  H16X 4554   2.126   4.394   4.489
   34POPC  H16Y 4555   2.256   4.314   4.396
   34POPC  H16Z 4556   2.285   4.361   4.567
   35POPC     N 4557   2.655   2.907   6.110
   35POPC   C12 4558   2.607   2.763   6.096
   35POPC  H12A 4559   2.541   2.753   6.012
   35POPC  H12B 4560   2.553   2.734   6.186
   35POPC   C13 4561   2.757   2.915   6.219
   35POPC  H13A 4562   2.848   2.861   6.189
   35POPC  H13B 4563   2.786   3.016   6.245
   35POPC  H13C 4564   2.724   2.862   6.308
   35POPC   C14 4565   2.724   2.954   5.985
   35POPC  H14A 4566   2.808   2.887   5.967
   35POPC  H14B 4567   2.660   2.951   5.898
   35POPC  H14C 4568   2.766   3.053   5.998
   35POPC   C15 4569   2.540   2.996   6.144
   35POPC  H15A 4570   2.472   3.006   6.061
   35POPC  H15B 4571   2.574   3.094   6.177
   35POPC  H15C 4572   2.483   2.954   6.228
   35POPC   C11 4573   2.715   2.655   6.086
   35POPC  H11A 4574   2.796   2.689   6.016
   35POPC  H11B 4575   2.670   2.562   6.044
   35POPC     P 4576   2.884   2.528   6.231
   35POPC   O13 4577   2.827   2.395   6.199
   35POPC   O14 4578   2.952   2.545   6.361
   35POPC   O12 4579   2.764   2.630   6.218
   35POPC   O11 4580   2.977   2.581   6.114
   35POPC    C1 4581   3.116   2.608   6.137
   35POPC    HA 4582   3.157   2.541   6.217
   35POPC    HB 4583   3.129   2.713   6.171
   35POPC    C2 4584   3.205   2.584   6.012
   35POPC    HS 4585   3.301   2.544   6.050
   35POPC   O21 4586   3.231   2.707   5.945
   35POPC   C21 4587   3.310   2.693   5.842
   35POPC   O22 4588   3.399   2.609   5.829
   35POPC   C22 4589   3.268   2.794   5.739
   35POPC   H2R 4590   3.346   2.868   5.760
   35POPC   H2S 4591   3.172   2.842   5.768
   35POPC    C3 4592   3.144   2.481   5.910
   35POPC    HX 4593   3.111   2.392   5.969
   35POPC    HY 4594   3.224   2.448   5.840
   35POPC   O31 4595   3.032   2.536   5.837
   35POPC   C31 4596   2.985   2.448   5.749
   35POPC   O32 4597   3.048   2.352   5.707
   35POPC   C32 4598   2.843   2.485   5.710
   35POPC   H2X 4599   2.835   2.595   5.701
   35POPC   H2Y 4600   2.777   2.450   5.792
   35POPC   C23 4601   3.264   2.747   5.591
   35POPC   H3R 4602   3.158   2.746   5.558
   35POPC   H3S 4603   3.302   2.643   5.583
   35POPC   C24 4604   3.346   2.842   5.503
   35POPC   H4R 4605   3.453   2.828   5.533
   35POPC   H4S 4606   3.308   2.943   5.530
   35POPC   C25 4607   3.342   2.845   5.351
   35POPC   H5R 4608   3.411   2.773   5.302
   35POPC   H5S 4609   3.380   2.944   5.317
   35POPC   C26 4610   3.202   2.828   5.300
   35POPC   H6R 4611   3.137   2.906   5.348
   35POPC   H6S 4612   3.163   2.728   5.329
   35POPC   C27 4613   3.196   2.843   5.149
   35POPC   H7R 4614   3.269   2.774   5.102
   35POPC   H7S 4615   3.223   2.945   5.118
   35POPC   C28 4616   3.055   2.807   5.103
   35POPC   H8R 4617   3.041   2.701   5.136
   35POPC   H8S 4618   3.057   2.802   4.993
   35POPC   C29 4619   2.943   2.889   5.162
   35POPC   H91 4620   2.902   2.840   5.252
   35POPC  C210 4621   2.889   3.008   5.129
   35POPC  H101 4622   2.810   3.046   5.196
   35POPC  C211 4623   2.921   3.107   5.019
   35POPC  H11R 4624   3.027   3.137   5.025
   35POPC  H11S 4625   2.863   3.200   5.039
   35POPC  C212 4626   2.895   3.070   4.872
   35POPC  H12R 4627   2.909   3.162   4.811
   35POPC  H12S 4628   2.790   3.036   4.859
   35POPC  C213 4629   2.993   2.963   4.822
   35POPC  H13R 4630   2.948   2.865   4.850
   35POPC  H13S 4631   3.091   2.976   4.872
   35POPC  C214 4632   3.013   2.959   4.672
   35POPC  H14R 4633   3.086   2.879   4.646
   35POPC  H14S 4634   3.052   3.056   4.635
   35POPC  C215 4635   2.879   2.929   4.608
   35POPC  H15R 4636   2.809   3.012   4.631
   35POPC  H15S 4637   2.837   2.837   4.655
   35POPC  C216 4638   2.882   2.910   4.458
   35POPC  H16R 4639   2.941   2.821   4.431
   35POPC  H16S 4640   2.927   2.997   4.407
   35POPC  C217 4641   2.736   2.894   4.419
   35POPC  H17R 4642   2.686   2.992   4.434
   35POPC  H17S 4643   2.688   2.821   4.489
   35POPC  C218 4644   2.712   2.847   4.278
   35POPC  H18R 4645   2.723   2.737   4.268
   35POPC  H18S 4646   2.776   2.899   4.204
   35POPC  H18T 4647   2.606   2.871   4.260
   35POPC   C33 4648   2.804   2.416   5.577
   35POPC   H3X 4649   2.698   2.440   5.554
   35POPC   H3Y 4650   2.811   2.305   5.589
   35POPC   C34 4651   2.892   2.459   5.459
   35POPC   H4X 4652   2.997   2.427   5.475
   35POPC   H4Y 4653   2.891   2.570   5.449
   35POPC   C35 4654   2.843   2.395   5.329
   35POPC   H5X 4655   2.736   2.423   5.312
   35POPC   H5Y 4656   2.848   2.285   5.339
   35POPC   C36 4657   2.924   2.438   5.206
   35POPC   H6X 4658   3.032   2.419   5.223
   35POPC   H6Y 4659   2.910   2.547   5.190
   35POPC   C37 4660   2.877   2.362   5.081
   35POPC   H7X 4661   2.770   2.387   5.062
   35POPC   H7Y 4662   2.883   2.253   5.103
   35POPC   C38 4663   2.957   2.390   4.954
   35POPC   H8X 4664   2.925   2.317   4.876
   35POPC   H8Y 4665   3.066   2.372   4.972
   35POPC   C39 4666   2.936   2.531   4.900
   35POPC   H9X 4667   2.992   2.600   4.966
   35POPC   H9Y 4668   2.828   2.560   4.905
   35POPC  C310 4669   2.987   2.552   4.758
   35POPC  H10X 4670   3.087   2.506   4.748
   35POPC  H10Y 4671   2.998   2.661   4.740
   35POPC  C311 4672   2.892   2.496   4.650
   35POPC  H11X 4673   2.791   2.540   4.664
   35POPC  H11Y 4674   2.884   2.386   4.660
   35POPC  C312 4675   2.946   2.532   4.512
   35POPC  H12X 4676   3.040   2.474   4.497
   35POPC  H12Y 4677   2.974   2.639   4.511
   35POPC  C313 4678   2.851   2.507   4.396
   35POPC  H13X 4679   2.771   2.584   4.392
   35POPC  H13Y 4680   2.800   2.409   4.412
   35POPC  C314 4681   2.930   2.499   4.265
   35POPC  H14X 4682   2.874   2.436   4.193
   35POPC  H14Y 4683   3.025   2.447   4.290
   35POPC  C315 4684   2.969   2.631   4.198
   35POPC  H15X 4685   3.008   2.701   4.275
   35POPC  H15Y 4686   2.879   2.677   4.151
   35POPC  C316 4687   3.075   2.617   4.089
   35POPC  H16X 4688   3.170   2.581   4.134
   35POPC  H16Y 4689   3.095   2.713   4.039
   35POPC  H16Z 4690   3.044   2.545   4.010
   36POPC     N 4691   7.632   3.738   6.155
   36POPC   C12 4692   7.559   3.738   6.288
   36POPC  H12A 4693   7.581   3.831   6.341
   36POPC  H12B 4694   7.599   3.661   6.352
   36POPC   C13 4695   7.576   3.633   6.067
   36POPC  H13A 4696   7.574   3.539   6.120
   36POPC  H13B 4697   7.473   3.657   6.039
   36POPC  H13C 4698   7.634   3.621   5.976
   36POPC   C14 4699   7.605   3.865   6.082
   36POPC  H14A 4700   7.639   3.861   5.979
   36POPC  H14B 4701   7.495   3.878   6.079
   36POPC  H14C 4702   7.644   3.951   6.133
   36POPC   C15 4703   7.778   3.715   6.173
   36POPC  H15A 4704   7.797   3.613   6.205
   36POPC  H15B 4705   7.817   3.783   6.248
   36POPC  H15C 4706   7.829   3.728   6.078
   36POPC   C11 4707   7.406   3.725   6.280
   36POPC  H11A 4708   7.363   3.708   6.380
   36POPC  H11B 4709   7.376   3.636   6.220
   36POPC     P 4710   7.206   3.843   6.169
   36POPC   O13 4711   7.116   3.831   6.286
   36POPC   O14 4712   7.201   3.733   6.070
   36POPC   O12 4713   7.354   3.846   6.226
   36POPC   O11 4714   7.198   3.986   6.100
   36POPC    C1 4715   7.303   4.064   6.039
   36POPC    HA 4716   7.403   4.040   6.079
   36POPC    HB 4717   7.284   4.172   6.060
   36POPC    C2 4718   7.301   4.052   5.883
   36POPC    HS 4719   7.204   4.096   5.850
   36POPC   O21 4720   7.320   3.915   5.845
   36POPC   C21 4721   7.203   3.858   5.820
   36POPC   O22 4722   7.093   3.906   5.839
   36POPC   C22 4723   7.223   3.730   5.742
   36POPC   H2R 4724   7.162   3.652   5.791
   36POPC   H2S 4725   7.329   3.700   5.739
   36POPC    C3 4726   7.403   4.137   5.802
   36POPC    HX 4727   7.504   4.090   5.809
   36POPC    HY 4728   7.405   4.240   5.843
   36POPC   O31 4729   7.358   4.142   5.664
   36POPC   C31 4730   7.438   4.208   5.581
   36POPC   O32 4731   7.546   4.254   5.612
   36POPC   C32 4732   7.373   4.214   5.442
   36POPC   H2X 4733   7.334   4.318   5.429
   36POPC   H2Y 4734   7.285   4.146   5.438
   36POPC   C23 4735   7.168   3.765   5.604
   36POPC   H3R 4736   7.240   3.833   5.552
   36POPC   H3S 4737   7.071   3.819   5.616
   36POPC   C24 4738   7.130   3.650   5.513
   36POPC   H4R 4739   7.035   3.604   5.549
   36POPC   H4S 4740   7.209   3.572   5.520
   36POPC   C25 4741   7.116   3.700   5.369
   36POPC   H5R 4742   7.130   3.811   5.368
   36POPC   H5S 4743   7.013   3.682   5.331
   36POPC   C26 4744   7.225   3.635   5.282
   36POPC   H6R 4745   7.240   3.531   5.317
   36POPC   H6S 4746   7.319   3.692   5.303
   36POPC   C27 4747   7.206   3.625   5.130
   36POPC   H7R 4748   7.166   3.526   5.103
   36POPC   H7S 4749   7.308   3.627   5.085
   36POPC   C28 4750   7.120   3.735   5.066
   36POPC   H8R 4751   7.018   3.736   5.109
   36POPC   H8S 4752   7.108   3.713   4.957
   36POPC   C29 4753   7.193   3.864   5.089
   36POPC   H91 4754   7.171   3.912   5.185
   36POPC  C210 4755   7.289   3.914   5.010
   36POPC  H101 4756   7.333   4.012   5.035
   36POPC  C211 4757   7.340   3.850   4.883
   36POPC  H11R 4758   7.299   3.748   4.866
   36POPC  H11S 4759   7.450   3.839   4.889
   36POPC  C212 4760   7.306   3.938   4.762
   36POPC  H12R 4761   7.337   3.883   4.670
   36POPC  H12S 4762   7.368   4.030   4.768
   36POPC  C213 4763   7.159   3.979   4.748
   36POPC  H13R 4764   7.105   3.980   4.845
   36POPC  H13S 4765   7.107   3.904   4.685
   36POPC  C214 4766   7.145   4.116   4.683
   36POPC  H14R 4767   7.199   4.191   4.745
   36POPC  H14S 4768   7.037   4.145   4.684
   36POPC  C215 4769   7.199   4.113   4.540
   36POPC  H15R 4770   7.174   4.013   4.499
   36POPC  H15S 4771   7.310   4.122   4.543
   36POPC  C216 4772   7.138   4.217   4.446
   36POPC  H16R 4773   7.211   4.299   4.428
   36POPC  H16S 4774   7.048   4.260   4.495
   36POPC  C217 4775   7.092   4.158   4.312
   36POPC  H17R 4776   6.985   4.129   4.325
   36POPC  H17S 4777   7.152   4.068   4.289
   36POPC  C218 4778   7.098   4.253   4.193
   36POPC  H18R 4779   7.116   4.197   4.098
   36POPC  H18S 4780   7.181   4.325   4.207
   36POPC  H18T 4781   7.004   4.310   4.182
   36POPC   C33 4782   7.471   4.180   5.327
   36POPC   H3X 4783   7.565   4.238   5.340
   36POPC   H3Y 4784   7.426   4.212   5.230
   36POPC   C34 4785   7.502   4.030   5.318
   36POPC   H4X 4786   7.415   3.979   5.271
   36POPC   H4Y 4787   7.513   3.987   5.420
   36POPC   C35 4788   7.629   4.001   5.238
   36POPC   H5X 4789   7.717   4.042   5.293
   36POPC   H5Y 4790   7.623   4.053   5.140
   36POPC   C36 4791   7.651   3.851   5.213
   36POPC   H6X 4792   7.561   3.811   5.160
   36POPC   H6Y 4793   7.658   3.798   5.311
   36POPC   C37 4794   7.776   3.819   5.129
   36POPC   H7X 4795   7.787   3.709   5.124
   36POPC   H7Y 4796   7.866   3.861   5.179
   36POPC   C38 4797   7.768   3.874   4.985
   36POPC   H8X 4798   7.782   3.984   4.988
   36POPC   H8Y 4799   7.666   3.855   4.944
   36POPC   C39 4800   7.872   3.811   4.890
   36POPC   H9X 4801   7.834   3.713   4.854
   36POPC   H9Y 4802   7.964   3.791   4.949
   36POPC  C310 4803   7.911   3.900   4.770
   36POPC  H10X 4804   7.985   3.845   4.708
   36POPC  H10Y 4805   7.963   3.989   4.812
   36POPC  C311 4806   7.796   3.950   4.681
   36POPC  H11X 4807   7.835   4.030   4.614
   36POPC  H11Y 4808   7.717   3.996   4.745
   36POPC  C312 4809   7.732   3.841   4.592
   36POPC  H12X 4810   7.699   3.760   4.660
   36POPC  H12Y 4811   7.808   3.799   4.523
   36POPC  C313 4812   7.610   3.890   4.512
   36POPC  H13X 4813   7.643   3.960   4.432
   36POPC  H13Y 4814   7.545   3.947   4.582
   36POPC  C314 4815   7.527   3.776   4.449
   36POPC  H14X 4816   7.506   3.702   4.530
   36POPC  H14Y 4817   7.585   3.724   4.370
   36POPC  C315 4818   7.392   3.824   4.394
   36POPC  H15X 4819   7.404   3.860   4.289
   36POPC  H15Y 4820   7.360   3.912   4.454
   36POPC  C316 4821   7.280   3.719   4.402
   36POPC  H16X 4822   7.181   3.767   4.390
   36POPC  H16Y 4823   7.282   3.668   4.500
   36POPC  H16Z 4824   7.292   3.643   4.322
   37POPC     N 4825   1.743   5.202   6.162
   37POPC   C12 4826   1.815   5.168   6.033
   37POPC  H12A 4827   1.868   5.254   5.997
   37POPC  H12B 4828   1.742   5.139   5.958
   37POPC   C13 4829   1.842   5.254   6.263
   37POPC  H13A 4830   1.925   5.184   6.271
   37POPC  H13B 4831   1.885   5.349   6.235
   37POPC  H13C 4832   1.796   5.265   6.360
   37POPC   C14 4833   1.632   5.301   6.151
   37POPC  H14A 4834   1.553   5.266   6.087
   37POPC  H14B 4835   1.589   5.315   6.250
   37POPC  H14C 4836   1.664   5.398   6.116
   37POPC   C15 4837   1.686   5.075   6.217
   37POPC  H15A 4838   1.637   5.092   6.313
   37POPC  H15B 4839   1.765   5.002   6.228
   37POPC  H15C 4840   1.610   5.033   6.152
   37POPC   C11 4841   1.917   5.051   6.040
   37POPC  H11A 4842   1.963   5.037   5.940
   37POPC  H11B 4843   1.863   4.956   6.060
   37POPC     P 4844   2.107   4.950   6.184
   37POPC   O13 4845   2.021   4.858   6.261
   37POPC   O14 4846   2.231   4.998   6.247
   37POPC   O12 4847   2.020   5.075   6.136
   37POPC   O11 4848   2.158   4.890   6.044
   37POPC    C1 4849   2.243   4.980   5.968
   37POPC    HA 4850   2.349   4.970   6.001
   37POPC    HB 4851   2.219   5.087   5.987
   37POPC    C2 4852   2.238   4.949   5.815
   37POPC    HS 4853   2.331   4.988   5.768
   37POPC   O21 4854   2.122   5.007   5.751
   37POPC   C21 4855   2.115   5.138   5.759
   37POPC   O22 4856   2.201   5.213   5.800
   37POPC   C22 4857   1.978   5.188   5.712
   37POPC   H2R 4858   1.943   5.261   5.789
   37POPC   H2S 4859   1.907   5.104   5.709
   37POPC    C3 4860   2.234   4.797   5.794
   37POPC    HX 4861   2.129   4.764   5.817
   37POPC    HY 4862   2.299   4.752   5.872
   37POPC   O31 4863   2.283   4.755   5.665
   37POPC   C31 4864   2.189   4.715   5.578
   37POPC   O32 4865   2.070   4.706   5.600
   37POPC   C32 4866   2.255   4.676   5.446
   37POPC   H2X 4867   2.227   4.570   5.428
   37POPC   H2Y 4868   2.365   4.680   5.453
   37POPC   C23 4869   1.986   5.262   5.577
   37POPC   H3R 4870   2.084   5.315   5.566
   37POPC   H3S 4871   1.907   5.340   5.572
   37POPC   C24 4872   1.964   5.167   5.459
   37POPC   H4R 4873   2.028   5.077   5.471
   37POPC   H4S 4874   1.995   5.218   5.365
   37POPC   C25 4875   1.817   5.126   5.446
   37POPC   H5R 4876   1.760   5.214   5.410
   37POPC   H5S 4877   1.775   5.097   5.545
   37POPC   C26 4878   1.798   5.011   5.350
   37POPC   H6R 4879   1.851   4.920   5.385
   37POPC   H6S 4880   1.841   5.039   5.251
   37POPC   C27 4881   1.649   4.980   5.332
   37POPC   H7R 4882   1.590   5.074   5.338
   37POPC   H7S 4883   1.614   4.914   5.415
   37POPC   C28 4884   1.621   4.917   5.196
   37POPC   H8R 4885   1.642   4.991   5.115
   37POPC   H8S 4886   1.511   4.901   5.197
   37POPC   C29 4887   1.693   4.787   5.174
   37POPC   H91 4888   1.700   4.722   5.263
   37POPC  C210 4889   1.751   4.746   5.060
   37POPC  H101 4890   1.796   4.646   5.059
   37POPC  C211 4891   1.760   4.819   4.928
   37POPC  H11R 4892   1.679   4.894   4.916
   37POPC  H11S 4893   1.747   4.745   4.846
   37POPC  C212 4894   1.897   4.887   4.915
   37POPC  H12R 4895   1.976   4.831   4.970
   37POPC  H12S 4896   1.891   4.989   4.960
   37POPC  C213 4897   1.949   4.901   4.771
   37POPC  H13R 4898   1.882   4.973   4.719
   37POPC  H13S 4899   1.941   4.806   4.716
   37POPC  C214 4900   2.095   4.950   4.770
   37POPC  H14R 4901   2.114   5.006   4.864
   37POPC  H14S 4902   2.113   5.021   4.687
   37POPC  C215 4903   2.200   4.840   4.761
   37POPC  H15R 4904   2.206   4.793   4.861
   37POPC  H15S 4905   2.297   4.888   4.739
   37POPC  C216 4906   2.179   4.727   4.658
   37POPC  H16R 4907   2.106   4.657   4.702
   37POPC  H16S 4908   2.274   4.673   4.646
   37POPC  C217 4909   2.125   4.765   4.520
   37POPC  H17R 4910   2.108   4.874   4.520
   37POPC  H17S 4911   2.025   4.718   4.506
   37POPC  C218 4912   2.217   4.722   4.405
   37POPC  H18R 4913   2.323   4.721   4.436
   37POPC  H18S 4914   2.206   4.791   4.319
   37POPC  H18T 4915   2.192   4.619   4.372
   37POPC   C33 4916   2.206   4.766   5.332
   37POPC   H3X 4917   2.094   4.768   5.327
   37POPC   H3Y 4918   2.242   4.726   5.235
   37POPC   C34 4919   2.260   4.909   5.346
   37POPC   H4X 4920   2.371   4.904   5.351
   37POPC   H4Y 4921   2.223   4.955   5.441
   37POPC   C35 4922   2.218   4.997   5.228
   37POPC   H5X 4923   2.107   5.003   5.225
   37POPC   H5Y 4924   2.251   4.948   5.134
   37POPC   C36 4925   2.278   5.138   5.234
   37POPC   H6X 4926   2.388   5.131   5.248
   37POPC   H6Y 4927   2.238   5.192   5.323
   37POPC   C37 4928   2.249   5.218   5.106
   37POPC   H7X 4929   2.275   5.157   5.017
   37POPC   H7Y 4930   2.314   5.308   5.106
   37POPC   C38 4931   2.102   5.262   5.100
   37POPC   H8X 4932   2.082   5.324   5.190
   37POPC   H8Y 4933   2.035   5.174   5.105
   37POPC   C39 4934   2.066   5.346   4.976
   37POPC   H9X 4935   2.143   5.425   4.959
   37POPC   H9Y 4936   1.971   5.398   5.001
   37POPC  C310 4937   2.042   5.263   4.850
   37POPC  H10X 4938   1.979   5.176   4.881
   37POPC  H10Y 4939   2.138   5.224   4.809
   37POPC  C311 4940   1.965   5.339   4.741
   37POPC  H11X 4941   2.033   5.389   4.670
   37POPC  H11Y 4942   1.910   5.420   4.794
   37POPC  C312 4943   1.856   5.257   4.669
   37POPC  H12X 4944   1.784   5.332   4.630
   37POPC  H12Y 4945   1.800   5.193   4.741
   37POPC  C313 4946   1.902   5.176   4.547
   37POPC  H13X 4947   1.961   5.087   4.573
   37POPC  H13Y 4948   1.971   5.242   4.490
   37POPC  C314 4949   1.787   5.134   4.454
   37POPC  H14X 4950   1.830   5.123   4.352
   37POPC  H14Y 4951   1.710   5.214   4.449
   37POPC  C315 4952   1.716   5.002   4.487
   37POPC  H15X 4953   1.643   5.018   4.569
   37POPC  H15Y 4954   1.791   4.927   4.520
   37POPC  C316 4955   1.645   4.949   4.362
   37POPC  H16X 4956   1.716   4.893   4.298
   37POPC  H16Y 4957   1.607   5.033   4.302
   37POPC  H16Z 4958   1.559   4.882   4.388
   38POPC     N 4959   4.587   7.509   6.360
   38POPC   C12 4960   4.491   7.431   6.271
   38POPC  H12A 4961   4.392   7.433   6.315
   38POPC  H12B 4962   4.524   7.328   6.268
   38POPC   C13 4963   4.729   7.479   6.321
   38POPC  H13A 4964   4.798   7.555   6.354
   38POPC  H13B 4965   4.757   7.380   6.355
   38POPC  H13C 4966   4.734   7.480   6.211
   38POPC   C14 4967   4.564   7.655   6.343
   38POPC  H14A 4968   4.591   7.684   6.241
   38POPC  H14B 4969   4.459   7.679   6.357
   38POPC  H14C 4970   4.620   7.713   6.415
   38POPC   C15 4971   4.566   7.471   6.502
   38POPC  H15A 4972   4.462   7.484   6.532
   38POPC  H15B 4973   4.627   7.530   6.569
   38POPC  H15C 4974   4.593   7.367   6.518
   38POPC   C11 4975   4.478   7.478   6.125
   38POPC  H11A 4976   4.423   7.574   6.119
   38POPC  H11B 4977   4.420   7.401   6.067
   38POPC     P 4978   4.642   7.511   5.924
   38POPC   O13 4979   4.603   7.390   5.849
   38POPC   O14 4980   4.783   7.555   5.923
   38POPC   O12 4981   4.609   7.493   6.075
   38POPC   O11 4982   4.545   7.631   5.894
   38POPC    C1 4983   4.573   7.761   5.946
   38POPC    HA 4984   4.678   7.774   5.983
   38POPC    HB 4985   4.504   7.781   6.031
   38POPC    C2 4986   4.548   7.868   5.838
   38POPC    HS 4987   4.523   7.961   5.894
   38POPC   O21 4988   4.441   7.831   5.750
   38POPC   C21 4989   4.322   7.840   5.808
   38POPC   O22 4990   4.300   7.881   5.921
   38POPC   C22 4991   4.214   7.819   5.705
   38POPC   H2R 4992   4.237   7.886   5.620
   38POPC   H2S 4993   4.117   7.850   5.749
   38POPC    C3 4994   4.674   7.900   5.752
   38POPC    HX 4995   4.748   7.947   5.820
   38POPC    HY 4996   4.647   7.977   5.677
   38POPC   O31 4997   4.734   7.784   5.692
   38POPC   C31 4998   4.728   7.773   5.561
   38POPC   O32 4999   4.687   7.858   5.483
   38POPC   C32 5000   4.792   7.642   5.521
   38POPC   H2X 5001   4.874   7.619   5.592
   38POPC   H2Y 5002   4.834   7.653   5.419
   38POPC   C23 5003   4.204   7.674   5.657
   38POPC   H3R 5004   4.155   7.613   5.737
   38POPC   H3S 5005   4.306   7.632   5.638
   38POPC   C24 5006   4.122   7.665   5.528
   38POPC   H4R 5007   4.017   7.696   5.549
   38POPC   H4S 5008   4.120   7.560   5.493
   38POPC   C25 5009   4.181   7.751   5.415
   38POPC   H5R 5010   4.292   7.758   5.428
   38POPC   H5S 5011   4.139   7.853   5.423
   38POPC   C26 5012   4.150   7.690   5.279
   38POPC   H6R 5013   4.043   7.663   5.276
   38POPC   H6S 5014   4.211   7.597   5.266
   38POPC   C27 5015   4.181   7.788   5.165
   38POPC   H7R 5016   4.286   7.823   5.177
   38POPC   H7S 5017   4.115   7.877   5.175
   38POPC   C28 5018   4.168   7.725   5.026
   38POPC   H8R 5019   4.247   7.646   5.019
   38POPC   H8S 5020   4.194   7.803   4.950
   38POPC   C29 5021   4.033   7.665   4.995
   38POPC   H91 5022   3.958   7.664   5.076
   38POPC  C210 5023   4.004   7.613   4.875
   38POPC  H101 5024   3.905   7.567   4.858
   38POPC  C211 5025   4.102   7.608   4.760
   38POPC  H11R 5026   4.204   7.585   4.797
   38POPC  H11S 5027   4.109   7.707   4.710
   38POPC  C212 5028   4.068   7.501   4.655
   38POPC  H12R 5029   3.973   7.527   4.602
   38POPC  H12S 5030   4.051   7.404   4.707
   38POPC  C213 5031   4.183   7.482   4.555
   38POPC  H13R 5032   4.206   7.373   4.549
   38POPC  H13S 5033   4.275   7.532   4.593
   38POPC  C214 5034   4.153   7.531   4.413
   38POPC  H14R 5035   4.056   7.488   4.379
   38POPC  H14S 5036   4.230   7.492   4.342
   38POPC  C215 5037   4.146   7.684   4.396
   38POPC  H15R 5038   4.058   7.725   4.449
   38POPC  H15S 5039   4.129   7.700   4.288
   38POPC  C216 5040   4.269   7.767   4.432
   38POPC  H16R 5041   4.362   7.711   4.410
   38POPC  H16S 5042   4.267   7.789   4.541
   38POPC  C217 5043   4.270   7.899   4.352
   38POPC  H17R 5044   4.307   7.982   4.415
   38POPC  H17S 5045   4.165   7.924   4.326
   38POPC  C218 5046   4.354   7.891   4.224
   38POPC  H18R 5047   4.446   7.952   4.233
   38POPC  H18S 5048   4.296   7.928   4.137
   38POPC  H18T 5049   4.382   7.787   4.202
   38POPC   C33 5050   4.687   7.531   5.520
   38POPC   H3X 5051   4.641   7.518   5.621
   38POPC   H3Y 5052   4.741   7.436   5.497
   38POPC   C34 5053   4.579   7.559   5.416
   38POPC   H4X 5054   4.625   7.602   5.325
   38POPC   H4Y 5055   4.510   7.637   5.456
   38POPC   C35 5056   4.499   7.435   5.379
   38POPC   H5X 5057   4.422   7.467   5.305
   38POPC   H5Y 5058   4.448   7.401   5.471
   38POPC   C36 5059   4.582   7.318   5.322
   38POPC   H6X 5060   4.512   7.238   5.290
   38POPC   H6Y 5061   4.644   7.274   5.403
   38POPC   C37 5062   4.672   7.355   5.203
   38POPC   H7X 5063   4.730   7.265   5.175
   38POPC   H7Y 5064   4.745   7.434   5.233
   38POPC   C38 5065   4.590   7.401   5.082
   38POPC   H8X 5066   4.535   7.495   5.106
   38POPC   H8Y 5067   4.515   7.321   5.063
   38POPC   C39 5068   4.670   7.419   4.953
   38POPC   H9X 5069   4.599   7.440   4.870
   38POPC   H9Y 5070   4.720   7.322   4.928
   38POPC  C310 5071   4.775   7.530   4.956
   38POPC  H10X 5072   4.816   7.534   4.853
   38POPC  H10Y 5073   4.859   7.500   5.023
   38POPC  C311 5074   4.728   7.671   4.997
   38POPC  H11X 5075   4.810   7.742   4.975
   38POPC  H11Y 5076   4.710   7.673   5.106
   38POPC  C312 5077   4.605   7.725   4.923
   38POPC  H12X 5078   4.584   7.826   4.965
   38POPC  H12Y 5079   4.515   7.662   4.942
   38POPC  C313 5080   4.629   7.740   4.772
   38POPC  H13X 5081   4.605   7.644   4.721
   38POPC  H13Y 5082   4.737   7.761   4.755
   38POPC  C314 5083   4.550   7.855   4.711
   38POPC  H14X 5084   4.589   7.950   4.752
   38POPC  H14Y 5085   4.443   7.845   4.740
   38POPC  C315 5086   4.559   7.863   4.558
   38POPC  H15X 5087   4.475   7.928   4.525
   38POPC  H15Y 5088   4.545   7.762   4.514
   38POPC  C316 5089   4.688   7.925   4.503
   38POPC  H16X 5090   4.710   8.022   4.554
   38POPC  H16Y 5091   4.678   7.944   4.394
   38POPC  H16Z 5092   4.773   7.857   4.519
   39POPC     N 5093   7.595   5.127   5.952
   39POPC   C12 5094   7.483   5.164   6.049
   39POPC  H12A 5095   7.402   5.213   5.997
   39POPC  H12B 5096   7.519   5.238   6.120
   39POPC   C13 5097   7.546   5.031   5.847
   39POPC  H13A 5098   7.498   4.947   5.895
   39POPC  H13B 5099   7.472   5.077   5.783
   39POPC  H13C 5100   7.626   4.993   5.786
   39POPC   C14 5101   7.653   5.247   5.885
   39POPC  H14A 5102   7.701   5.313   5.957
   39POPC  H14B 5103   7.727   5.218   5.811
   39POPC  H14C 5104   7.578   5.305   5.833
   39POPC   C15 5105   7.703   5.059   6.031
   39POPC  H15A 5106   7.666   4.962   6.066
   39POPC  H15B 5107   7.723   5.114   6.122
   39POPC  H15C 5108   7.794   5.045   5.974
   39POPC   C11 5109   7.428   5.051   6.139
   39POPC  H11A 5110   7.421   4.955   6.083
   39POPC  H11B 5111   7.325   5.080   6.171
   39POPC     P 5112   7.502   4.919   6.354
   39POPC   O13 5113   7.361   4.904   6.403
   39POPC   O14 5114   7.608   4.931   6.456
   39POPC   O12 5115   7.512   5.042   6.254
   39POPC   O11 5116   7.538   4.799   6.257
   39POPC    C1 5117   7.572   4.673   6.316
   39POPC    HA 5118   7.504   4.646   6.401
   39POPC    HB 5119   7.677   4.677   6.356
   39POPC    C2 5120   7.563   4.557   6.212
   39POPC    HS 5121   7.614   4.468   6.254
   39POPC   O21 5122   7.623   4.593   6.087
   39POPC   C21 5123   7.746   4.634   6.081
   39POPC   O22 5124   7.831   4.615   6.167
   39POPC   C22 5125   7.768   4.691   5.940
   39POPC   H2R 5126   7.680   4.751   5.912
   39POPC   H2S 5127   7.773   4.602   5.872
   39POPC    C3 5128   7.414   4.515   6.186
   39POPC    HX 5129   7.367   4.491   6.284
   39POPC    HY 5130   7.410   4.420   6.128
   39POPC   O31 5131   7.336   4.620   6.124
   39POPC   C31 5132   7.348   4.622   5.991
   39POPC   O32 5133   7.421   4.548   5.926
   39POPC   C32 5134   7.262   4.734   5.933
   39POPC   H2X 5135   7.321   4.827   5.930
   39POPC   H2Y 5136   7.176   4.749   6.002
   39POPC   C23 5137   7.899   4.772   5.922
   39POPC   H3R 5138   7.984   4.712   5.961
   39POPC   H3S 5139   7.896   4.866   5.981
   39POPC   C24 5140   7.928   4.804   5.774
   39POPC   H4R 5141   7.929   4.707   5.719
   39POPC   H4S 5142   8.030   4.849   5.765
   39POPC   C25 5143   7.827   4.892   5.699
   39POPC   H5R 5144   7.820   4.992   5.746
   39POPC   H5S 5145   7.727   4.842   5.704
   39POPC   C26 5146   7.865   4.906   5.550
   39POPC   H6R 5147   7.905   4.808   5.517
   39POPC   H6S 5148   7.947   4.980   5.538
   39POPC   C27 5149   7.748   4.938   5.456
   39POPC   H7R 5150   7.665   4.866   5.476
   39POPC   H7S 5151   7.782   4.919   5.351
   39POPC   C28 5152   7.698   5.082   5.465
   39POPC   H8R 5153   7.783   5.151   5.445
   39POPC   H8S 5154   7.664   5.103   5.569
   39POPC   C29 5155   7.585   5.106   5.368
   39POPC   H91 5156   7.485   5.081   5.406
   39POPC  C210 5157   7.597   5.150   5.241
   39POPC  H101 5158   7.506   5.161   5.180
   39POPC  C211 5159   7.726   5.185   5.171
   39POPC  H11R 5160   7.813   5.128   5.211
   39POPC  H11S 5161   7.748   5.292   5.188
   39POPC  C212 5162   7.720   5.164   5.018
   39POPC  H12R 5163   7.807   5.216   4.973
   39POPC  H12S 5164   7.629   5.214   4.978
   39POPC  C213 5165   7.719   5.018   4.969
   39POPC  H13R 5166   7.689   5.017   4.862
   39POPC  H13S 5167   7.642   4.961   5.025
   39POPC  C214 5168   7.854   4.943   4.980
   39POPC  H14R 5169   7.841   4.844   4.931
   39POPC  H14S 5170   7.877   4.926   5.087
   39POPC  C215 5171   7.975   5.013   4.915
   39POPC  H15R 5172   8.061   4.942   4.914
   39POPC  H15S 5173   8.005   5.100   4.977
   39POPC  C216 5174   7.948   5.060   4.771
   39POPC  H16R 5175   7.861   5.129   4.769
   39POPC  H16S 5176   7.922   4.971   4.710
   39POPC  C217 5177   8.067   5.133   4.706
   39POPC  H17R 5178   8.156   5.066   4.705
   39POPC  H17S 5179   8.092   5.222   4.769
   39POPC  C218 5180   8.035   5.180   4.563
   39POPC  H18R 5181   8.113   5.250   4.526
   39POPC  H18S 5182   7.937   5.232   4.561
   39POPC  H18T 5183   8.030   5.093   4.495
   39POPC   C33 5184   7.209   4.697   5.793
   39POPC   H3X 5185   7.114   4.752   5.774
   39POPC   H3Y 5186   7.184   4.588   5.789
   39POPC   C34 5187   7.310   4.731   5.684
   39POPC   H4X 5188   7.404   4.672   5.699
   39POPC   H4Y 5189   7.337   4.839   5.694
   39POPC   C35 5190   7.258   4.706   5.543
   39POPC   H5X 5191   7.161   4.760   5.531
   39POPC   H5Y 5192   7.238   4.598   5.527
   39POPC   C36 5193   7.359   4.758   5.441
   39POPC   H6X 5194   7.453   4.699   5.447
   39POPC   H6Y 5195   7.383   4.863   5.468
   39POPC   C37 5196   7.307   4.757   5.297
   39POPC   H7X 5197   7.199   4.785   5.294
   39POPC   H7Y 5198   7.316   4.654   5.256
   39POPC   C38 5199   7.385   4.857   5.212
   39POPC   H8X 5200   7.494   4.847   5.231
   39POPC   H8Y 5201   7.354   4.960   5.242
   39POPC   C39 5202   7.361   4.839   5.062
   39POPC   H9X 5203   7.391   4.933   5.010
   39POPC   H9Y 5204   7.252   4.824   5.044
   39POPC  C310 5205   7.441   4.722   5.004
   39POPC  H10X 5206   7.433   4.634   5.071
   39POPC  H10Y 5207   7.549   4.751   5.000
   39POPC  C311 5208   7.394   4.683   4.864
   39POPC  H11X 5209   7.287   4.651   4.872
   39POPC  H11Y 5210   7.453   4.596   4.829
   39POPC  C312 5211   7.405   4.799   4.765
   39POPC  H12X 5212   7.508   4.840   4.769
   39POPC  H12Y 5213   7.334   4.879   4.797
   39POPC  C313 5214   7.371   4.760   4.621
   39POPC  H13X 5215   7.331   4.849   4.566
   39POPC  H13Y 5216   7.291   4.684   4.622
   39POPC  C314 5217   7.492   4.705   4.546
   39POPC  H14X 5218   7.460   4.640   4.462
   39POPC  H14Y 5219   7.550   4.640   4.616
   39POPC  C315 5220   7.584   4.815   4.492
   39POPC  H15X 5221   7.675   4.763   4.456
   39POPC  H15Y 5222   7.614   4.882   4.576
   39POPC  C316 5223   7.533   4.899   4.375
   39POPC  H16X 5224   7.429   4.935   4.393
   39POPC  H16Y 5225   7.536   4.841   4.281
   39POPC  H16Z 5226   7.599   4.988   4.362
   40POPC     N 5227   6.207   7.170   6.323
   40POPC   C12 5228   6.194   7.182   6.173
   40POPC  H12A 5229   6.270   7.251   6.136
   40POPC  H12B 5230   6.098   7.224   6.147
   40POPC   C13 5231   6.347   7.208   6.362
   40POPC  H13A 5232   6.362   7.198   6.469
   40POPC  H13B 5233   6.416   7.141   6.311
   40POPC  H13C 5234   6.371   7.310   6.333
   40POPC   C14 5235   6.109   7.259   6.390
   40POPC  H14A 5236   6.104   7.237   6.496
   40POPC  H14B 5237   6.135   7.364   6.377
   40POPC  H14C 5238   6.009   7.245   6.349
   40POPC   C15 5239   6.189   7.027   6.365
   40POPC  H15A 5240   6.090   6.990   6.342
   40POPC  H15B 5241   6.214   7.014   6.469
   40POPC  H15C 5242   6.258   6.965   6.306
   40POPC   C11 5243   6.210   7.051   6.095
   40POPC  H11A 5244   6.196   7.076   5.987
   40POPC  H11B 5245   6.129   6.979   6.119
   40POPC     P 5246   6.451   6.966   6.024
   40POPC   O13 5247   6.495   6.825   6.036
   40POPC   O14 5248   6.551   7.074   6.035
   40POPC   O12 5249   6.336   6.992   6.129
   40POPC   O11 5250   6.372   6.993   5.890
   40POPC    C1 5251   6.400   6.926   5.770
   40POPC    HA 5252   6.303   6.895   5.724
   40POPC    HB 5253   6.460   6.833   5.785
   40POPC    C2 5254   6.474   7.018   5.670
   40POPC    HS 5255   6.570   7.049   5.717
   40POPC   O21 5256   6.394   7.135   5.640
   40POPC   C21 5257   6.450   7.218   5.553
   40POPC   O22 5258   6.556   7.202   5.497
   40POPC   C22 5259   6.362   7.335   5.520
   40POPC   H2R 5260   6.414   7.427   5.552
   40POPC   H2S 5261   6.265   7.327   5.574
   40POPC    C3 5262   6.502   6.929   5.545
   40POPC    HX 5263   6.571   6.850   5.583
   40POPC    HY 5264   6.558   6.980   5.466
   40POPC   O31 5265   6.379   6.880   5.489
   40POPC   C31 5266   6.366   6.748   5.488
   40POPC   O32 5267   6.441   6.669   5.542
   40POPC   C32 5268   6.252   6.707   5.400
   40POPC   H2X 5269   6.176   6.787   5.393
   40POPC   H2Y 5270   6.208   6.616   5.447
   40POPC   C23 5271   6.346   7.332   5.367
   40POPC   H3R 5272   6.443   7.354   5.317
   40POPC   H3S 5273   6.278   7.415   5.340
   40POPC   C24 5274   6.297   7.194   5.320
   40POPC   H4R 5275   6.227   7.155   5.398
   40POPC   H4S 5276   6.384   7.123   5.319
   40POPC   C25 5277   6.230   7.185   5.183
   40POPC   H5R 5278   6.178   7.087   5.174
   40POPC   H5S 5279   6.310   7.185   5.105
   40POPC   C26 5280   6.129   7.296   5.154
   40POPC   H6R 5281   6.119   7.367   5.238
   40POPC   H6S 5282   6.028   7.256   5.139
   40POPC   C27 5283   6.162   7.371   5.026
   40POPC   H7R 5284   6.272   7.368   5.007
   40POPC   H7S 5285   6.136   7.477   5.045
   40POPC   C28 5286   6.081   7.316   4.908
   40POPC   H8R 5287   5.972   7.315   4.929
   40POPC   H8S 5288   6.113   7.213   4.883
   40POPC   C29 5289   6.113   7.417   4.805
   40POPC   H91 5290   6.054   7.510   4.806
   40POPC  C210 5291   6.213   7.405   4.719
   40POPC  H101 5292   6.254   7.502   4.691
   40POPC  C211 5293   6.312   7.292   4.706
   40POPC  H11R 5294   6.278   7.218   4.630
   40POPC  H11S 5295   6.324   7.236   4.802
   40POPC  C212 5296   6.450   7.346   4.666
   40POPC  H12R 5297   6.523   7.262   4.675
   40POPC  H12S 5298   6.480   7.421   4.741
   40POPC  C213 5299   6.466   7.401   4.523
   40POPC  H13R 5300   6.450   7.317   4.455
   40POPC  H13S 5301   6.571   7.431   4.506
   40POPC  C214 5302   6.377   7.515   4.469
   40POPC  H14R 5303   6.431   7.611   4.479
   40POPC  H14S 5304   6.278   7.527   4.516
   40POPC  C215 5305   6.332   7.488   4.326
   40POPC  H15R 5306   6.260   7.563   4.289
   40POPC  H15S 5307   6.272   7.396   4.330
   40POPC  C216 5308   6.449   7.477   4.229
   40POPC  H16R 5309   6.505   7.385   4.256
   40POPC  H16S 5310   6.519   7.562   4.243
   40POPC  C217 5311   6.402   7.469   4.085
   40POPC  H17R 5312   6.346   7.561   4.059
   40POPC  H17S 5313   6.330   7.386   4.075
   40POPC  C218 5314   6.518   7.448   3.988
   40POPC  H18R 5315   6.499   7.499   3.891
   40POPC  H18S 5316   6.532   7.339   3.969
   40POPC  H18T 5317   6.612   7.485   4.031
   40POPC   C33 5318   6.314   6.674   5.264
   40POPC   H3X 5319   6.244   6.610   5.206
   40POPC   H3Y 5320   6.407   6.613   5.277
   40POPC   C34 5321   6.347   6.800   5.184
   40POPC   H4X 5322   6.455   6.795   5.156
   40POPC   H4Y 5323   6.334   6.892   5.246
   40POPC   C35 5324   6.264   6.816   5.057
   40POPC   H5X 5325   6.173   6.877   5.080
   40POPC   H5Y 5326   6.230   6.717   5.021
   40POPC   C36 5327   6.346   6.882   4.946
   40POPC   H6X 5328   6.412   6.960   4.988
   40POPC   H6Y 5329   6.273   6.932   4.879
   40POPC   C37 5330   6.426   6.776   4.869
   40POPC   H7X 5331   6.358   6.690   4.847
   40POPC   H7Y 5332   6.507   6.735   4.934
   40POPC   C38 5333   6.485   6.824   4.736
   40POPC   H8X 5334   6.522   6.735   4.681
   40POPC   H8Y 5335   6.572   6.891   4.755
   40POPC   C39 5336   6.382   6.897   4.647
   40POPC   H9X 5337   6.431   6.924   4.552
   40POPC   H9Y 5338   6.354   6.994   4.695
   40POPC  C310 5339   6.256   6.813   4.624
   40POPC  H10X 5340   6.213   6.785   4.723
   40POPC  H10Y 5341   6.281   6.718   4.573
   40POPC  C311 5342   6.141   6.886   4.553
   40POPC  H11X 5343   6.131   6.989   4.595
   40POPC  H11Y 5344   6.047   6.831   4.578
   40POPC  C312 5345   6.148   6.894   4.400
   40POPC  H12X 5346   6.176   6.995   4.368
   40POPC  H12Y 5347   6.042   6.888   4.366
   40POPC  C313 5348   6.220   6.779   4.325
   40POPC  H13X 5349   6.181   6.792   4.222
   40POPC  H13Y 5350   6.188   6.682   4.368
   40POPC  C314 5351   6.372   6.758   4.310
   40POPC  H14X 5352   6.391   6.648   4.315
   40POPC  H14Y 5353   6.426   6.802   4.395
   40POPC  C315 5354   6.431   6.805   4.176
   40POPC  H15X 5355   6.540   6.810   4.183
   40POPC  H15Y 5356   6.410   6.911   4.159
   40POPC  C316 5357   6.391   6.727   4.051
   40POPC  H16X 5358   6.464   6.743   3.969
   40POPC  H16Y 5359   6.291   6.759   4.014
   40POPC  H16Z 5360   6.388   6.618   4.074
   41POPC     N 5361   5.238   1.942   6.048
   41POPC   C12 5362   5.388   1.946   6.024
   41POPC  H12A 5363   5.411   2.010   5.939
   41POPC  H12B 5364   5.423   1.846   5.996
   41POPC   C13 5365   5.190   2.071   6.108
   41POPC  H13A 5366   5.235   2.084   6.206
   41POPC  H13B 5367   5.221   2.157   6.048
   41POPC  H13C 5368   5.082   2.071   6.117
   41POPC   C14 5369   5.161   1.917   5.922
   41POPC  H14A 5370   5.193   1.827   5.872
   41POPC  H14B 5371   5.054   1.906   5.942
   41POPC  H14C 5372   5.172   1.999   5.852
   41POPC   C15 5373   5.216   1.831   6.145
   41POPC  H15A 5374   5.244   1.735   6.104
   41POPC  H15B 5375   5.116   1.830   6.185
   41POPC  H15C 5376   5.283   1.846   6.230
   41POPC   C11 5377   5.480   1.987   6.142
   41POPC  H11A 5378   5.452   2.088   6.175
   41POPC  H11B 5379   5.585   1.995   6.103
   41POPC     P 5380   5.568   1.773   6.260
   41POPC   O13 5381   5.510   1.660   6.338
   41POPC   O14 5382   5.704   1.823   6.294
   41POPC   O12 5383   5.470   1.897   6.255
   41POPC   O11 5384   5.570   1.746   6.107
   41POPC    C1 5385   5.557   1.617   6.053
   41POPC    HA 5386   5.462   1.570   6.087
   41POPC    HB 5387   5.641   1.552   6.086
   41POPC    C2 5388   5.556   1.628   5.898
   41POPC    HS 5389   5.656   1.592   5.864
   41POPC   O21 5390   5.524   1.762   5.856
   41POPC   C21 5391   5.588   1.800   5.748
   41POPC   O22 5392   5.683   1.744   5.698
   41POPC   C22 5393   5.530   1.932   5.698
   41POPC   H2R 5394   5.578   2.015   5.755
   41POPC   H2S 5395   5.421   1.934   5.715
   41POPC    C3 5396   5.447   1.537   5.845
   41POPC    HX 5397   5.360   1.588   5.887
   41POPC    HY 5398   5.447   1.436   5.887
   41POPC   O31 5399   5.431   1.538   5.703
   41POPC   C31 5400   5.495   1.439   5.646
   41POPC   O32 5401   5.592   1.380   5.688
   41POPC   C32 5402   5.423   1.409   5.518
   41POPC   H2X 5403   5.381   1.504   5.478
   41POPC   H2Y 5404   5.340   1.339   5.540
   41POPC   C23 5405   5.561   1.948   5.548
   41POPC   H3R 5406   5.508   1.867   5.492
   41POPC   H3S 5407   5.670   1.934   5.530
   41POPC   C24 5408   5.521   2.083   5.489
   41POPC   H4R 5409   5.580   2.164   5.538
   41POPC   H4S 5410   5.414   2.104   5.509
   41POPC   C25 5411   5.548   2.085   5.338
   41POPC   H5R 5412   5.642   2.030   5.317
   41POPC   H5S 5413   5.564   2.190   5.304
   41POPC   C26 5414   5.431   2.026   5.257
   41POPC   H6R 5415   5.399   1.928   5.299
   41POPC   H6S 5416   5.466   2.007   5.153
   41POPC   C27 5417   5.314   2.124   5.251
   41POPC   H7R 5418   5.359   2.222   5.224
   41POPC   H7S 5419   5.268   2.135   5.351
   41POPC   C28 5420   5.208   2.092   5.145
   41POPC   H8R 5421   5.261   2.064   5.052
   41POPC   H8S 5422   5.153   2.185   5.122
   41POPC   C29 5423   5.107   1.990   5.193
   41POPC   H91 5424   5.057   2.015   5.288
   41POPC  C210 5425   5.074   1.875   5.132
   41POPC  H101 5426   4.990   1.816   5.173
   41POPC  C211 5427   5.130   1.824   5.003
   41POPC  H11R 5428   5.190   1.732   5.020
   41POPC  H11S 5429   5.199   1.900   4.962
   41POPC  C212 5430   5.027   1.795   4.893
   41POPC  H12R 5431   4.942   1.865   4.902
   41POPC  H12S 5432   4.987   1.692   4.904
   41POPC  C213 5433   5.086   1.815   4.752
   41POPC  H13R 5434   5.082   1.923   4.725
   41POPC  H13S 5435   5.023   1.759   4.680
   41POPC  C214 5436   5.232   1.768   4.745
   41POPC  H14R 5437   5.238   1.668   4.793
   41POPC  H14S 5438   5.298   1.834   4.803
   41POPC  C215 5439   5.288   1.760   4.604
   41POPC  H15R 5440   5.277   1.855   4.548
   41POPC  H15S 5441   5.223   1.687   4.557
   41POPC  C216 5442   5.434   1.712   4.608
   41POPC  H16R 5443   5.438   1.628   4.681
   41POPC  H16S 5444   5.493   1.795   4.650
   41POPC  C217 5445   5.503   1.664   4.479
   41POPC  H17R 5446   5.601   1.621   4.514
   41POPC  H17S 5447   5.527   1.751   4.414
   41POPC  C218 5448   5.432   1.556   4.398
   41POPC  H18R 5449   5.500   1.473   4.373
   41POPC  H18S 5450   5.392   1.594   4.302
   41POPC  H18T 5451   5.351   1.509   4.458
   41POPC   C33 5452   5.523   1.348   5.420
   41POPC   H3X 5453   5.469   1.324   5.326
   41POPC   H3Y 5454   5.563   1.252   5.460
   41POPC   C34 5455   5.640   1.442   5.396
   41POPC   H4X 5456   5.717   1.387   5.338
   41POPC   H4Y 5457   5.693   1.468   5.491
   41POPC   C35 5458   5.605   1.572   5.324
   41POPC   H5X 5459   5.541   1.638   5.387
   41POPC   H5Y 5460   5.550   1.552   5.230
   41POPC   C36 5461   5.737   1.639   5.294
   41POPC   H6X 5462   5.799   1.567   5.237
   41POPC   H6Y 5463   5.789   1.661   5.390
   41POPC   C37 5464   5.724   1.767   5.213
   41POPC   H7X 5465   5.820   1.823   5.217
   41POPC   H7Y 5466   5.644   1.831   5.257
   41POPC   C38 5467   5.693   1.738   5.066
   41POPC   H8X 5468   5.588   1.701   5.057
   41POPC   H8Y 5469   5.761   1.661   5.025
   41POPC   C39 5470   5.707   1.867   4.988
   41POPC   H9X 5471   5.808   1.912   5.001
   41POPC   H9Y 5472   5.634   1.936   5.037
   41POPC  C310 5473   5.676   1.852   4.840
   41POPC  H10X 5474   5.594   1.777   4.829
   41POPC  H10Y 5475   5.765   1.812   4.786
   41POPC  C311 5476   5.630   1.985   4.779
   41POPC  H11X 5477   5.610   1.971   4.671
   41POPC  H11Y 5478   5.712   2.060   4.788
   41POPC  C312 5479   5.505   2.040   4.850
   41POPC  H12X 5480   5.535   2.086   4.947
   41POPC  H12Y 5481   5.434   1.959   4.874
   41POPC  C313 5482   5.435   2.149   4.770
   41POPC  H13X 5483   5.516   2.217   4.734
   41POPC  H13Y 5484   5.367   2.207   4.836
   41POPC  C314 5485   5.355   2.098   4.650
   41POPC  H14X 5486   5.251   2.073   4.681
   41POPC  H14Y 5487   5.402   2.005   4.613
   41POPC  C315 5488   5.357   2.198   4.535
   41POPC  H15X 5489   5.282   2.169   4.458
   41POPC  H15Y 5490   5.457   2.187   4.488
   41POPC  C316 5491   5.338   2.344   4.577
   41POPC  H16X 5492   5.405   2.409   4.515
   41POPC  H16Y 5493   5.367   2.365   4.682
   41POPC  H16Z 5494   5.233   2.376   4.563
   42POPC     N 5495   7.537   5.959   6.113
   42POPC   C12 5496   7.553   5.807   6.107
   42POPC  H12A 5497   7.625   5.778   6.182
   42POPC  H12B 5498   7.594   5.779   6.011
   42POPC   C13 5499   7.518   5.994   6.257
   42POPC  H13A 5500   7.427   5.943   6.290
   42POPC  H13B 5501   7.599   5.958   6.318
   42POPC  H13C 5502   7.505   6.100   6.272
   42POPC   C14 5503   7.655   6.033   6.061
   42POPC  H14A 5504   7.668   6.015   5.955
   42POPC  H14B 5505   7.642   6.141   6.077
   42POPC  H14C 5506   7.746   6.005   6.113
   42POPC   C15 5507   7.414   5.996   6.037
   42POPC  H15A 5508   7.429   5.982   5.931
   42POPC  H15B 5509   7.383   6.097   6.057
   42POPC  H15C 5510   7.332   5.930   6.066
   42POPC   C11 5511   7.425   5.719   6.127
   42POPC  H11A 5512   7.455   5.619   6.166
   42POPC  H11B 5513   7.383   5.702   6.025
   42POPC     P 5514   7.173   5.764   6.182
   42POPC   O13 5515   7.099   5.876   6.246
   42POPC   O14 5516   7.126   5.625   6.207
   42POPC   O12 5517   7.330   5.776   6.219
   42POPC   O11 5518   7.168   5.794   6.026
   42POPC    C1 5519   7.037   5.816   5.970
   42POPC    HA 5520   6.995   5.912   6.007
   42POPC    HB 5521   6.965   5.735   6.000
   42POPC    C2 5522   7.042   5.822   5.816
   42POPC    HS 5523   7.076   5.721   5.783
   42POPC   O21 5524   7.134   5.927   5.778
   42POPC   C21 5525   7.243   5.888   5.716
   42POPC   O22 5526   7.270   5.775   5.679
   42POPC   C22 5527   7.331   6.011   5.692
   42POPC   H2R 5528   7.436   5.975   5.697
   42POPC   H2S 5529   7.314   6.086   5.771
   42POPC    C3 5530   6.902   5.847   5.750
   42POPC    HX 5531   6.856   5.937   5.797
   42POPC    HY 5532   6.833   5.764   5.770
   42POPC   O31 5533   6.910   5.868   5.608
   42POPC   C31 5534   6.956   5.765   5.540
   42POPC   O32 5535   6.976   5.652   5.580
   42POPC   C32 5536   6.998   5.813   5.402
   42POPC   H2X 5537   7.048   5.911   5.412
   42POPC   H2Y 5538   6.907   5.824   5.339
   42POPC   C23 5539   7.306   6.074   5.553
   42POPC   H3R 5540   7.205   6.122   5.551
   42POPC   H3S 5541   7.305   5.992   5.476
   42POPC   C24 5542   7.413   6.176   5.511
   42POPC   H4R 5543   7.514   6.132   5.533
   42POPC   H4S 5544   7.403   6.269   5.570
   42POPC   C25 5545   7.410   6.207   5.361
   42POPC   H5R 5546   7.418   6.110   5.308
   42POPC   H5S 5547   7.498   6.269   5.332
   42POPC   C26 5548   7.283   6.280   5.315
   42POPC   H6R 5549   7.280   6.382   5.360
   42POPC   H6S 5550   7.192   6.226   5.351
   42POPC   C27 5551   7.275   6.294   5.162
   42POPC   H7R 5552   7.356   6.361   5.126
   42POPC   H7S 5553   7.178   6.342   5.138
   42POPC   C28 5554   7.282   6.161   5.084
   42POPC   H8R 5555   7.379   6.110   5.102
   42POPC   H8S 5556   7.280   6.184   4.975
   42POPC   C29 5557   7.167   6.073   5.124
   42POPC   H91 5558   7.185   6.009   5.212
   42POPC  C210 5559   7.046   6.073   5.067
   42POPC  H101 5560   6.969   6.003   5.102
   42POPC  C211 5561   7.006   6.162   4.952
   42POPC  H11R 5562   7.077   6.246   4.934
   42POPC  H11S 5563   6.908   6.210   4.975
   42POPC  C212 5564   6.990   6.081   4.823
   42POPC  H12R 5565   6.947   6.147   4.744
   42POPC  H12S 5566   6.918   5.998   4.843
   42POPC  C213 5567   7.116   6.016   4.764
   42POPC  H13R 5568   7.177   5.968   4.843
   42POPC  H13S 5569   7.177   6.096   4.717
   42POPC  C214 5570   7.077   5.910   4.659
   42POPC  H14R 5571   6.984   5.942   4.607
   42POPC  H14S 5572   7.052   5.816   4.712
   42POPC  C215 5573   7.187   5.884   4.556
   42POPC  H15R 5574   7.266   5.826   4.607
   42POPC  H15S 5575   7.236   5.981   4.530
   42POPC  C216 5576   7.154   5.809   4.426
   42POPC  H16R 5577   7.244   5.748   4.401
   42POPC  H16S 5578   7.145   5.881   4.342
   42POPC  C217 5579   7.034   5.714   4.426
   42POPC  H17R 5580   6.998   5.698   4.530
   42POPC  H17S 5581   7.069   5.614   4.391
   42POPC  C218 5582   6.918   5.758   4.335
   42POPC  H18R 5583   6.852   5.672   4.312
   42POPC  H18S 5584   6.956   5.797   4.238
   42POPC  H18T 5585   6.857   5.838   4.383
   42POPC   C33 5586   7.094   5.707   5.347
   42POPC   H3X 5587   7.043   5.608   5.350
   42POPC   H3Y 5588   7.185   5.699   5.411
   42POPC   C34 5589   7.137   5.731   5.203
   42POPC   H4X 5590   7.214   5.811   5.199
   42POPC   H4Y 5591   7.049   5.763   5.143
   42POPC   C35 5592   7.195   5.603   5.144
   42POPC   H5X 5593   7.123   5.520   5.164
   42POPC   H5Y 5594   7.290   5.576   5.195
   42POPC   C36 5595   7.213   5.615   4.994
   42POPC   H6X 5596   7.122   5.660   4.948
   42POPC   H6Y 5597   7.224   5.512   4.952
   42POPC   C37 5598   7.336   5.698   4.954
   42POPC   H7X 5599   7.425   5.665   5.012
   42POPC   H7Y 5600   7.317   5.805   4.977
   42POPC   C38 5601   7.359   5.677   4.805
   42POPC   H8X 5602   7.263   5.702   4.756
   42POPC   H8Y 5603   7.376   5.569   4.786
   42POPC   C39 5604   7.476   5.753   4.740
   42POPC   H9X 5605   7.467   5.735   4.631
   42POPC   H9Y 5606   7.572   5.707   4.772
   42POPC  C310 5607   7.485   5.905   4.764
   42POPC  H10X 5608   7.505   5.920   4.872
   42POPC  H10Y 5609   7.390   5.956   4.741
   42POPC  C311 5610   7.600   5.969   4.683
   42POPC  H11X 5611   7.686   5.899   4.679
   42POPC  H11Y 5612   7.634   6.059   4.740
   42POPC  C312 5613   7.565   6.019   4.541
   42POPC  H12X 5614   7.656   6.067   4.498
   42POPC  H12Y 5615   7.487   6.098   4.550
   42POPC  C313 5616   7.513   5.916   4.439
   42POPC  H13X 5617   7.492   5.970   4.344
   42POPC  H13Y 5618   7.416   5.877   4.472
   42POPC  C314 5619   7.600   5.792   4.410
   42POPC  H14X 5620   7.641   5.748   4.503
   42POPC  H14Y 5621   7.687   5.824   4.350
   42POPC  C315 5622   7.520   5.685   4.334
   42POPC  H15X 5623   7.451   5.736   4.263
   42POPC  H15Y 5624   7.458   5.627   4.406
   42POPC  C316 5625   7.605   5.588   4.253
   42POPC  H16X 5626   7.544   5.509   4.204
   42POPC  H16Y 5627   7.682   5.540   4.316
   42POPC  H16Z 5628   7.656   5.646   4.172
   43POPC     N 5629   2.230   6.669   6.138
   43POPC   C12 5630   2.309   6.569   6.055
   43POPC  H12A 5631   2.400   6.619   6.020
   43POPC  H12B 5632   2.257   6.542   5.964
   43POPC   C13 5633   2.323   6.716   6.246
   43POPC  H13A 5634   2.399   6.781   6.205
   43POPC  H13B 5635   2.270   6.770   6.324
   43POPC  H13C 5636   2.374   6.631   6.290
   43POPC   C14 5637   2.190   6.790   6.059
   43POPC  H14A 5638   2.275   6.833   6.006
   43POPC  H14B 5639   2.111   6.768   5.988
   43POPC  H14C 5640   2.150   6.868   6.123
   43POPC   C15 5641   2.108   6.609   6.201
   43POPC  H15A 5642   2.036   6.573   6.126
   43POPC  H15B 5643   2.053   6.682   6.260
   43POPC  H15C 5644   2.136   6.530   6.268
   43POPC   C11 5645   2.359   6.439   6.125
   43POPC  H11A 5646   2.391   6.366   6.045
   43POPC  H11B 5647   2.274   6.391   6.178
   43POPC     P 5648   2.612   6.488   6.160
   43POPC   O13 5649   2.650   6.378   6.068
   43POPC   O14 5650   2.707   6.525   6.268
   43POPC   O12 5651   2.465   6.463   6.218
   43POPC   O11 5652   2.579   6.617   6.074
   43POPC    C1 5653   2.666   6.679   5.981
   43POPC    HA 5654   2.772   6.649   5.997
   43POPC    HB 5655   2.662   6.789   5.999
   43POPC    C2 5656   2.626   6.655   5.831
   43POPC    HS 5657   2.678   6.735   5.772
   43POPC   O21 5658   2.482   6.660   5.814
   43POPC   C21 5659   2.440   6.700   5.693
   43POPC   O22 5660   2.506   6.763   5.613
   43POPC   C22 5661   2.297   6.650   5.668
   43POPC   H2R 5662   2.234   6.693   5.749
   43POPC   H2S 5663   2.299   6.540   5.679
   43POPC    C3 5664   2.681   6.518   5.782
   43POPC    HX 5665   2.637   6.439   5.845
   43POPC    HY 5666   2.791   6.514   5.800
   43POPC   O31 5667   2.645   6.489   5.645
   43POPC   C31 5668   2.733   6.539   5.557
   43POPC   O32 5669   2.831   6.604   5.587
   43POPC   C32 5670   2.694   6.499   5.413
   43POPC   H2X 5671   2.587   6.472   5.410
   43POPC   H2Y 5672   2.754   6.409   5.388
   43POPC   C23 5673   2.238   6.691   5.530
   43POPC   H3R 5674   2.285   6.785   5.493
   43POPC   H3S 5675   2.130   6.710   5.543
   43POPC   C24 5676   2.255   6.583   5.421
   43POPC   H4R 5677   2.231   6.484   5.468
   43POPC   H4S 5678   2.361   6.578   5.391
   43POPC   C25 5679   2.163   6.594   5.297
   43POPC   H5R 5680   2.056   6.594   5.329
   43POPC   H5S 5681   2.179   6.502   5.236
   43POPC   C26 5682   2.183   6.713   5.199
   43POPC   H6R 5683   2.144   6.806   5.245
   43POPC   H6S 5684   2.122   6.694   5.108
   43POPC   C27 5685   2.329   6.736   5.155
   43POPC   H7R 5686   2.392   6.659   5.202
   43POPC   H7S 5687   2.362   6.832   5.200
   43POPC   C28 5688   2.355   6.734   5.002
   43POPC   H8R 5689   2.282   6.799   4.949
   43POPC   H8S 5690   2.340   6.631   4.965
   43POPC   C29 5691   2.497   6.781   4.981
   43POPC   H91 5692   2.549   6.789   5.077
   43POPC  C210 5693   2.566   6.819   4.871
   43POPC  H101 5694   2.669   6.854   4.886
   43POPC  C211 5695   2.521   6.828   4.728
   43POPC  H11R 5696   2.480   6.928   4.707
   43POPC  H11S 5697   2.441   6.755   4.702
   43POPC  C212 5698   2.642   6.816   4.633
   43POPC  H12R 5699   2.729   6.872   4.672
   43POPC  H12S 5700   2.615   6.866   4.537
   43POPC  C213 5701   2.678   6.670   4.610
   43POPC  H13R 5702   2.594   6.610   4.650
   43POPC  H13S 5703   2.769   6.645   4.669
   43POPC  C214 5704   2.697   6.626   4.464
   43POPC  H14R 5705   2.708   6.515   4.461
   43POPC  H14S 5706   2.791   6.670   4.425
   43POPC  C215 5707   2.579   6.664   4.373
   43POPC  H15R 5708   2.572   6.774   4.365
   43POPC  H15S 5709   2.484   6.628   4.418
   43POPC  C216 5710   2.590   6.609   4.231
   43POPC  H16R 5711   2.513   6.661   4.171
   43POPC  H16S 5712   2.567   6.500   4.233
   43POPC  C217 5713   2.726   6.628   4.162
   43POPC  H17R 5714   2.718   6.592   4.057
   43POPC  H17S 5715   2.801   6.563   4.213
   43POPC  C218 5716   2.775   6.773   4.161
   43POPC  H18R 5717   2.880   6.775   4.126
   43POPC  H18S 5718   2.773   6.817   4.263
   43POPC  H18T 5719   2.713   6.836   4.095
   43POPC   C33 5720   2.722   6.615   5.313
   43POPC   H3X 5721   2.823   6.658   5.336
   43POPC   H3Y 5722   2.648   6.696   5.334
   43POPC   C34 5723   2.722   6.584   5.161
   43POPC   H4X 5724   2.819   6.547   5.126
   43POPC   H4Y 5725   2.711   6.682   5.109
   43POPC   C35 5726   2.617   6.485   5.109
   43POPC   H5X 5727   2.516   6.523   5.135
   43POPC   H5Y 5728   2.628   6.386   5.158
   43POPC   C36 5729   2.620   6.467   4.955
   43POPC   H6X 5730   2.619   6.564   4.903
   43POPC   H6Y 5731   2.526   6.414   4.928
   43POPC   C37 5732   2.742   6.390   4.902
   43POPC   H7X 5733   2.754   6.298   4.962
   43POPC   H7Y 5734   2.834   6.450   4.919
   43POPC   C38 5735   2.734   6.352   4.753
   43POPC   H8X 5736   2.796   6.262   4.737
   43POPC   H8Y 5737   2.780   6.433   4.692
   43POPC   C39 5738   2.592   6.326   4.698
   43POPC   H9X 5739   2.538   6.422   4.687
   43POPC   H9Y 5740   2.532   6.264   4.768
   43POPC  C310 5741   2.595   6.254   4.563
   43POPC  H10X 5742   2.604   6.145   4.579
   43POPC  H10Y 5743   2.686   6.288   4.507
   43POPC  C311 5744   2.473   6.283   4.475
   43POPC  H11X 5745   2.466   6.393   4.459
   43POPC  H11Y 5746   2.379   6.251   4.525
   43POPC  C312 5747   2.489   6.213   4.339
   43POPC  H12X 5748   2.470   6.105   4.350
   43POPC  H12Y 5749   2.596   6.225   4.310
   43POPC  C313 5750   2.403   6.272   4.226
   43POPC  H13X 5751   2.381   6.378   4.251
   43POPC  H13Y 5752   2.306   6.218   4.220
   43POPC  C314 5753   2.479   6.266   4.092
   43POPC  H14X 5754   2.491   6.159   4.064
   43POPC  H14Y 5755   2.580   6.309   4.108
   43POPC  C315 5756   2.416   6.342   3.976
   43POPC  H15X 5757   2.313   6.307   3.963
   43POPC  H15Y 5758   2.470   6.319   3.881
   43POPC  C316 5759   2.408   6.493   3.992
   43POPC  H16X 5760   2.332   6.536   3.924
   43POPC  H16Y 5761   2.506   6.540   3.971
   43POPC  H16Z 5762   2.376   6.521   4.095
   44POPC     N 5763   3.019   6.961   6.197
   44POPC   C12 5764   2.990   7.054   6.080
   44POPC  H12A 5765   2.929   7.138   6.114
   44POPC  H12B 5766   2.932   6.999   6.008
   44POPC   C13 5767   3.073   7.042   6.310
   44POPC  H13A 5768   3.101   6.983   6.396
   44POPC  H13B 5769   3.162   7.097   6.277
   44POPC  H13C 5770   3.005   7.121   6.341
   44POPC   C14 5771   2.896   6.891   6.246
   44POPC  H14A 5772   2.824   6.963   6.283
   44POPC  H14B 5773   2.849   6.829   6.171
   44POPC  H14C 5774   2.921   6.825   6.330
   44POPC   C15 5775   3.121   6.859   6.156
   44POPC  H15A 5776   3.093   6.807   6.065
   44POPC  H15B 5777   3.136   6.784   6.233
   44POPC  H15C 5778   3.216   6.908   6.137
   44POPC   C11 5779   3.114   7.117   6.010
   44POPC  H11A 5780   3.083   7.171   5.918
   44POPC  H11B 5781   3.183   7.038   5.973
   44POPC     P 5782   3.127   7.345   6.135
   44POPC   O13 5783   3.231   7.448   6.122
   44POPC   O14 5784   3.065   7.329   6.270
   44POPC   O12 5785   3.188   7.204   6.096
   44POPC   O11 5786   3.014   7.359   6.026
   44POPC    C1 5787   2.908   7.452   6.042
   44POPC    HA 5788   2.934   7.535   6.112
   44POPC    HB 5789   2.820   7.399   6.085
   44POPC    C2 5790   2.869   7.513   5.905
   44POPC    HS 5791   2.765   7.551   5.917
   44POPC   O21 5792   2.874   7.418   5.797
   44POPC   C21 5793   2.808   7.307   5.813
   44POPC   O22 5794   2.718   7.285   5.893
   44POPC   C22 5795   2.864   7.202   5.718
   44POPC   H2R 5796   2.954   7.158   5.764
   44POPC   H2S 5797   2.895   7.253   5.624
   44POPC    C3 5798   2.959   7.635   5.868
   44POPC    HX 5799   2.953   7.708   5.952
   44POPC    HY 5800   2.916   7.686   5.780
   44POPC   O31 5801   3.098   7.598   5.851
   44POPC   C31 5802   3.142   7.594   5.727
   44POPC   O32 5803   3.086   7.641   5.630
   44POPC   C32 5804   3.269   7.512   5.716
   44POPC   H2X 5805   3.271   7.438   5.798
   44POPC   H2Y 5806   3.355   7.581   5.728
   44POPC   C23 5807   2.762   7.090   5.687
   44POPC   H3R 5808   2.740   7.031   5.778
   44POPC   H3S 5809   2.809   7.020   5.612
   44POPC   C24 5810   2.631   7.143   5.627
   44POPC   H4R 5811   2.572   7.196   5.705
   44POPC   H4S 5812   2.571   7.056   5.594
   44POPC   C25 5813   2.652   7.238   5.508
   44POPC   H5R 5814   2.711   7.327   5.537
   44POPC   H5S 5815   2.553   7.276   5.478
   44POPC   C26 5816   2.720   7.165   5.390
   44POPC   H6R 5817   2.678   7.062   5.387
   44POPC   H6S 5818   2.829   7.154   5.411
   44POPC   C27 5819   2.699   7.232   5.254
   44POPC   H7R 5820   2.738   7.336   5.258
   44POPC   H7S 5821   2.590   7.243   5.236
   44POPC   C28 5822   2.762   7.158   5.133
   44POPC   H8R 5823   2.864   7.200   5.120
   44POPC   H8S 5824   2.705   7.187   5.042
   44POPC   C29 5825   2.769   7.008   5.145
   44POPC   H91 5826   2.676   6.954   5.119
   44POPC  C210 5827   2.875   6.935   5.188
   44POPC  H101 5828   2.865   6.826   5.198
   44POPC  C211 5829   3.008   6.990   5.233
   44POPC  H11R 5830   3.037   6.942   5.329
   44POPC  H11S 5831   3.001   7.099   5.254
   44POPC  C212 5832   3.121   6.971   5.131
   44POPC  H12R 5833   3.136   6.863   5.112
   44POPC  H12S 5834   3.215   7.010   5.176
   44POPC  C213 5835   3.092   7.047   5.000
   44POPC  H13R 5836   3.039   7.140   5.029
   44POPC  H13S 5837   3.020   6.989   4.939
   44POPC  C214 5838   3.215   7.096   4.921
   44POPC  H14R 5839   3.299   7.115   4.992
   44POPC  H14S 5840   3.188   7.195   4.877
   44POPC  C215 5841   3.266   7.010   4.805
   44POPC  H15R 5842   3.325   6.925   4.846
   44POPC  H15S 5843   3.337   7.070   4.743
   44POPC  C216 5844   3.159   6.951   4.712
   44POPC  H16R 5845   3.076   6.906   4.769
   44POPC  H16S 5846   3.208   6.869   4.655
   44POPC  C217 5847   3.098   7.050   4.614
   44POPC  H17R 5848   3.179   7.092   4.550
   44POPC  H17S 5849   3.054   7.133   4.673
   44POPC  C218 5850   2.990   6.986   4.526
   44POPC  H18R 5851   3.035   6.926   4.445
   44POPC  H18S 5852   2.925   7.063   4.479
   44POPC  H18T 5853   2.925   6.920   4.587
   44POPC   C33 5854   3.274   7.442   5.578
   44POPC   H3X 5855   3.371   7.389   5.570
   44POPC   H3Y 5856   3.270   7.518   5.496
   44POPC   C34 5857   3.160   7.341   5.559
   44POPC   H4X 5858   3.062   7.395   5.556
   44POPC   H4Y 5859   3.157   7.274   5.648
   44POPC   C35 5860   3.172   7.255   5.433
   44POPC   H5X 5861   3.090   7.179   5.435
   44POPC   H5Y 5862   3.268   7.199   5.436
   44POPC   C36 5863   3.163   7.332   5.300
   44POPC   H6X 5864   3.184   7.261   5.217
   44POPC   H6Y 5865   3.240   7.412   5.295
   44POPC   C37 5866   3.024   7.392   5.277
   44POPC   H7X 5867   3.006   7.475   5.348
   44POPC   H7Y 5868   2.951   7.312   5.302
   44POPC   C38 5869   2.995   7.438   5.133
   44POPC   H8X 5870   2.884   7.445   5.124
   44POPC   H8Y 5871   3.027   7.360   5.060
   44POPC   C39 5872   3.057   7.573   5.095
   44POPC   H9X 5873   3.159   7.555   5.053
   44POPC   H9Y 5874   3.069   7.634   5.187
   44POPC  C310 5875   2.974   7.658   4.995
   44POPC  H10X 5876   3.035   7.742   4.958
   44POPC  H10Y 5877   2.890   7.704   5.052
   44POPC  C311 5878   2.912   7.581   4.877
   44POPC  H11X 5879   2.825   7.639   4.838
   44POPC  H11Y 5880   2.872   7.483   4.910
   44POPC  C312 5881   3.009   7.560   4.759
   44POPC  H12X 5882   3.105   7.519   4.797
   44POPC  H12Y 5883   3.029   7.659   4.712
   44POPC  C313 5884   2.952   7.463   4.654
   44POPC  H13X 5885   2.850   7.496   4.624
   44POPC  H13Y 5886   2.943   7.362   4.701
   44POPC  C314 5887   3.041   7.453   4.529
   44POPC  H14X 5888   3.147   7.443   4.562
   44POPC  H14Y 5889   3.033   7.547   4.470
   44POPC  C315 5890   3.009   7.334   4.437
   44POPC  H15X 5891   3.025   7.244   4.496
   44POPC  H15Y 5892   3.084   7.330   4.355
   44POPC  C316 5893   2.868   7.328   4.378
   44POPC  H16X 5894   2.825   7.429   4.372
   44POPC  H16Y 5895   2.802   7.264   4.440
   44POPC  H16Z 5896   2.872   7.284   4.276
   45POPC     N 5897   7.383   6.647   6.161
   45POPC   C12 5898   7.261   6.572   6.110
   45POPC  H12A 5899   7.201   6.545   6.197
   45POPC  H12B 5900   7.295   6.484   6.058
   45POPC   C13 5901   7.338   6.753   6.257
   45POPC  H13A 5902   7.417   6.799   6.313
   45POPC  H13B 5903   7.282   6.829   6.201
   45POPC  H13C 5904   7.264   6.714   6.326
   45POPC   C14 5905   7.476   6.555   6.232
   45POPC  H14A 5906   7.559   6.609   6.278
   45POPC  H14B 5907   7.429   6.496   6.310
   45POPC  H14C 5908   7.526   6.485   6.164
   45POPC   C15 5909   7.456   6.713   6.048
   45POPC  H15A 5910   7.543   6.766   6.084
   45POPC  H15B 5911   7.389   6.786   6.002
   45POPC  H15C 5912   7.488   6.641   5.974
   45POPC   C11 5913   7.163   6.646   6.015
   45POPC  H11A 5914   7.078   6.577   5.993
   45POPC  H11B 5915   7.214   6.668   5.919
   45POPC     P 5916   7.007   6.781   6.185
   45POPC   O13 5917   7.049   6.901   6.258
   45POPC   O14 5918   7.014   6.655   6.266
   45POPC   O12 5919   7.114   6.767   6.068
   45POPC   O11 5920   6.867   6.797   6.114
   45POPC    C1 5921   6.856   6.859   5.986
   45POPC    HA 5922   6.950   6.908   5.952
   45POPC    HB 5923   6.778   6.939   5.992
   45POPC    C2 5924   6.810   6.759   5.875
   45POPC    HS 5925   6.700   6.749   5.888
   45POPC   O21 5926   6.875   6.632   5.893
   45POPC   C21 5927   6.821   6.541   5.817
   45POPC   O22 5928   6.711   6.547   5.764
   45POPC   C22 5929   6.921   6.426   5.794
   45POPC   H2R 5930   6.862   6.332   5.789
   45POPC   H2S 5931   6.991   6.419   5.879
   45POPC    C3 5932   6.843   6.814   5.733
   45POPC    HX 5933   6.800   6.916   5.728
   45POPC    HY 5934   6.792   6.753   5.655
   45POPC   O31 5935   6.986   6.821   5.715
   45POPC   C31 5936   7.036   6.808   5.593
   45POPC   O32 5937   6.973   6.786   5.491
   45POPC   C32 5938   7.185   6.838   5.605
   45POPC   H2X 5939   7.234   6.750   5.652
   45POPC   H2Y 5940   7.195   6.925   5.673
   45POPC   C23 5941   6.997   6.444   5.661
   45POPC   H3R 5942   7.076   6.366   5.650
   45POPC   H3S 5943   7.049   6.543   5.658
   45POPC   C24 5944   6.901   6.433   5.543
   45POPC   H4R 5945   6.822   6.511   5.553
   45POPC   H4S 5946   6.852   6.334   5.545
   45POPC   C25 5947   6.962   6.454   5.405
   45POPC   H5R 5948   6.997   6.356   5.366
   45POPC   H5S 5949   7.049   6.523   5.411
   45POPC   C26 5950   6.857   6.514   5.310
   45POPC   H6R 5951   6.851   6.625   5.325
   45POPC   H6S 5952   6.757   6.473   5.336
   45POPC   C27 5953   6.886   6.481   5.164
   45POPC   H7R 5954   6.799   6.507   5.100
   45POPC   H7S 5955   6.901   6.371   5.158
   45POPC   C28 5956   7.013   6.550   5.114
   45POPC   H8R 5957   7.065   6.479   5.047
   45POPC   H8S 5958   7.081   6.567   5.199
   45POPC   C29 5959   6.982   6.679   5.043
   45POPC   H91 5960   6.953   6.764   5.107
   45POPC  C210 5961   6.989   6.695   4.910
   45POPC  H101 5962   6.962   6.793   4.867
   45POPC  C211 5963   7.028   6.589   4.809
   45POPC  H11R 5964   7.056   6.491   4.852
   45POPC  H11S 5965   7.119   6.624   4.756
   45POPC  C212 5966   6.917   6.563   4.707
   45POPC  H12R 5967   6.857   6.656   4.696
   45POPC  H12S 5968   6.849   6.483   4.742
   45POPC  C213 5969   6.978   6.525   4.572
   45POPC  H13R 5970   7.019   6.422   4.579
   45POPC  H13S 5971   7.065   6.591   4.550
   45POPC  C214 5972   6.879   6.534   4.455
   45POPC  H14R 5973   6.819   6.441   4.458
   45POPC  H14S 5974   6.940   6.533   4.362
   45POPC  C215 5975   6.780   6.651   4.452
   45POPC  H15R 5976   6.834   6.748   4.452
   45POPC  H15S 5977   6.719   6.647   4.546
   45POPC  C216 5978   6.675   6.653   4.340
   45POPC  H16R 5979   6.626   6.751   4.356
   45POPC  H16S 5980   6.598   6.575   4.358
   45POPC  C217 5981   6.711   6.645   4.189
   45POPC  H17R 5982   6.752   6.742   4.156
   45POPC  H17S 5983   6.615   6.630   4.134
   45POPC  C218 5984   6.799   6.533   4.140
   45POPC  H18R 5985   6.775   6.437   4.189
   45POPC  H18S 5986   6.904   6.561   4.163
   45POPC  H18T 5987   6.793   6.519   4.030
   45POPC   C33 5988   7.253   6.872   5.472
   45POPC   H3X 5989   7.357   6.904   5.495
   45POPC   H3Y 5990   7.202   6.957   5.422
   45POPC   C34 5991   7.259   6.751   5.380
   45POPC   H4X 5992   7.158   6.732   5.336
   45POPC   H4Y 5993   7.289   6.660   5.436
   45POPC   C35 5994   7.359   6.775   5.268
   45POPC   H5X 5995   7.460   6.795   5.310
   45POPC   H5Y 5996   7.326   6.867   5.215
   45POPC   C36 5997   7.367   6.656   5.172
   45POPC   H6X 5998   7.265   6.628   5.139
   45POPC   H6Y 5999   7.410   6.568   5.224
   45POPC   C37 6000   7.446   6.689   5.047
   45POPC   H7X 6001   7.456   6.595   4.988
   45POPC   H7Y 6002   7.548   6.724   5.073
   45POPC   C38 6003   7.373   6.794   4.963
   45POPC   H8X 6004   7.364   6.891   5.016
   45POPC   H8Y 6005   7.270   6.757   4.942
   45POPC   C39 6006   7.444   6.813   4.831
   45POPC   H9X 6007   7.455   6.710   4.796
   45POPC   H9Y 6008   7.548   6.849   4.846
   45POPC  C310 6009   7.369   6.902   4.731
   45POPC  H10X 6010   7.439   6.930   4.649
   45POPC  H10Y 6011   7.339   6.997   4.781
   45POPC  C311 6012   7.245   6.839   4.667
   45POPC  H11X 6013   7.161   6.841   4.740
   45POPC  H11Y 6014   7.264   6.733   4.640
   45POPC  C312 6015   7.206   6.915   4.541
   45POPC  H12X 6016   7.291   6.914   4.469
   45POPC  H12Y 6017   7.193   7.020   4.572
   45POPC  C313 6018   7.080   6.865   4.469
   45POPC  H13X 6019   7.003   6.944   4.462
   45POPC  H13Y 6020   7.032   6.785   4.529
   45POPC  C314 6021   7.116   6.820   4.327
   45POPC  H14X 6022   7.161   6.718   4.331
   45POPC  H14Y 6023   7.191   6.890   4.285
   45POPC  C315 6024   6.998   6.821   4.229
   45POPC  H15X 6025   6.936   6.912   4.243
   45POPC  H15Y 6026   6.936   6.735   4.255
   45POPC  C316 6027   7.041   6.812   4.082
   45POPC  H16X 6028   6.954   6.793   4.015
   45POPC  H16Y 6029   7.115   6.730   4.068
   45POPC  H16Z 6030   7.088   6.907   4.049
   46POPC     N 6031   2.095   3.083   5.990
   46POPC   C12 6032   2.152   3.038   6.123
   46POPC  H12A 6033   2.121   3.113   6.197
   46POPC  H12B 6034   2.260   3.044   6.125
   46POPC   C13 6035   2.045   2.965   5.913
   46POPC  H13A 6036   2.124   2.898   5.887
   46POPC  H13B 6037   1.975   2.911   5.978
   46POPC  H13C 6038   1.991   2.995   5.825
   46POPC   C14 6039   1.978   3.171   6.022
   46POPC  H14A 6040   1.919   3.127   6.103
   46POPC  H14B 6041   2.011   3.268   6.059
   46POPC  H14C 6042   1.914   3.186   5.937
   46POPC   C15 6043   2.189   3.162   5.905
   46POPC  H15A 6044   2.229   3.247   5.960
   46POPC  H15B 6045   2.136   3.202   5.819
   46POPC  H15C 6046   2.270   3.101   5.866
   46POPC   C11 6047   2.103   2.899   6.174
   46POPC  H11A 6048   2.149   2.881   6.275
   46POPC  H11B 6049   2.145   2.820   6.108
   46POPC     P 6050   1.888   2.953   6.304
   46POPC   O13 6051   1.926   3.097   6.309
   46POPC   O14 6052   1.919   2.865   6.419
   46POPC   O12 6053   1.959   2.888   6.176
   46POPC   O11 6054   1.734   2.941   6.275
   46POPC    C1 6055   1.657   2.990   6.167
   46POPC    HA 6056   1.713   3.058   6.100
   46POPC    HB 6057   1.571   3.046   6.209
   46POPC    C2 6058   1.601   2.870   6.087
   46POPC    HS 6059   1.567   2.798   6.165
   46POPC   O21 6060   1.710   2.822   6.004
   46POPC   C21 6061   1.730   2.693   6.016
   46POPC   O22 6062   1.656   2.615   6.074
   46POPC   C22 6063   1.863   2.650   5.953
   46POPC   H2R 6064   1.874   2.542   5.973
   46POPC   H2S 6065   1.942   2.704   6.009
   46POPC    C3 6066   1.475   2.904   6.001
   46POPC    HX 6067   1.398   2.948   6.068
   46POPC    HY 6068   1.429   2.809   5.963
   46POPC   O31 6069   1.507   2.998   5.897
   46POPC   C31 6070   1.534   2.941   5.779
   46POPC   O32 6071   1.514   2.825   5.751
   46POPC   C32 6072   1.597   3.043   5.685
   46POPC   H2X 6073   1.586   3.145   5.727
   46POPC   H2Y 6074   1.543   3.038   5.588
   46POPC   C23 6075   1.878   2.677   5.801
   46POPC   H3R 6076   1.981   2.647   5.772
   46POPC   H3S 6077   1.867   2.785   5.779
   46POPC   C24 6078   1.780   2.599   5.711
   46POPC   H4R 6079   1.679   2.644   5.723
   46POPC   H4S 6080   1.773   2.493   5.741
   46POPC   C25 6081   1.821   2.608   5.563
   46POPC   H5R 6082   1.903   2.535   5.543
   46POPC   H5S 6083   1.862   2.710   5.545
   46POPC   C26 6084   1.706   2.584   5.464
   46POPC   H6R 6085   1.624   2.656   5.488
   46POPC   H6S 6086   1.664   2.482   5.480
   46POPC   C27 6087   1.746   2.599   5.316
   46POPC   H7R 6088   1.656   2.584   5.253
   46POPC   H7S 6089   1.818   2.517   5.292
   46POPC   C28 6090   1.812   2.734   5.278
   46POPC   H8R 6091   1.839   2.729   5.170
   46POPC   H8S 6092   1.907   2.743   5.334
   46POPC   C29 6093   1.724   2.854   5.307
   46POPC   H91 6094   1.681   2.855   5.408
   46POPC  C210 6095   1.695   2.955   5.222
   46POPC  H101 6096   1.628   3.036   5.256
   46POPC  C211 6097   1.746   2.967   5.081
   46POPC  H11R 6098   1.696   2.887   5.021
   46POPC  H11S 6099   1.854   2.944   5.076
   46POPC  C212 6100   1.723   3.102   5.005
   46POPC  H12R 6101   1.822   3.147   4.984
   46POPC  H12S 6102   1.667   3.175   5.068
   46POPC  C213 6103   1.649   3.078   4.872
   46POPC  H13R 6104   1.539   3.077   4.891
   46POPC  H13S 6105   1.677   2.976   4.835
   46POPC  C214 6106   1.678   3.173   4.755
   46POPC  H14R 6107   1.787   3.192   4.745
   46POPC  H14S 6108   1.630   3.271   4.774
   46POPC  C215 6109   1.625   3.113   4.623
   46POPC  H15R 6110   1.524   3.071   4.642
   46POPC  H15S 6111   1.692   3.029   4.595
   46POPC  C216 6112   1.613   3.212   4.506
   46POPC  H16R 6113   1.714   3.249   4.479
   46POPC  H16S 6114   1.552   3.299   4.538
   46POPC  C217 6115   1.546   3.151   4.381
   46POPC  H17R 6116   1.555   3.225   4.298
   46POPC  H17S 6117   1.438   3.137   4.402
   46POPC  C218 6118   1.604   3.017   4.334
   46POPC  H18R 6119   1.714   3.022   4.326
   46POPC  H18S 6120   1.563   2.990   4.234
   46POPC  H18T 6121   1.577   2.935   4.405
   46POPC   C33 6122   1.745   3.008   5.664
   46POPC   H3X 6123   1.753   2.905   5.620
   46POPC   H3Y 6124   1.796   3.005   5.763
   46POPC   C34 6125   1.821   3.104   5.573
   46POPC   H4X 6126   1.825   3.205   5.620
   46POPC   H4Y 6127   1.767   3.115   5.476
   46POPC   C35 6128   1.964   3.054   5.545
   46POPC   H5X 6129   1.958   2.961   5.483
   46POPC   H5Y 6130   2.010   3.025   5.642
   46POPC   C36 6131   2.055   3.156   5.477
   46POPC   H6X 6132   2.160   3.122   5.487
   46POPC   H6Y 6133   2.046   3.254   5.530
   46POPC   C37 6134   2.026   3.176   5.328
   46POPC   H7X 6135   1.922   3.214   5.314
   46POPC   H7Y 6136   2.032   3.077   5.277
   46POPC   C38 6137   2.126   3.273   5.264
   46POPC   H8X 6138   2.228   3.232   5.276
   46POPC   H8Y 6139   2.121   3.369   5.320
   46POPC   C39 6140   2.101   3.303   5.115
   46POPC   H9X 6141   2.178   3.377   5.082
   46POPC   H9Y 6142   2.001   3.350   5.103
   46POPC  C310 6143   2.111   3.178   5.026
   46POPC  H10X 6144   2.028   3.109   5.053
   46POPC  H10Y 6145   2.207   3.126   5.048
   46POPC  C311 6146   2.105   3.210   4.876
   46POPC  H11X 6147   2.186   3.283   4.852
   46POPC  H11Y 6148   2.008   3.260   4.854
   46POPC  C312 6149   2.121   3.087   4.786
   46POPC  H12X 6150   2.218   3.038   4.809
   46POPC  H12Y 6151   2.123   3.121   4.681
   46POPC  C313 6152   2.008   2.984   4.803
   46POPC  H13X 6153   1.911   3.034   4.787
   46POPC  H13Y 6154   2.009   2.947   4.908
   46POPC  C314 6155   2.014   2.861   4.711
   46POPC  H14X 6156   1.934   2.791   4.745
   46POPC  H14Y 6157   2.111   2.808   4.722
   46POPC  C315 6158   1.987   2.891   4.562
   46POPC  H15X 6159   1.923   2.981   4.553
   46POPC  H15Y 6160   1.929   2.806   4.520
   46POPC  C316 6161   2.113   2.907   4.477
   46POPC  H16X 6162   2.173   2.994   4.511
   46POPC  H16Y 6163   2.086   2.924   4.370
   46POPC  H16Z 6164   2.177   2.816   4.483
   47POPC     N 6165   1.767   6.094   6.015
   47POPC   C12 6166   1.693   5.963   6.038
   47POPC  H12A 6167   1.762   5.881   6.019
   47POPC  H12B 6168   1.613   5.955   5.966
   47POPC   C13 6169   1.679   6.213   6.040
   47POPC  H13A 6170   1.732   6.307   6.035
   47POPC  H13B 6171   1.600   6.220   5.965
   47POPC  H13C 6172   1.626   6.207   6.133
   47POPC   C14 6173   1.887   6.098   6.105
   47POPC  H14A 6174   1.854   6.076   6.206
   47POPC  H14B 6175   1.957   6.019   6.081
   47POPC  H14C 6176   1.935   6.195   6.105
   47POPC   C15 6177   1.810   6.105   5.874
   47POPC  H15A 6178   1.868   6.021   5.842
   47POPC  H15B 6179   1.869   6.195   5.859
   47POPC  H15C 6180   1.723   6.119   5.810
   47POPC   C11 6181   1.638   5.938   6.179
   47POPC  H11A 6182   1.568   5.850   6.176
   47POPC  H11B 6183   1.577   6.024   6.214
   47POPC     P 6184   1.805   5.771   6.294
   47POPC   O13 6185   1.721   5.692   6.389
   47POPC   O14 6186   1.951   5.777   6.321
   47POPC   O12 6187   1.745   5.917   6.271
   47POPC   O11 6188   1.789   5.706   6.148
   47POPC    C1 6189   1.868   5.589   6.120
   47POPC    HA 6190   1.807   5.498   6.137
   47POPC    HB 6191   1.957   5.579   6.187
   47POPC    C2 6192   1.929   5.583   5.977
   47POPC    HS 6193   2.009   5.505   5.978
   47POPC   O21 6194   1.986   5.712   5.950
   47POPC   C21 6195   2.046   5.728   5.835
   47POPC   O22 6196   2.063   5.642   5.750
   47POPC   C22 6197   2.086   5.876   5.829
   47POPC   H2R 6198   2.197   5.880   5.835
   47POPC   H2S 6199   2.045   5.928   5.917
   47POPC    C3 6200   1.823   5.540   5.869
   47POPC    HX 6201   1.755   5.466   5.916
   47POPC    HY 6202   1.879   5.486   5.789
   47POPC   O31 6203   1.752   5.649   5.807
   47POPC   C31 6204   1.621   5.643   5.795
   47POPC   O32 6205   1.546   5.564   5.850
   47POPC   C32 6206   1.578   5.752   5.701
   47POPC   H2X 6207   1.641   5.743   5.610
   47POPC   H2Y 6208   1.598   5.850   5.748
   47POPC   C23 6209   2.037   5.949   5.702
   47POPC   H3R 6210   2.114   5.931   5.625
   47POPC   H3S 6211   2.035   6.059   5.717
   47POPC   C24 6212   1.902   5.899   5.647
   47POPC   H4R 6213   1.815   5.918   5.712
   47POPC   H4S 6214   1.906   5.789   5.637
   47POPC   C25 6215   1.876   5.954   5.508
   47POPC   H5R 6216   1.971   5.993   5.465
   47POPC   H5S 6217   1.802   6.037   5.507
   47POPC   C26 6218   1.832   5.839   5.419
   47POPC   H6R 6219   1.733   5.798   5.446
   47POPC   H6S 6220   1.905   5.755   5.430
   47POPC   C27 6221   1.827   5.878   5.274
   47POPC   H7R 6222   1.892   5.968   5.256
   47POPC   H7S 6223   1.725   5.908   5.248
   47POPC   C28 6224   1.879   5.765   5.185
   47POPC   H8R 6225   1.986   5.751   5.212
   47POPC   H8S 6226   1.873   5.812   5.085
   47POPC   C29 6227   1.816   5.629   5.182
   47POPC   H91 6228   1.820   5.573   5.277
   47POPC  C210 6229   1.762   5.572   5.072
   47POPC  H101 6230   1.727   5.468   5.079
   47POPC  C211 6231   1.754   5.635   4.935
   47POPC  H11R 6232   1.790   5.566   4.857
   47POPC  H11S 6233   1.819   5.724   4.923
   47POPC  C212 6234   1.609   5.677   4.904
   47POPC  H12R 6235   1.611   5.744   4.815
   47POPC  H12S 6236   1.568   5.737   4.988
   47POPC  C213 6237   1.517   5.558   4.875
   47POPC  H13R 6238   1.414   5.597   4.858
   47POPC  H13S 6239   1.514   5.491   4.964
   47POPC  C214 6240   1.559   5.476   4.752
   47POPC  H14R 6241   1.480   5.401   4.732
   47POPC  H14S 6242   1.652   5.420   4.774
   47POPC  C215 6243   1.580   5.563   4.627
   47POPC  H15R 6244   1.679   5.614   4.631
   47POPC  H15S 6245   1.502   5.642   4.626
   47POPC  C216 6246   1.569   5.481   4.498
   47POPC  H16R 6247   1.486   5.409   4.512
   47POPC  H16S 6248   1.661   5.421   4.490
   47POPC  C217 6249   1.546   5.561   4.369
   47POPC  H17R 6250   1.439   5.594   4.370
   47POPC  H17S 6251   1.555   5.493   4.281
   47POPC  C218 6252   1.637   5.681   4.344
   47POPC  H18R 6253   1.586   5.756   4.281
   47POPC  H18S 6254   1.727   5.654   4.288
   47POPC  H18T 6255   1.667   5.729   4.440
   47POPC   C33 6256   1.431   5.740   5.662
   47POPC   H3X 6257   1.367   5.728   5.753
   47POPC   H3Y 6258   1.415   5.651   5.597
   47POPC   C34 6259   1.385   5.863   5.587
   47POPC   H4X 6260   1.403   5.952   5.652
   47POPC   H4Y 6261   1.276   5.855   5.564
   47POPC   C35 6262   1.460   5.891   5.457
   47POPC   H5X 6263   1.469   5.800   5.394
   47POPC   H5Y 6264   1.563   5.927   5.482
   47POPC   C36 6265   1.387   6.001   5.381
   47POPC   H6X 6266   1.362   6.082   5.455
   47POPC   H6Y 6267   1.291   5.962   5.342
   47POPC   C37 6268   1.472   6.068   5.273
   47POPC   H7X 6269   1.567   6.098   5.323
   47POPC   H7Y 6270   1.419   6.158   5.237
   47POPC   C38 6271   1.507   5.990   5.147
   47POPC   H8X 6272   1.417   5.976   5.083
   47POPC   H8Y 6273   1.545   5.889   5.172
   47POPC   C39 6274   1.610   6.074   5.070
   47POPC   H9X 6275   1.692   6.108   5.137
   47POPC   H9Y 6276   1.556   6.163   5.031
   47POPC  C310 6277   1.671   6.000   4.952
   47POPC  H10X 6278   1.584   5.959   4.895
   47POPC  H10Y 6279   1.730   5.913   4.987
   47POPC  C311 6280   1.756   6.086   4.858
   47POPC  H11X 6281   1.863   6.081   4.884
   47POPC  H11Y 6282   1.723   6.192   4.863
   47POPC  C312 6283   1.730   6.034   4.717
   47POPC  H12X 6284   1.621   6.042   4.706
   47POPC  H12Y 6285   1.759   5.926   4.710
   47POPC  C313 6286   1.789   6.112   4.601
   47POPC  H13X 6287   1.762   6.220   4.605
   47POPC  H13Y 6288   1.745   6.071   4.507
   47POPC  C314 6289   1.940   6.091   4.598
   47POPC  H14X 6290   1.957   5.982   4.614
   47POPC  H14Y 6291   1.987   6.149   4.681
   47POPC  C315 6292   2.000   6.128   4.465
   47POPC  H15X 6293   2.108   6.150   4.475
   47POPC  H15Y 6294   1.948   6.222   4.436
   47POPC  C316 6295   1.978   6.022   4.357
   47POPC  H16X 6296   2.033   5.929   4.380
   47POPC  H16Y 6297   2.014   6.060   4.259
   47POPC  H16Z 6298   1.871   5.996   4.346
   48POPC     N 6299   3.727   1.373   6.149
   48POPC   C12 6300   3.844   1.422   6.065
   48POPC  H12A 6301   3.813   1.512   6.011
   48POPC  H12B 6302   3.867   1.348   5.989
   48POPC   C13 6303   3.658   1.495   6.203
   48POPC  H13A 6304   3.619   1.557   6.123
   48POPC  H13B 6305   3.582   1.471   6.275
   48POPC  H13C 6306   3.732   1.560   6.252
   48POPC   C14 6307   3.634   1.294   6.065
   48POPC  H14A 6308   3.542   1.269   6.118
   48POPC  H14B 6309   3.604   1.343   5.973
   48POPC  H14C 6310   3.674   1.197   6.037
   48POPC   C15 6311   3.771   1.293   6.267
   48POPC  H15A 6312   3.816   1.361   6.338
   48POPC  H15B 6313   3.845   1.221   6.238
   48POPC  H15C 6314   3.689   1.241   6.315
   48POPC   C11 6315   3.974   1.461   6.139
   48POPC  H11A 6316   4.054   1.484   6.065
   48POPC  H11B 6317   4.012   1.374   6.197
   48POPC     P 6318   3.939   1.718   6.172
   48POPC   O13 6319   3.995   1.808   6.275
   48POPC   O14 6320   3.795   1.743   6.143
   48POPC   O12 6321   3.951   1.570   6.228
   48POPC   O11 6322   4.028   1.717   6.037
   48POPC    C1 6323   4.158   1.776   6.046
   48POPC    HA 6324   4.215   1.727   6.128
   48POPC    HB 6325   4.150   1.884   6.075
   48POPC    C2 6326   4.253   1.775   5.920
   48POPC    HS 6327   4.336   1.843   5.948
   48POPC   O21 6328   4.193   1.813   5.794
   48POPC   C21 6329   4.229   1.934   5.748
   48POPC   O22 6330   4.300   2.014   5.806
   48POPC   C22 6331   4.167   1.961   5.613
   48POPC   H2R 6332   4.190   1.874   5.548
   48POPC   H2S 6333   4.213   2.052   5.569
   48POPC    C3 6334   4.321   1.636   5.898
   48POPC    HX 6335   4.371   1.612   5.994
   48POPC    HY 6336   4.400   1.657   5.823
   48POPC   O31 6337   4.236   1.527   5.858
   48POPC   C31 6338   4.281   1.452   5.757
   48POPC   O32 6339   4.393   1.456   5.711
   48POPC   C32 6340   4.171   1.353   5.715
   48POPC   H2X 6341   4.089   1.358   5.790
   48POPC   H2Y 6342   4.214   1.251   5.716
   48POPC   C23 6343   4.018   1.981   5.639
   48POPC   H3R 6344   3.996   2.083   5.676
   48POPC   H3S 6345   3.987   1.910   5.719
   48POPC   C24 6346   3.929   1.943   5.523
   48POPC   H4R 6347   3.955   2.004   5.434
   48POPC   H4S 6348   3.823   1.965   5.549
   48POPC   C25 6349   3.939   1.792   5.500
   48POPC   H5R 6350   3.938   1.739   5.598
   48POPC   H5S 6351   4.036   1.766   5.452
   48POPC   C26 6352   3.823   1.743   5.415
   48POPC   H6R 6353   3.728   1.757   5.472
   48POPC   H6S 6354   3.836   1.634   5.399
   48POPC   C27 6355   3.816   1.816   5.281
   48POPC   H7R 6356   3.776   1.918   5.299
   48POPC   H7S 6357   3.743   1.764   5.215
   48POPC   C28 6358   3.954   1.826   5.212
   48POPC   H8R 6359   4.002   1.727   5.201
   48POPC   H8S 6360   4.022   1.888   5.274
   48POPC   C29 6361   3.939   1.898   5.083
   48POPC   H91 6362   3.851   1.965   5.079
   48POPC  C210 6363   4.015   1.887   4.974
   48POPC  H101 6364   3.992   1.959   4.895
   48POPC  C211 6365   4.135   1.804   4.941
   48POPC  H11R 6366   4.133   1.709   5.000
   48POPC  H11S 6367   4.229   1.858   4.966
   48POPC  C212 6368   4.138   1.760   4.793
   48POPC  H12R 6369   4.072   1.670   4.790
   48POPC  H12S 6370   4.240   1.728   4.764
   48POPC  C213 6371   4.081   1.848   4.681
   48POPC  H13R 6372   4.000   1.918   4.710
   48POPC  H13S 6373   4.029   1.775   4.614
   48POPC  C214 6374   4.184   1.922   4.596
   48POPC  H14R 6375   4.273   1.947   4.658
   48POPC  H14S 6376   4.142   2.018   4.558
   48POPC  C215 6377   4.220   1.839   4.472
   48POPC  H15R 6378   4.144   1.759   4.456
   48POPC  H15S 6379   4.313   1.785   4.490
   48POPC  C216 6380   4.226   1.914   4.340
   48POPC  H16R 6381   4.123   1.925   4.302
   48POPC  H16S 6382   4.278   1.844   4.271
   48POPC  C217 6383   4.293   2.053   4.339
   48POPC  H17R 6384   4.389   2.045   4.281
   48POPC  H17S 6385   4.322   2.081   4.442
   48POPC  C218 6386   4.208   2.166   4.278
   48POPC  H18R 6387   4.269   2.230   4.211
   48POPC  H18S 6388   4.163   2.229   4.357
   48POPC  H18T 6389   4.125   2.124   4.216
   48POPC   C33 6390   4.113   1.386   5.576
   48POPC   H3X 6391   4.188   1.361   5.497
   48POPC   H3Y 6392   4.094   1.496   5.570
   48POPC   C34 6393   3.980   1.317   5.546
   48POPC   H4X 6394   3.906   1.347   5.623
   48POPC   H4Y 6395   3.991   1.206   5.550
   48POPC   C35 6396   3.927   1.357   5.407
   48POPC   H5X 6397   3.983   1.301   5.329
   48POPC   H5Y 6398   3.951   1.464   5.393
   48POPC   C36 6399   3.776   1.335   5.388
   48POPC   H6X 6400   3.720   1.407   5.452
   48POPC   H6Y 6401   3.750   1.232   5.421
   48POPC   C37 6402   3.729   1.352   5.242
   48POPC   H7X 6403   3.619   1.338   5.237
   48POPC   H7Y 6404   3.776   1.271   5.181
   48POPC   C38 6405   3.762   1.489   5.181
   48POPC   H8X 6406   3.870   1.513   5.198
   48POPC   H8Y 6407   3.701   1.564   5.235
   48POPC   C39 6408   3.737   1.501   5.030
   48POPC   H9X 6409   3.753   1.608   5.001
   48POPC   H9Y 6410   3.631   1.475   5.007
   48POPC  C310 6411   3.832   1.413   4.947
   48POPC  H10X 6412   3.800   1.307   4.957
   48POPC  H10Y 6413   3.934   1.422   4.991
   48POPC  C311 6414   3.839   1.452   4.799
   48POPC  H11X 6415   3.885   1.552   4.788
   48POPC  H11Y 6416   3.735   1.458   4.759
   48POPC  C312 6417   3.915   1.348   4.714
   48POPC  H12X 6418   3.917   1.382   4.608
   48POPC  H12Y 6419   3.855   1.254   4.717
   48POPC  C313 6420   4.058   1.310   4.761
   48POPC  H13X 6421   4.086   1.217   4.708
   48POPC  H13Y 6422   4.057   1.287   4.870
   48POPC  C314 6423   4.170   1.412   4.733
   48POPC  H14X 6424   4.267   1.361   4.752
   48POPC  H14Y 6425   4.164   1.495   4.806
   48POPC  C315 6426   4.170   1.465   4.589
   48POPC  H15X 6427   4.091   1.543   4.579
   48POPC  H15Y 6428   4.144   1.382   4.520
   48POPC  C316 6429   4.305   1.521   4.545
   48POPC  H16X 6430   4.297   1.571   4.446
   48POPC  H16Y 6431   4.380   1.440   4.537
   48POPC  H16Z 6432   4.342   1.595   4.620
   49POPC     N 6433   7.031   2.434   6.031
   49POPC   C12 6434   7.047   2.291   6.081
   49POPC  H12A 6435   7.148   2.260   6.065
   49POPC  H12B 6436   6.983   2.225   6.021
   49POPC   C13 6437   6.885   2.467   6.031
   49POPC  H13A 6438   6.842   2.438   6.128
   49POPC  H13B 6439   6.869   2.573   6.020
   49POPC  H13C 6440   6.830   2.412   5.956
   49POPC   C14 6441   7.100   2.529   6.124
   49POPC  H14A 6442   7.081   2.632   6.097
   49POPC  H14B 6443   7.060   2.512   6.224
   49POPC  H14C 6444   7.208   2.513   6.131
   49POPC   C15 6445   7.081   2.450   5.891
   49POPC  H15A 6446   7.187   2.430   5.883
   49POPC  H15B 6447   7.064   2.551   5.857
   49POPC  H15C 6448   7.029   2.384   5.822
   49POPC   C11 6449   7.014   2.260   6.229
   49POPC  H11A 6450   7.079   2.321   6.296
   49POPC  H11B 6451   7.039   2.154   6.252
   49POPC     P 6452   6.759   2.187   6.239
   49POPC   O13 6453   6.659   2.256   6.155
   49POPC   O14 6454   6.715   2.136   6.371
   49POPC   O12 6455   6.879   2.288   6.261
   49POPC   O11 6456   6.825   2.070   6.151
   49POPC    C1 6457   6.800   2.074   6.010
   49POPC    HA 6458   6.807   2.178   5.969
   49POPC    HB 6459   6.698   2.036   5.988
   49POPC    C2 6460   6.902   1.988   5.934
   49POPC    HS 6461   6.884   1.883   5.966
   49POPC   O21 6462   7.037   2.030   5.960
   49POPC   C21 6463   7.117   1.946   6.019
   49POPC   O22 6464   7.090   1.844   6.079
   49POPC   C22 6465   7.262   1.994   5.998
   49POPC   H2R 6466   7.325   1.905   6.019
   49POPC   H2S 6467   7.283   2.072   6.073
   49POPC    C3 6468   6.878   2.000   5.781
   49POPC    HX 6469   6.783   1.944   5.762
   49POPC    HY 6470   6.960   1.948   5.727
   49POPC   O31 6471   6.869   2.139   5.738
   49POPC   C31 6472   6.811   2.148   5.617
   49POPC   O32 6473   6.773   2.053   5.553
   49POPC   C32 6474   6.804   2.295   5.571
   49POPC   H2X 6475   6.895   2.318   5.513
   49POPC   H2Y 6476   6.804   2.358   5.663
   49POPC   C23 6477   7.300   2.046   5.857
   49POPC   H3R 6478   7.264   1.977   5.778
   49POPC   H3S 6479   7.411   2.050   5.849
   49POPC   C24 6480   7.246   2.187   5.826
   49POPC   H4R 6481   7.265   2.250   5.916
   49POPC   H4S 6482   7.136   2.181   5.808
   49POPC   C25 6483   7.311   2.255   5.706
   49POPC   H5R 6484   7.419   2.265   5.728
   49POPC   H5S 6485   7.273   2.359   5.692
   49POPC   C26 6486   7.294   2.179   5.574
   49POPC   H6R 6487   7.304   2.070   5.590
   49POPC   H6S 6488   7.375   2.211   5.505
   49POPC   C27 6489   7.161   2.207   5.502
   49POPC   H7R 6490   7.168   2.303   5.447
   49POPC   H7S 6491   7.081   2.218   5.578
   49POPC   C28 6492   7.120   2.094   5.405
   49POPC   H8R 6493   7.025   2.124   5.356
   49POPC   H8S 6494   7.098   2.003   5.465
   49POPC   C29 6495   7.227   2.060   5.303
   49POPC   H91 6496   7.330   2.064   5.341
   49POPC  C210 6497   7.209   2.020   5.177
   49POPC  H101 6498   7.298   2.000   5.114
   49POPC  C211 6499   7.077   2.000   5.108
   49POPC  H11R 6500   6.990   2.027   5.173
   49POPC  H11S 6501   7.065   1.893   5.080
   49POPC  C212 6502   7.068   2.086   4.981
   49POPC  H12R 6503   7.146   2.055   4.907
   49POPC  H12S 6504   7.086   2.193   5.006
   49POPC  C213 6505   6.930   2.073   4.915
   49POPC  H13R 6506   6.925   2.145   4.830
   49POPC  H13S 6507   6.851   2.101   4.987
   49POPC  C214 6508   6.904   1.930   4.865
   49POPC  H14R 6509   6.872   1.868   4.952
   49POPC  H14S 6510   6.999   1.887   4.827
   49POPC  C215 6511   6.798   1.921   4.755
   49POPC  H15R 6512   6.701   1.957   4.796
   49POPC  H15S 6513   6.785   1.814   4.728
   49POPC  C216 6514   6.827   2.002   4.628
   49POPC  H16R 6515   6.784   2.104   4.641
   49POPC  H16S 6516   6.773   1.951   4.545
   49POPC  C217 6517   6.974   2.020   4.584
   49POPC  H17R 6518   7.036   2.057   4.668
   49POPC  H17S 6519   6.976   2.101   4.506
   49POPC  C218 6520   7.037   1.895   4.524
   49POPC  H18R 6521   7.144   1.913   4.503
   49POPC  H18S 6522   6.986   1.866   4.430
   49POPC  H18T 6523   7.029   1.811   4.596
   49POPC   C33 6524   6.678   2.330   5.487
   49POPC   H3X 6525   6.665   2.440   5.488
   49POPC   H3Y 6526   6.587   2.286   5.536
   49POPC   C34 6527   6.678   2.286   5.339
   49POPC   H4X 6528   6.576   2.306   5.298
   49POPC   H4Y 6529   6.695   2.176   5.331
   49POPC   C35 6530   6.778   2.359   5.248
   49POPC   H5X 6531   6.880   2.318   5.265
   49POPC   H5Y 6532   6.780   2.467   5.276
   49POPC   C36 6533   6.743   2.351   5.098
   49POPC   H6X 6534   6.647   2.403   5.081
   49POPC   H6Y 6535   6.728   2.245   5.069
   49POPC   C37 6536   6.852   2.413   5.009
   49POPC   H7X 6537   6.944   2.350   5.016
   49POPC   H7Y 6538   6.878   2.513   5.048
   49POPC   C38 6539   6.813   2.431   4.862
   49POPC   H8X 6540   6.740   2.514   4.858
   49POPC   H8Y 6541   6.763   2.340   4.822
   49POPC   C39 6542   6.934   2.465   4.773
   49POPC   H9X 6543   6.969   2.372   4.723
   49POPC   H9Y 6544   7.018   2.502   4.836
   49POPC  C310 6545   6.900   2.572   4.669
   49POPC  H10X 6546   6.927   2.673   4.707
   49POPC  H10Y 6547   6.789   2.572   4.658
   49POPC  C311 6548   6.958   2.551   4.529
   49POPC  H11X 6549   6.985   2.444   4.512
   49POPC  H11Y 6550   7.051   2.612   4.517
   49POPC  C312 6551   6.853   2.593   4.426
   49POPC  H12X 6552   6.807   2.687   4.461
   49POPC  H12Y 6553   6.773   2.516   4.423
   49POPC  C313 6554   6.903   2.613   4.283
   49POPC  H13X 6555   7.014   2.620   4.282
   49POPC  H13Y 6556   6.863   2.708   4.243
   49POPC  C314 6557   6.848   2.509   4.185
   49POPC  H14X 6558   6.739   2.493   4.205
   49POPC  H14Y 6559   6.904   2.416   4.204
   49POPC  C315 6560   6.866   2.550   4.040
   49POPC  H15X 6561   6.802   2.639   4.017
   49POPC  H15Y 6562   6.833   2.467   3.974
   49POPC  C316 6563   7.012   2.583   4.012
   49POPC  H16X 6564   7.030   2.599   3.904
   49POPC  H16Y 6565   7.076   2.500   4.049
   49POPC  H16Z 6566   7.043   2.674   4.066
   50POPC     N 6567   3.730   7.844   6.350
   50POPC   C12 6568   3.662   7.733   6.269
   50POPC  H12A 6569   3.569   7.706   6.317
   50POPC  H12B 6570   3.726   7.646   6.265
   50POPC   C13 6571   3.865   7.872   6.293
   50POPC  H13A 6572   3.903   7.970   6.319
   50POPC  H13B 6573   3.938   7.797   6.322
   50POPC  H13C 6574   3.859   7.865   6.184
   50POPC   C14 6575   3.649   7.969   6.337
   50POPC  H14A 6576   3.555   7.964   6.392
   50POPC  H14B 6577   3.704   8.055   6.373
   50POPC  H14C 6578   3.628   7.985   6.232
   50POPC   C15 6579   3.745   7.808   6.494
   50POPC  H15A 6580   3.804   7.883   6.547
   50POPC  H15B 6581   3.791   7.711   6.509
   50POPC  H15C 6582   3.649   7.807   6.545
   50POPC   C11 6583   3.628   7.762   6.121
   50POPC  H11A 6584   3.558   7.848   6.110
   50POPC  H11B 6585   3.574   7.673   6.081
   50POPC     P 6586   3.785   7.711   5.917
   50POPC   O13 6587   3.789   7.568   5.951
   50POPC   O14 6588   3.906   7.773   5.859
   50POPC   O12 6589   3.748   7.790   6.050
   50POPC   O11 6590   3.656   7.746   5.827
   50POPC    C1 6591   3.625   7.882   5.794
   50POPC    HA 6592   3.684   7.912   5.704
   50POPC    HB 6593   3.652   7.952   5.877
   50POPC    C2 6594   3.473   7.905   5.761
   50POPC    HS 6595   3.414   7.857   5.842
   50POPC   O21 6596   3.444   7.843   5.634
   50POPC   C21 6597   3.324   7.859   5.580
   50POPC   O22 6598   3.226   7.909   5.634
   50POPC   C22 6599   3.329   7.806   5.438
   50POPC   H2R 6600   3.232   7.756   5.417
   50POPC   H2S 6601   3.411   7.732   5.428
   50POPC    C3 6602   3.442   8.058   5.760
   50POPC    HX 6603   3.476   8.100   5.858
   50POPC    HY 6604   3.333   8.078   5.753
   50POPC   O31 6605   3.511   8.119   5.651
   50POPC   C31 6606   3.539   8.247   5.662
   50POPC   O32 6607   3.492   8.325   5.742
   50POPC   C32 6608   3.647   8.276   5.557
   50POPC   H2X 6609   3.688   8.377   5.574
   50POPC   H2Y 6610   3.599   8.273   5.457
   50POPC   C23 6611   3.352   7.925   5.344
   50POPC   H3R 6612   3.448   7.975   5.371
   50POPC   H3S 6613   3.270   8.000   5.359
   50POPC   C24 6614   3.356   7.891   5.195
   50POPC   H4R 6615   3.264   7.836   5.166
   50POPC   H4S 6616   3.444   7.827   5.172
   50POPC   C25 6617   3.365   8.023   5.119
   50POPC   H5R 6618   3.455   8.079   5.154
   50POPC   H5S 6619   3.276   8.084   5.147
   50POPC   C26 6620   3.370   8.012   4.968
   50POPC   H6R 6621   3.294   7.940   4.929
   50POPC   H6S 6622   3.471   7.977   4.937
   50POPC   C27 6623   3.343   8.151   4.913
   50POPC   H7R 6624   3.407   8.221   4.970
   50POPC   H7S 6625   3.237   8.179   4.932
   50POPC   C28 6626   3.372   8.169   4.764
   50POPC   H8R 6627   3.331   8.266   4.735
   50POPC   H8S 6628   3.312   8.093   4.711
   50POPC   C29 6629   3.519   8.165   4.729
   50POPC   H91 6630   3.584   8.229   4.789
   50POPC  C210 6631   3.572   8.088   4.632
   50POPC  H101 6632   3.681   8.089   4.616
   50POPC  C211 6633   3.491   7.995   4.546
   50POPC  H11R 6634   3.548   7.961   4.457
   50POPC  H11S 6635   3.407   8.053   4.502
   50POPC  C212 6636   3.440   7.871   4.622
   50POPC  H12R 6637   3.414   7.896   4.727
   50POPC  H12S 6638   3.519   7.794   4.627
   50POPC  C213 6639   3.314   7.812   4.558
   50POPC  H13R 6640   3.290   7.714   4.605
   50POPC  H13S 6641   3.336   7.792   4.451
   50POPC  C214 6642   3.193   7.905   4.573
   50POPC  H14R 6643   3.220   8.012   4.558
   50POPC  H14S 6644   3.151   7.895   4.675
   50POPC  C215 6645   3.089   7.880   4.466
   50POPC  H15R 6646   2.992   7.925   4.498
   50POPC  H15S 6647   3.075   7.771   4.456
   50POPC  C216 6648   3.132   7.942   4.334
   50POPC  H16R 6649   3.243   7.939   4.323
   50POPC  H16S 6650   3.103   8.050   4.330
   50POPC  C217 6651   3.071   7.868   4.217
   50POPC  H17R 6652   2.961   7.864   4.230
   50POPC  H17S 6653   3.109   7.763   4.218
   50POPC  C218 6654   3.103   7.934   4.084
   50POPC  H18R 6655   3.209   7.915   4.054
   50POPC  H18S 6656   3.086   8.043   4.091
   50POPC  H18T 6657   3.037   7.895   4.005
   50POPC   C33 6658   3.759   8.169   5.565
   50POPC   H3X 6659   3.718   8.067   5.546
   50POPC   H3Y 6660   3.803   8.169   5.667
   50POPC   C34 6661   3.871   8.193   5.464
   50POPC   H4X 6662   3.948   8.113   5.482
   50POPC   H4Y 6663   3.919   8.291   5.484
   50POPC   C35 6664   3.827   8.185   5.317
   50POPC   H5X 6665   3.913   8.213   5.253
   50POPC   H5Y 6666   3.747   8.260   5.297
   50POPC   C36 6667   3.779   8.046   5.277
   50POPC   H6X 6668   3.686   8.020   5.333
   50POPC   H6Y 6669   3.856   7.970   5.305
   50POPC   C37 6670   3.752   8.034   5.126
   50POPC   H7X 6671   3.677   8.110   5.096
   50POPC   H7Y 6672   3.707   7.933   5.108
   50POPC   C38 6673   3.877   8.049   5.039
   50POPC   H8X 6674   3.954   7.978   5.075
   50POPC   H8Y 6675   3.919   8.152   5.046
   50POPC   C39 6676   3.845   8.016   4.893
   50POPC   H9X 6677   3.776   8.092   4.852
   50POPC   H9Y 6678   3.790   7.919   4.897
   50POPC  C310 6679   3.968   8.000   4.802
   50POPC  H10X 6680   4.035   7.923   4.846
   50POPC  H10Y 6681   4.025   8.095   4.797
   50POPC  C311 6682   3.931   7.954   4.659
   50POPC  H11X 6683   4.023   7.917   4.608
   50POPC  H11Y 6684   3.893   8.041   4.602
   50POPC  C312 6685   3.824   7.844   4.659
   50POPC  H12X 6686   3.729   7.884   4.700
   50POPC  H12Y 6687   3.856   7.763   4.728
   50POPC  C313 6688   3.792   7.779   4.525
   50POPC  H13X 6689   3.691   7.733   4.533
   50POPC  H13Y 6690   3.863   7.695   4.509
   50POPC  C314 6691   3.796   7.871   4.402
   50POPC  H14X 6692   3.903   7.887   4.375
   50POPC  H14Y 6693   3.753   7.970   4.424
   50POPC  C315 6694   3.722   7.808   4.283
   50POPC  H15X 6695   3.763   7.853   4.190
   50POPC  H15Y 6696   3.614   7.834   4.287
   50POPC  C316 6697   3.735   7.655   4.277
   50POPC  H16X 6698   3.840   7.623   4.295
   50POPC  H16Y 6699   3.705   7.619   4.178
   50POPC  H16Z 6700   3.670   7.606   4.352
   51POPC     N 6701   3.124   1.622   6.192
   51POPC   C12 6702   2.986   1.685   6.189
   51POPC  H12A 6703   2.925   1.632   6.261
   51POPC  H12B 6704   2.944   1.669   6.090
   51POPC   C13 6705   3.217   1.691   6.100
   51POPC  H13A 6706   3.316   1.648   6.104
   51POPC  H13B 6707   3.179   1.690   5.998
   51POPC  H13C 6708   3.220   1.797   6.126
   51POPC   C14 6709   3.178   1.629   6.331
   51POPC  H14A 6710   3.117   1.566   6.398
   51POPC  H14B 6711   3.280   1.594   6.339
   51POPC  H14C 6712   3.171   1.731   6.369
   51POPC   C15 6713   3.107   1.477   6.160
   51POPC  H15A 6714   3.194   1.420   6.189
   51POPC  H15B 6715   3.084   1.462   6.056
   51POPC  H15C 6716   3.022   1.440   6.217
   51POPC   C11 6717   2.972   1.837   6.217
   51POPC  H11A 6718   3.010   1.861   6.319
   51POPC  H11B 6719   2.862   1.857   6.216
   51POPC     P 6720   2.991   2.062   6.085
   51POPC   O13 6721   3.110   2.149   6.083
   51POPC   O14 6722   2.879   2.095   6.176
   51POPC   O12 6723   3.041   1.915   6.119
   51POPC   O11 6724   2.935   2.049   5.939
   51POPC    C1 6725   2.949   1.932   5.859
   51POPC    HA 6726   2.871   1.931   5.780
   51POPC    HB 6727   2.934   1.839   5.919
   51POPC    C2 6728   3.087   1.928   5.790
   51POPC    HS 6729   3.162   1.967   5.862
   51POPC   O21 6730   3.080   2.012   5.672
   51POPC   C21 6731   3.198   2.034   5.617
   51POPC   O22 6732   3.303   1.989   5.659
   51POPC   C22 6733   3.184   2.126   5.495
   51POPC   H2R 6734   3.245   2.216   5.515
   51POPC   H2S 6735   3.078   2.158   5.488
   51POPC    C3 6736   3.127   1.782   5.754
   51POPC    HX 6737   3.096   1.716   5.837
   51POPC    HY 6738   3.238   1.776   5.748
   51POPC   O31 6739   3.059   1.741   5.635
   51POPC   C31 6740   3.135   1.697   5.536
   51POPC   O32 6741   3.254   1.670   5.543
   51POPC   C32 6742   3.049   1.686   5.413
   51POPC   H2X 6743   3.109   1.717   5.325
   51POPC   H2Y 6744   2.964   1.758   5.424
   51POPC   C23 6745   3.229   2.061   5.362
   51POPC   H3R 6746   3.193   1.956   5.358
   51POPC   H3S 6747   3.340   2.059   5.356
   51POPC   C24 6748   3.171   2.136   5.241
   51POPC   H4R 6749   3.204   2.242   5.244
   51POPC   H4S 6750   3.060   2.136   5.250
   51POPC   C25 6751   3.208   2.076   5.105
   51POPC   H5R 6752   3.316   2.092   5.085
   51POPC   H5S 6753   3.151   2.132   5.026
   51POPC   C26 6754   3.175   1.927   5.093
   51POPC   H6R 6755   3.078   1.907   5.144
   51POPC   H6S 6756   3.253   1.867   5.145
   51POPC   C27 6757   3.162   1.880   4.947
   51POPC   H7R 6758   3.078   1.936   4.900
   51POPC   H7S 6759   3.135   1.772   4.945
   51POPC   C28 6760   3.289   1.903   4.863
   51POPC   H8R 6761   3.322   2.009   4.870
   51POPC   H8S 6762   3.262   1.888   4.756
   51POPC   C29 6763   3.401   1.810   4.903
   51POPC   H91 6764   3.469   1.848   4.981
   51POPC  C210 6765   3.419   1.685   4.856
   51POPC  H101 6766   3.504   1.625   4.891
   51POPC  C211 6767   3.329   1.620   4.754
   51POPC  H11R 6768   3.240   1.683   4.738
   51POPC  H11S 6769   3.293   1.522   4.794
   51POPC  C212 6770   3.384   1.595   4.612
   51POPC  H12R 6771   3.305   1.544   4.552
   51POPC  H12S 6772   3.471   1.526   4.622
   51POPC  C213 6773   3.429   1.721   4.536
   51POPC  H13R 6774   3.525   1.697   4.484
   51POPC  H13S 6775   3.449   1.802   4.609
   51POPC  C214 6776   3.329   1.778   4.434
   51POPC  H14R 6777   3.307   1.883   4.462
   51POPC  H14S 6778   3.233   1.722   4.444
   51POPC  C215 6779   3.373   1.772   4.286
   51POPC  H15R 6780   3.294   1.821   4.225
   51POPC  H15S 6781   3.376   1.665   4.258
   51POPC  C216 6782   3.510   1.834   4.246
   51POPC  H16R 6783   3.542   1.780   4.154
   51POPC  H16S 6784   3.588   1.814   4.322
   51POPC  C217 6785   3.505   1.983   4.209
   51POPC  H17R 6786   3.409   2.002   4.157
   51POPC  H17S 6787   3.584   2.005   4.134
   51POPC  C218 6788   3.522   2.081   4.326
   51POPC  H18R 6789   3.628   2.109   4.340
   51POPC  H18S 6790   3.486   2.034   4.420
   51POPC  H18T 6791   3.465   2.174   4.312
   51POPC   C33 6792   2.992   1.544   5.394
   51POPC   H3X 6793   2.963   1.498   5.491
   51POPC   H3Y 6794   3.072   1.480   5.349
   51POPC   C34 6795   2.869   1.545   5.302
   51POPC   H4X 6796   2.782   1.589   5.356
   51POPC   H4Y 6797   2.844   1.440   5.276
   51POPC   C35 6798   2.898   1.626   5.176
   51POPC   H5X 6799   2.999   1.595   5.140
   51POPC   H5Y 6800   2.904   1.735   5.199
   51POPC   C36 6801   2.795   1.608   5.064
   51POPC   H6X 6802   2.710   1.676   5.083
   51POPC   H6Y 6803   2.756   1.503   5.066
   51POPC   C37 6804   2.852   1.634   4.924
   51POPC   H7X 6805   2.897   1.736   4.921
   51POPC   H7Y 6806   2.768   1.632   4.852
   51POPC   C38 6807   2.957   1.530   4.881
   51POPC   H8X 6808   2.916   1.428   4.895
   51POPC   H8Y 6809   3.047   1.540   4.947
   51POPC   C39 6810   3.006   1.546   4.737
   51POPC   H9X 6811   3.083   1.468   4.715
   51POPC   H9Y 6812   3.055   1.646   4.731
   51POPC  C310 6813   2.900   1.547   4.627
   51POPC  H10X 6814   2.808   1.495   4.661
   51POPC  H10Y 6815   2.940   1.492   4.538
   51POPC  C311 6816   2.872   1.692   4.583
   51POPC  H11X 6817   2.969   1.739   4.555
   51POPC  H11Y 6818   2.832   1.750   4.669
   51POPC  C312 6819   2.777   1.704   4.465
   51POPC  H12X 6820   2.674   1.678   4.498
   51POPC  H12Y 6821   2.805   1.633   4.384
   51POPC  C313 6822   2.778   1.847   4.411
   51POPC  H13X 6823   2.788   1.918   4.496
   51POPC  H13Y 6824   2.680   1.867   4.362
   51POPC  C314 6825   2.890   1.872   4.309
   51POPC  H14X 6826   2.888   1.792   4.232
   51POPC  H14Y 6827   2.989   1.866   4.359
   51POPC  C315 6828   2.875   2.007   4.238
   51POPC  H15X 6829   2.821   1.990   4.144
   51POPC  H15Y 6830   2.973   2.038   4.200
   51POPC  C316 6831   2.813   2.120   4.321
   51POPC  H16X 6832   2.807   2.214   4.261
   51POPC  H16Y 6833   2.874   2.141   4.411
   51POPC  H16Z 6834   2.710   2.095   4.353
   52POPC     N 6835   7.357   2.974   6.281
   52POPC   C12 6836   7.374   2.923   6.139
   52POPC  H12A 6837   7.350   3.003   6.069
   52POPC  H12B 6838   7.306   2.842   6.122
   52POPC   C13 6839   7.434   3.102   6.294
   52POPC  H13A 6840   7.439   3.140   6.396
   52POPC  H13B 6841   7.536   3.082   6.261
   52POPC  H13C 6842   7.395   3.176   6.226
   52POPC   C14 6843   7.217   3.002   6.322
   52POPC  H14A 6844   7.151   2.922   6.295
   52POPC  H14B 6845   7.216   3.016   6.430
   52POPC  H14C 6846   7.177   3.094   6.279
   52POPC   C15 6847   7.418   2.878   6.379
   52POPC  H15A 6848   7.365   2.784   6.385
   52POPC  H15B 6849   7.422   2.922   6.478
   52POPC  H15C 6850   7.521   2.859   6.349
   52POPC   C11 6851   7.516   2.874   6.098
   52POPC  H11A 6852   7.514   2.850   5.988
   52POPC  H11B 6853   7.539   2.778   6.149
   52POPC     P 6854   7.714   3.027   6.020
   52POPC   O13 6855   7.769   2.914   5.944
   52POPC   O14 6856   7.804   3.120   6.093
   52POPC   O12 6857   7.618   2.968   6.131
   52POPC   O11 6858   7.606   3.108   5.938
   52POPC    C1 6859   7.561   3.237   5.979
   52POPC    HA 6860   7.589   3.262   6.084
   52POPC    HB 6861   7.450   3.241   5.971
   52POPC    C2 6862   7.614   3.352   5.889
   52POPC    HS 6863   7.574   3.443   5.933
   52POPC   O21 6864   7.561   3.337   5.757
   52POPC   C21 6865   7.547   3.450   5.689
   52POPC   O22 6866   7.569   3.562   5.731
   52POPC   C22 6867   7.494   3.417   5.551
   52POPC   H2R 6868   7.402   3.476   5.536
   52POPC   H2S 6869   7.469   3.308   5.545
   52POPC    C3 6870   7.770   3.360   5.885
   52POPC    HX 6871   7.807   3.356   5.990
   52POPC    HY 6872   7.803   3.459   5.845
   52POPC   O31 6873   7.825   3.249   5.814
   52POPC   C31 6874   7.851   3.270   5.686
   52POPC   O32 6875   7.840   3.378   5.630
   52POPC   C32 6876   7.897   3.141   5.620
   52POPC   H2X 6877   7.894   3.063   5.699
   52POPC   H2Y 6878   8.001   3.154   5.587
   52POPC   C23 6879   7.597   3.450   5.442
   52POPC   H3R 6880   7.687   3.386   5.451
   52POPC   H3S 6881   7.630   3.556   5.450
   52POPC   C24 6882   7.534   3.426   5.307
   52POPC   H4R 6883   7.447   3.494   5.297
   52POPC   H4S 6884   7.497   3.321   5.299
   52POPC   C25 6885   7.631   3.454   5.193
   52POPC   H5R 6886   7.679   3.358   5.167
   52POPC   H5S 6887   7.710   3.525   5.225
   52POPC   C26 6888   7.558   3.509   5.072
   52POPC   H6R 6889   7.531   3.615   5.089
   52POPC   H6S 6890   7.464   3.451   5.057
   52POPC   C27 6891   7.641   3.496   4.945
   52POPC   H7R 6892   7.650   3.387   4.924
   52POPC   H7S 6893   7.744   3.535   4.961
   52POPC   C28 6894   7.571   3.570   4.832
   52POPC   H8R 6895   7.593   3.679   4.839
   52POPC   H8S 6896   7.461   3.559   4.842
   52POPC   C29 6897   7.620   3.513   4.702
   52POPC   H91 6898   7.719   3.548   4.671
   52POPC  C210 6899   7.560   3.417   4.632
   52POPC  H101 6900   7.619   3.376   4.551
   52POPC  C211 6901   7.432   3.341   4.662
   52POPC  H11R 6902   7.399   3.367   4.766
   52POPC  H11S 6903   7.456   3.234   4.674
   52POPC  C212 6904   7.301   3.353   4.575
   52POPC  H12R 6905   7.267   3.453   4.610
   52POPC  H12S 6906   7.229   3.275   4.608
   52POPC  C213 6907   7.288   3.368   4.421
   52POPC  H13R 6908   7.370   3.430   4.382
   52POPC  H13S 6909   7.209   3.443   4.407
   52POPC  C214 6910   7.263   3.244   4.328
   52POPC  H14R 6911   7.342   3.174   4.351
   52POPC  H14S 6912   7.276   3.274   4.222
   52POPC  C215 6913   7.148   3.141   4.335
   52POPC  H15R 6914   7.065   3.170   4.269
   52POPC  H15S 6915   7.112   3.135   4.440
   52POPC  C216 6916   7.197   3.001   4.291
   52POPC  H16R 6917   7.137   2.922   4.340
   52POPC  H16S 6918   7.301   2.988   4.326
   52POPC  C217 6919   7.205   2.976   4.140
   52POPC  H17R 6920   7.265   2.884   4.125
   52POPC  H17S 6921   7.262   3.058   4.091
   52POPC  C218 6922   7.068   2.957   4.075
   52POPC  H18R 6923   7.000   3.040   4.101
   52POPC  H18S 6924   7.021   2.864   4.114
   52POPC  H18T 6925   7.076   2.950   3.965
   52POPC   C33 6926   7.808   3.091   5.502
   52POPC   H3X 6927   7.701   3.110   5.524
   52POPC   H3Y 6928   7.821   2.980   5.498
   52POPC   C34 6929   7.846   3.145   5.362
   52POPC   H4X 6930   7.955   3.129   5.348
   52POPC   H4Y 6931   7.827   3.254   5.360
   52POPC   C35 6932   7.769   3.077   5.245
   52POPC   H5X 6933   7.661   3.096   5.258
   52POPC   H5Y 6934   7.786   2.967   5.253
   52POPC   C36 6935   7.816   3.123   5.105
   52POPC   H6X 6936   7.923   3.099   5.103
   52POPC   H6Y 6937   7.810   3.233   5.097
   52POPC   C37 6938   7.741   3.064   4.982
   52POPC   H7X 6939   7.633   3.087   4.992
   52POPC   H7Y 6940   7.751   2.954   4.985
   52POPC   C38 6941   7.790   3.113   4.841
   52POPC   H8X 6942   7.898   3.137   4.847
   52POPC   H8Y 6943   7.737   3.208   4.816
   52POPC   C39 6944   7.768   3.009   4.728
   52POPC   H9X 6945   7.658   3.001   4.716
   52POPC   H9Y 6946   7.803   2.910   4.764
   52POPC  C310 6947   7.831   3.031   4.586
   52POPC  H10X 6948   7.940   3.041   4.592
   52POPC  H10Y 6949   7.803   3.129   4.544
   52POPC  C311 6950   7.801   2.916   4.483
   52POPC  H11X 6951   7.694   2.888   4.491
   52POPC  H11Y 6952   7.853   2.825   4.515
   52POPC  C312 6953   7.835   2.952   4.334
   52POPC  H12X 6954   7.919   2.887   4.304
   52POPC  H12Y 6955   7.875   3.056   4.331
   52POPC  C313 6956   7.728   2.943   4.222
   52POPC  H13X 6957   7.660   3.030   4.223
   52POPC  H13Y 6958   7.664   2.853   4.233
   52POPC  C314 6959   7.791   2.944   4.081
   52POPC  H14X 6960   7.868   2.864   4.077
   52POPC  H14Y 6961   7.842   3.041   4.064
   52POPC  C315 6962   7.690   2.918   3.967
   52POPC  H15X 6963   7.630   2.830   3.999
   52POPC  H15Y 6964   7.746   2.890   3.875
   52POPC  C316 6965   7.595   3.032   3.933
   52POPC  H16X 6966   7.518   3.001   3.860
   52POPC  H16Y 6967   7.651   3.115   3.885
   52POPC  H16Z 6968   7.544   3.070   4.024
   53POPC     N 6969   4.512   1.362   6.198
   53POPC   C12 6970   4.591   1.238   6.240
   53POPC  H12A 6971   4.523   1.157   6.259
   53POPC  H12B 6972   4.643   1.260   6.334
   53POPC   C13 6973   4.607   1.476   6.177
   53POPC  H13A 6974   4.560   1.564   6.136
   53POPC  H13B 6975   4.655   1.501   6.271
   53POPC  H13C 6976   4.687   1.440   6.113
   53POPC   C14 6977   4.440   1.336   6.069
   53POPC  H14A 6978   4.508   1.295   5.995
   53POPC  H14B 6979   4.358   1.267   6.081
   53POPC  H14C 6980   4.401   1.428   6.028
   53POPC   C15 6981   4.419   1.409   6.306
   53POPC  H15A 6982   4.473   1.425   6.399
   53POPC  H15B 6983   4.340   1.339   6.325
   53POPC  H15C 6984   4.375   1.505   6.282
   53POPC   C11 6985   4.702   1.188   6.143
   53POPC  H11A 6986   4.663   1.177   6.040
   53POPC  H11B 6987   4.738   1.088   6.175
   53POPC     P 6988   4.957   1.255   6.180
   53POPC   O13 6989   5.000   1.123   6.129
   53POPC   O14 6990   4.982   1.286   6.323
   53POPC   O12 6991   4.807   1.283   6.141
   53POPC   O11 6992   5.022   1.372   6.097
   53POPC    C1 6993   4.962   1.502   6.094
   53POPC    HA 6994   5.009   1.563   6.175
   53POPC    HB 6995   4.853   1.503   6.111
   53POPC    C2 6996   4.986   1.578   5.960
   53POPC    HS 6997   4.969   1.685   5.985
   53POPC   O21 6998   4.898   1.537   5.853
   53POPC   C21 6999   4.894   1.626   5.752
   53POPC   O22 7000   4.938   1.740   5.758
   53POPC   C22 7001   4.818   1.564   5.635
   53POPC   H2R 7002   4.715   1.540   5.671
   53POPC   H2S 7003   4.866   1.468   5.608
   53POPC    C3 7004   5.132   1.557   5.918
   53POPC    HX 7005   5.192   1.589   6.006
   53POPC    HY 7006   5.158   1.626   5.834
   53POPC   O31 7007   5.165   1.419   5.891
   53POPC   C31 7008   5.152   1.381   5.766
   53POPC   O32 7009   5.151   1.459   5.672
   53POPC   C32 7010   5.141   1.228   5.760
   53POPC   H2X 7011   5.130   1.190   5.864
   53POPC   H2Y 7012   5.238   1.192   5.721
   53POPC   C23 7013   4.809   1.658   5.513
   53POPC   H3R 7014   4.775   1.758   5.547
   53POPC   H3S 7015   4.733   1.618   5.442
   53POPC   C24 7016   4.939   1.683   5.435
   53POPC   H4R 7017   5.009   1.745   5.497
   53POPC   H4S 7018   4.911   1.745   5.347
   53POPC   C25 7019   5.012   1.557   5.386
   53POPC   H5R 7020   4.937   1.487   5.345
   53POPC   H5S 7021   5.062   1.507   5.470
   53POPC   C26 7022   5.116   1.591   5.278
   53POPC   H6R 7023   5.179   1.675   5.313
   53POPC   H6S 7024   5.059   1.624   5.188
   53POPC   C27 7025   5.208   1.477   5.231
   53POPC   H7R 7026   5.274   1.447   5.314
   53POPC   H7S 7027   5.272   1.517   5.150
   53POPC   C28 7028   5.139   1.349   5.180
   53POPC   H8R 7029   5.120   1.286   5.269
   53POPC   H8S 7030   5.212   1.292   5.118
   53POPC   C29 7031   5.008   1.369   5.106
   53POPC   H91 7032   4.920   1.367   5.172
   53POPC  C210 7033   4.990   1.389   4.975
   53POPC  H101 7034   4.887   1.404   4.938
   53POPC  C211 7035   5.097   1.397   4.869
   53POPC  H11R 7036   5.157   1.304   4.864
   53POPC  H11S 7037   5.167   1.481   4.889
   53POPC  C212 7038   5.029   1.421   4.732
   53POPC  H12R 7039   4.959   1.507   4.736
   53POPC  H12S 7040   4.973   1.328   4.707
   53POPC  C213 7041   5.130   1.445   4.620
   53POPC  H13R 7042   5.191   1.353   4.621
   53POPC  H13S 7043   5.202   1.522   4.647
   53POPC  C214 7044   5.068   1.459   4.479
   53POPC  H14R 7045   4.978   1.394   4.478
   53POPC  H14S 7046   5.140   1.416   4.406
   53POPC  C215 7047   5.029   1.595   4.417
   53POPC  H15R 7048   5.003   1.669   4.495
   53POPC  H15S 7049   4.936   1.577   4.358
   53POPC  C216 7050   5.136   1.647   4.318
   53POPC  H16R 7051   5.167   1.564   4.250
   53POPC  H16S 7052   5.225   1.676   4.374
   53POPC  C217 7053   5.114   1.773   4.234
   53POPC  H17R 7054   5.056   1.743   4.146
   53POPC  H17S 7055   5.213   1.805   4.194
   53POPC  C218 7056   5.050   1.892   4.304
   53POPC  H18R 7057   5.006   1.959   4.227
   53POPC  H18S 7058   5.125   1.950   4.361
   53POPC  H18T 7059   4.970   1.859   4.373
   53POPC   C33 7060   5.026   1.166   5.674
   53POPC   H3X 7061   4.929   1.182   5.725
   53POPC   H3Y 7062   5.044   1.056   5.671
   53POPC   C34 7063   5.019   1.217   5.529
   53POPC   H4X 7064   5.123   1.236   5.494
   53POPC   H4Y 7065   4.966   1.314   5.527
   53POPC   C35 7066   4.952   1.122   5.428
   53POPC   H5X 7067   5.008   1.027   5.423
   53POPC   H5Y 7068   4.961   1.170   5.328
   53POPC   C36 7069   4.803   1.093   5.450
   53POPC   H6X 7070   4.748   1.187   5.474
   53POPC   H6Y 7071   4.793   1.023   5.536
   53POPC   C37 7072   4.739   1.030   5.325
   53POPC   H7X 7073   4.649   0.972   5.354
   53POPC   H7Y 7074   4.811   0.958   5.279
   53POPC   C38 7075   4.697   1.134   5.220
   53POPC   H8X 7076   4.785   1.197   5.192
   53POPC   H8Y 7077   4.622   1.202   5.267
   53POPC   C39 7078   4.638   1.072   5.093
   53POPC   H9X 7079   4.577   0.983   5.120
   53POPC   H9Y 7080   4.721   1.037   5.028
   53POPC  C310 7081   4.549   1.171   5.016
   53POPC  H10X 7082   4.604   1.266   5.000
   53POPC  H10Y 7083   4.461   1.194   5.080
   53POPC  C311 7084   4.499   1.117   4.882
   53POPC  H11X 7085   4.413   1.178   4.846
   53POPC  H11Y 7086   4.462   1.013   4.897
   53POPC  C312 7087   4.606   1.116   4.772
   53POPC  H12X 7088   4.565   1.064   4.683
   53POPC  H12Y 7089   4.695   1.058   4.807
   53POPC  C313 7090   4.656   1.255   4.730
   53POPC  H13X 7091   4.725   1.293   4.808
   53POPC  H13Y 7092   4.572   1.327   4.720
   53POPC  C314 7093   4.732   1.247   4.597
   53POPC  H14X 7094   4.787   1.150   4.599
   53POPC  H14Y 7095   4.806   1.328   4.589
   53POPC  C315 7096   4.644   1.251   4.471
   53POPC  H15X 7097   4.542   1.214   4.496
   53POPC  H15Y 7098   4.686   1.182   4.396
   53POPC  C316 7099   4.636   1.391   4.410
   53POPC  H16X 7100   4.572   1.391   4.319
   53POPC  H16Y 7101   4.737   1.426   4.381
   53POPC  H16Z 7102   4.594   1.463   4.483
   54POPC     N 7103   6.094   1.777   6.284
   54POPC   C12 7104   6.059   1.731   6.142
   54POPC  H12A 7105   5.962   1.766   6.111
   54POPC  H12B 7106   6.052   1.622   6.143
   54POPC   C13 7107   5.973   1.825   6.356
   54POPC  H13A 7108   5.995   1.861   6.455
   54POPC  H13B 7109   5.922   1.903   6.301
   54POPC  H13C 7110   5.897   1.747   6.366
   54POPC   C14 7111   6.159   1.661   6.354
   54POPC  H14A 7112   6.092   1.578   6.369
   54POPC  H14B 7113   6.239   1.622   6.291
   54POPC  H14C 7114   6.205   1.692   6.447
   54POPC   C15 7115   6.200   1.882   6.283
   54POPC  H15A 7116   6.169   1.970   6.231
   54POPC  H15B 7117   6.285   1.841   6.229
   54POPC  H15C 7118   6.237   1.905   6.383
   54POPC   C11 7119   6.166   1.763   6.036
   54POPC  H11A 7120   6.172   1.872   6.019
   54POPC  H11B 7121   6.136   1.719   5.937
   54POPC     P 7122   6.321   1.559   6.062
   54POPC   O13 7123   6.197   1.483   6.092
   54POPC   O14 7124   6.443   1.527   6.138
   54POPC   O12 7125   6.292   1.713   6.082
   54POPC   O11 7126   6.350   1.560   5.909
   54POPC    C1 7127   6.456   1.641   5.857
   54POPC    HA 7128   6.523   1.568   5.810
   54POPC    HB 7129   6.513   1.697   5.934
   54POPC    C2 7130   6.411   1.738   5.744
   54POPC    HS 7131   6.318   1.791   5.775
   54POPC   O21 7132   6.392   1.659   5.626
   54POPC   C21 7133   6.283   1.588   5.635
   54POPC   O22 7134   6.182   1.620   5.696
   54POPC   C22 7135   6.300   1.461   5.555
   54POPC   H2R 7136   6.348   1.386   5.622
   54POPC   H2S 7137   6.368   1.479   5.469
   54POPC    C3 7138   6.515   1.851   5.717
   54POPC    HX 7139   6.618   1.811   5.716
   54POPC    HY 7140   6.510   1.923   5.802
   54POPC   O31 7141   6.486   1.922   5.595
   54POPC   C31 7142   6.535   1.867   5.483
   54POPC   O32 7143   6.616   1.777   5.477
   54POPC   C32 7144   6.474   1.937   5.362
   54POPC   H2X 7145   6.517   1.890   5.271
   54POPC   H2Y 7146   6.506   2.043   5.367
   54POPC   C23 7147   6.164   1.408   5.509
   54POPC   H3R 7148   6.103   1.376   5.597
   54POPC   H3S 7149   6.187   1.318   5.447
   54POPC   C24 7150   6.083   1.507   5.424
   54POPC   H4R 7151   6.089   1.611   5.465
   54POPC   H4S 7152   5.975   1.480   5.429
   54POPC   C25 7153   6.126   1.504   5.278
   54POPC   H5R 7154   6.088   1.408   5.236
   54POPC   H5S 7155   6.237   1.502   5.271
   54POPC   C26 7156   6.072   1.622   5.197
   54POPC   H6R 7157   6.145   1.705   5.199
   54POPC   H6S 7158   5.981   1.662   5.245
   54POPC   C27 7159   6.040   1.582   5.051
   54POPC   H7R 7160   6.021   1.674   4.991
   54POPC   H7S 7161   5.947   1.521   5.049
   54POPC   C28 7162   6.153   1.500   4.986
   54POPC   H8R 7163   6.125   1.479   4.881
   54POPC   H8S 7164   6.163   1.401   5.036
   54POPC   C29 7165   6.281   1.579   4.999
   54POPC   H91 7166   6.305   1.618   5.099
   54POPC  C210 7167   6.372   1.600   4.905
   54POPC  H101 7168   6.462   1.659   4.928
   54POPC  C211 7169   6.363   1.546   4.766
   54POPC  H11R 7170   6.412   1.616   4.696
   54POPC  H11S 7171   6.258   1.533   4.729
   54POPC  C212 7172   6.437   1.412   4.764
   54POPC  H12R 7173   6.368   1.328   4.788
   54POPC  H12S 7174   6.519   1.410   4.840
   54POPC  C213 7175   6.504   1.393   4.630
   54POPC  H13R 7176   6.577   1.309   4.636
   54POPC  H13S 7177   6.560   1.486   4.608
   54POPC  C214 7178   6.407   1.367   4.515
   54POPC  H14R 7179   6.329   1.445   4.508
   54POPC  H14S 7180   6.356   1.272   4.537
   54POPC  C215 7181   6.489   1.364   4.386
   54POPC  H15R 7182   6.584   1.309   4.405
   54POPC  H15S 7183   6.513   1.471   4.362
   54POPC  C216 7184   6.430   1.303   4.260
   54POPC  H16R 7185   6.326   1.340   4.242
   54POPC  H16S 7186   6.428   1.192   4.266
   54POPC  C217 7187   6.520   1.338   4.143
   54POPC  H17R 7188   6.625   1.308   4.166
   54POPC  H17S 7189   6.520   1.449   4.132
   54POPC  C218 7190   6.475   1.270   4.016
   54POPC  H18R 7191   6.530   1.307   3.927
   54POPC  H18S 7192   6.367   1.284   3.998
   54POPC  H18T 7193   6.497   1.161   4.024
   54POPC   C33 7194   6.319   1.928   5.361
   54POPC   H3X 7195   6.281   1.932   5.466
   54POPC   H3Y 7196   6.286   1.830   5.320
   54POPC   C34 7197   6.252   2.044   5.286
   54POPC   H4X 7198   6.311   2.138   5.298
   54POPC   H4Y 7199   6.153   2.061   5.335
   54POPC   C35 7200   6.223   2.016   5.138
   54POPC   H5X 7201   6.148   2.090   5.101
   54POPC   H5Y 7202   6.177   1.915   5.130
   54POPC   C36 7203   6.345   2.022   5.044
   54POPC   H6X 7204   6.427   1.958   5.082
   54POPC   H6Y 7205   6.382   2.127   5.037
   54POPC   C37 7206   6.302   1.971   4.906
   54POPC   H7X 7207   6.214   2.031   4.875
   54POPC   H7Y 7208   6.267   1.867   4.916
   54POPC   C38 7209   6.411   1.977   4.798
   54POPC   H8X 7210   6.499   1.919   4.833
   54POPC   H8Y 7211   6.444   2.082   4.784
   54POPC   C39 7212   6.367   1.918   4.662
   54POPC   H9X 7213   6.399   1.812   4.659
   54POPC   H9Y 7214   6.423   1.970   4.581
   54POPC  C310 7215   6.216   1.921   4.632
   54POPC  H10X 7216   6.185   2.025   4.605
   54POPC  H10Y 7217   6.157   1.891   4.722
   54POPC  C311 7218   6.172   1.822   4.523
   54POPC  H11X 7219   6.062   1.830   4.508
   54POPC  H11Y 7220   6.194   1.719   4.558
   54POPC  C312 7221   6.244   1.846   4.390
   54POPC  H12X 7222   6.353   1.860   4.406
   54POPC  H12Y 7223   6.204   1.940   4.345
   54POPC  C313 7224   6.230   1.730   4.290
   54POPC  H13X 7225   6.286   1.640   4.324
   54POPC  H13Y 7226   6.277   1.767   4.196
   54POPC  C314 7227   6.087   1.691   4.255
   54POPC  H14X 7228   6.024   1.780   4.268
   54POPC  H14Y 7229   6.047   1.617   4.327
   54POPC  C315 7230   6.072   1.646   4.109
   54POPC  H15X 7231   6.120   1.723   4.045
   54POPC  H15Y 7232   5.965   1.653   4.083
   54POPC  C316 7233   6.124   1.507   4.070
   54POPC  H16X 7234   6.043   1.432   4.063
   54POPC  H16Y 7235   6.199   1.472   4.143
   54POPC  H16Z 7236   6.172   1.513   3.970
   55POPC     N 7237   7.978   4.210   6.105
   55POPC   C12 7238   7.982   4.359   6.067
   55POPC  H12A 7239   7.933   4.417   6.144
   55POPC  H12B 7240   7.927   4.374   5.975
   55POPC   C13 7241   8.056   4.193   6.232
   55POPC  H13A 7242   8.008   4.247   6.313
   55POPC  H13B 7243   8.068   4.091   6.264
   55POPC  H13C 7244   8.155   4.239   6.220
   55POPC   C14 7245   7.839   4.162   6.132
   55POPC  H14A 7246   7.775   4.173   6.047
   55POPC  H14B 7247   7.843   4.059   6.165
   55POPC  H14C 7248   7.796   4.218   6.216
   55POPC   C15 7249   8.041   4.131   5.995
   55POPC  H15A 7250   7.985   4.137   5.902
   55POPC  H15B 7251   8.054   4.026   6.021
   55POPC  H15C 7252   8.140   4.173   5.977
   55POPC   C11 7253   8.121   4.429   6.047
   55POPC  H11A 7254   8.101   4.536   6.020
   55POPC  H11B 7255   8.173   4.385   5.959
   55POPC     P 7256   8.275   4.542   6.235
   55POPC   O13 7257   8.403   4.496   6.296
   55POPC   O14 7258   8.177   4.607   6.326
   55POPC   O12 7259   8.203   4.418   6.163
   55POPC   O11 7260   8.316   4.634   6.108
   55POPC    C1 7261   8.417   4.574   6.023
   55POPC    HA 7262   8.403   4.463   6.018
   55POPC    HB 7263   8.517   4.591   6.067
   55POPC    C2 7264   8.422   4.617   5.871
   55POPC    HS 7265   8.469   4.718   5.866
   55POPC   O21 7266   8.292   4.620   5.810
   55POPC   C21 7267   8.282   4.618   5.677
   55POPC   O22 7268   8.368   4.653   5.598
   55POPC   C22 7269   8.147   4.555   5.640
   55POPC   H2R 7270   8.075   4.578   5.719
   55POPC   H2S 7271   8.158   4.445   5.642
   55POPC    C3 7272   8.514   4.511   5.804
   55POPC    HX 7273   8.608   4.508   5.863
   55POPC    HY 7274   8.541   4.536   5.699
   55POPC   O31 7275   8.442   4.386   5.808
   55POPC   C31 7276   8.516   4.278   5.803
   55POPC   O32 7277   8.637   4.274   5.788
   55POPC   C32 7278   8.426   4.155   5.825
   55POPC   H2X 7279   8.413   4.146   5.935
   55POPC   H2Y 7280   8.487   4.068   5.795
   55POPC   C23 7281   8.098   4.601   5.501
   55POPC   H3R 7282   8.175   4.573   5.425
   55POPC   H3S 7283   8.091   4.712   5.499
   55POPC   C24 7284   7.962   4.541   5.461
   55POPC   H4R 7285   7.888   4.567   5.539
   55POPC   H4S 7286   7.970   4.430   5.457
   55POPC   C25 7287   7.910   4.593   5.326
   55POPC   H5R 7288   7.910   4.704   5.327
   55POPC   H5S 7289   7.804   4.561   5.312
   55POPC   C26 7290   7.993   4.545   5.206
   55POPC   H6R 7291   7.971   4.438   5.185
   55POPC   H6S 7292   8.100   4.552   5.232
   55POPC   C27 7293   7.972   4.630   5.079
   55POPC   H7R 7294   7.984   4.737   5.106
   55POPC   H7S 7295   7.868   4.615   5.043
   55POPC   C28 7296   8.070   4.595   4.965
   55POPC   H8R 7297   8.032   4.645   4.873
   55POPC   H8S 7298   8.062   4.486   4.947
   55POPC   C29 7299   8.215   4.635   4.989
   55POPC   H91 7300   8.242   4.648   5.095
   55POPC  C210 7301   8.309   4.658   4.895
   55POPC  H101 7302   8.410   4.687   4.927
   55POPC  C211 7303   8.289   4.648   4.746
   55POPC  H11R 7304   8.201   4.585   4.726
   55POPC  H11S 7305   8.375   4.598   4.696
   55POPC  C212 7306   8.264   4.786   4.681
   55POPC  H12R 7307   8.360   4.838   4.663
   55POPC  H12S 7308   8.203   4.848   4.750
   55POPC  C213 7309   8.183   4.777   4.551
   55POPC  H13R 7310   8.238   4.723   4.471
   55POPC  H13S 7311   8.167   4.882   4.515
   55POPC  C214 7312   8.047   4.712   4.576
   55POPC  H14R 7313   8.026   4.717   4.685
   55POPC  H14S 7314   8.048   4.604   4.548
   55POPC  C215 7315   7.931   4.784   4.508
   55POPC  H15R 7316   7.948   4.893   4.517
   55POPC  H15S 7317   7.840   4.760   4.566
   55POPC  C216 7318   7.918   4.748   4.360
   55POPC  H16R 7319   8.020   4.751   4.317
   55POPC  H16S 7320   7.858   4.827   4.309
   55POPC  C217 7321   7.855   4.611   4.331
   55POPC  H17R 7322   7.752   4.625   4.291
   55POPC  H17S 7323   7.845   4.554   4.426
   55POPC  C218 7324   7.936   4.528   4.231
   55POPC  H18R 7325   7.904   4.421   4.233
   55POPC  H18S 7326   8.044   4.532   4.256
   55POPC  H18T 7327   7.921   4.567   4.129
   55POPC   C33 7328   8.285   4.158   5.760
   55POPC   H3X 7329   8.232   4.251   5.789
   55POPC   H3Y 7330   8.228   4.072   5.803
   55POPC   C34 7331   8.273   4.140   5.607
   55POPC   H4X 7332   8.165   4.138   5.579
   55POPC   H4Y 7333   8.315   4.042   5.580
   55POPC   C35 7334   8.342   4.247   5.522
   55POPC   H5X 7335   8.449   4.252   5.552
   55POPC   H5Y 7336   8.299   4.348   5.540
   55POPC   C36 7337   8.341   4.220   5.370
   55POPC   H6X 7338   8.360   4.113   5.349
   55POPC   H6Y 7339   8.426   4.280   5.330
   55POPC   C37 7340   8.216   4.267   5.294
   55POPC   H7X 7341   8.186   4.365   5.338
   55POPC   H7Y 7342   8.131   4.197   5.309
   55POPC   C38 7343   8.242   4.291   5.143
   55POPC   H8X 7344   8.348   4.317   5.126
   55POPC   H8Y 7345   8.183   4.381   5.115
   55POPC   C39 7346   8.197   4.177   5.049
   55POPC   H9X 7347   8.106   4.129   5.091
   55POPC   H9Y 7348   8.277   4.100   5.046
   55POPC  C310 7349   8.163   4.228   4.907
   55POPC  H10X 7350   8.197   4.333   4.898
   55POPC  H10Y 7351   8.053   4.226   4.893
   55POPC  C311 7352   8.232   4.150   4.793
   55POPC  H11X 7353   8.226   4.041   4.811
   55POPC  H11Y 7354   8.337   4.182   4.796
   55POPC  C312 7355   8.188   4.184   4.649
   55POPC  H12X 7356   8.077   4.174   4.640
   55POPC  H12Y 7357   8.235   4.111   4.579
   55POPC  C313 7358   8.234   4.325   4.612
   55POPC  H13X 7359   8.341   4.338   4.636
   55POPC  H13Y 7360   8.175   4.392   4.679
   55POPC  C314 7361   8.208   4.370   4.467
   55POPC  H14X 7362   8.209   4.481   4.466
   55POPC  H14Y 7363   8.106   4.338   4.437
   55POPC  C315 7364   8.311   4.324   4.363
   55POPC  H15X 7365   8.272   4.356   4.263
   55POPC  H15Y 7366   8.319   4.213   4.362
   55POPC  C316 7367   8.451   4.385   4.378
   55POPC  H16X 7368   8.500   4.393   4.279
   55POPC  H16Y 7369   8.515   4.323   4.444
   55POPC  H16Z 7370   8.446   4.488   4.421
   56POPC     N 7371   5.376   8.210   6.293
   56POPC   C12 7372   5.285   8.261   6.181
   56POPC  H12A 7373   5.283   8.369   6.181
   56POPC  H12B 7374   5.182   8.228   6.201
   56POPC   C13 7375   5.515   8.186   6.240
   56POPC  H13A 7376   5.510   8.117   6.156
   56POPC  H13B 7377   5.561   8.278   6.208
   56POPC  H13C 7378   5.578   8.141   6.316
   56POPC   C14 7379   5.379   8.303   6.408
   56POPC  H14A 7380   5.282   8.304   6.458
   56POPC  H14B 7381   5.452   8.271   6.481
   56POPC  H14C 7382   5.404   8.404   6.379
   56POPC   C15 7383   5.322   8.078   6.342
   56POPC  H15A 7384   5.229   8.092   6.396
   56POPC  H15B 7385   5.391   8.025   6.406
   56POPC  H15C 7386   5.300   8.014   6.257
   56POPC   C11 7387   5.312   8.212   6.037
   56POPC  H11A 7388   5.414   8.242   6.004
   56POPC  H11B 7389   5.242   8.262   5.966
   56POPC     P 7390   5.154   8.004   6.029
   56POPC   O13 7391   5.062   8.097   6.098
   56POPC   O14 7392   5.164   7.868   6.085
   56POPC   O12 7393   5.300   8.070   6.032
   56POPC   O11 7394   5.115   8.011   5.874
   56POPC    C1 7395   5.055   7.896   5.818
   56POPC    HA 7396   4.947   7.890   5.846
   56POPC    HB 7397   5.103   7.802   5.854
   56POPC    C2 7398   5.068   7.893   5.664
   56POPC    HS 7399   5.040   7.788   5.639
   56POPC   O21 7400   5.199   7.926   5.618
   56POPC   C21 7401   5.293   7.838   5.640
   56POPC   O22 7402   5.280   7.724   5.681
   56POPC   C22 7403   5.426   7.900   5.600
   56POPC   H2R 7404   5.427   7.906   5.490
   56POPC   H2S 7405   5.507   7.831   5.634
   56POPC    C3 7406   4.977   7.992   5.586
   56POPC    HX 7407   5.016   8.094   5.611
   56POPC    HY 7408   4.875   7.988   5.627
   56POPC   O31 7409   4.972   7.980   5.441
   56POPC   C31 7410   5.010   7.871   5.376
   56POPC   O32 7411   5.049   7.766   5.423
   56POPC   C32 7412   4.990   7.885   5.226
   56POPC   H2X 7413   5.051   7.969   5.189
   56POPC   H2Y 7414   4.883   7.908   5.208
   56POPC   C23 7415   5.445   8.041   5.664
   56POPC   H3R 7416   5.446   8.029   5.775
   56POPC   H3S 7417   5.356   8.104   5.641
   56POPC   C24 7418   5.572   8.113   5.618
   56POPC   H4R 7419   5.658   8.044   5.632
   56POPC   H4S 7420   5.589   8.203   5.681
   56POPC   C25 7421   5.570   8.155   5.470
   56POPC   H5R 7422   5.545   8.066   5.409
   56POPC   H5S 7423   5.672   8.188   5.439
   56POPC   C26 7424   5.471   8.269   5.440
   56POPC   H6R 7425   5.517   8.366   5.468
   56POPC   H6S 7426   5.379   8.257   5.500
   56POPC   C27 7427   5.434   8.271   5.291
   56POPC   H7R 7428   5.526   8.257   5.231
   56POPC   H7S 7429   5.393   8.372   5.265
   56POPC   C28 7430   5.332   8.162   5.254
   56POPC   H8R 7431   5.362   8.065   5.299
   56POPC   H8S 7432   5.335   8.147   5.144
   56POPC   C29 7433   5.194   8.200   5.301
   56POPC   H91 7434   5.168   8.170   5.404
   56POPC  C210 7435   5.103   8.263   5.226
   56POPC  H101 7436   5.004   8.281   5.270
   56POPC  C211 7437   5.121   8.307   5.082
   56POPC  H11R 7438   5.227   8.299   5.047
   56POPC  H11S 7439   5.094   8.414   5.067
   56POPC  C212 7440   5.034   8.216   4.994
   56POPC  H12R 7441   4.927   8.220   5.025
   56POPC  H12S 7442   5.070   8.113   5.013
   56POPC  C213 7443   5.045   8.247   4.844
   56POPC  H13R 7444   5.152   8.264   4.824
   56POPC  H13S 7445   4.995   8.342   4.821
   56POPC  C214 7446   4.989   8.139   4.750
   56POPC  H14R 7447   5.023   8.161   4.646
   56POPC  H14S 7448   4.877   8.143   4.750
   56POPC  C215 7449   5.035   8.000   4.794
   56POPC  H15R 7450   4.978   7.971   4.886
   56POPC  H15S 7451   5.142   8.007   4.821
   56POPC  C216 7452   5.021   7.885   4.693
   56POPC  H16R 7453   5.067   7.911   4.596
   56POPC  H16S 7454   4.914   7.864   4.677
   56POPC  C217 7455   5.091   7.761   4.752
   56POPC  H17R 7456   5.087   7.770   4.862
   56POPC  H17S 7457   5.198   7.761   4.721
   56POPC  C218 7458   5.032   7.625   4.717
   56POPC  H18R 7459   5.065   7.548   4.789
   56POPC  H18S 7460   5.064   7.593   4.616
   56POPC  H18T 7461   4.921   7.632   4.719
   56POPC   C33 7462   5.026   7.751   5.157
   56POPC   H3X 7463   4.996   7.759   5.051
   56POPC   H3Y 7464   4.967   7.667   5.201
   56POPC   C34 7465   5.176   7.713   5.158
   56POPC   H4X 7466   5.189   7.623   5.093
   56POPC   H4Y 7467   5.209   7.684   5.260
   56POPC   C35 7468   5.265   7.826   5.105
   56POPC   H5X 7469   5.259   7.914   5.173
   56POPC   H5Y 7470   5.220   7.858   5.009
   56POPC   C36 7471   5.413   7.787   5.087
   56POPC   H6X 7472   5.419   7.681   5.054
   56POPC   H6Y 7473   5.464   7.794   5.186
   56POPC   C37 7474   5.486   7.874   4.984
   56POPC   H7X 7475   5.594   7.849   4.983
   56POPC   H7Y 7476   5.476   7.981   5.014
   56POPC   C38 7477   5.431   7.857   4.841
   56POPC   H8X 7478   5.321   7.864   4.842
   56POPC   H8Y 7479   5.457   7.755   4.805
   56POPC   C39 7480   5.478   7.962   4.739
   56POPC   H9X 7481   5.452   7.924   4.638
   56POPC   H9Y 7482   5.588   7.970   4.744
   56POPC  C310 7483   5.409   8.098   4.758
   56POPC  H10X 7484   5.482   8.179   4.774
   56POPC  H10Y 7485   5.347   8.093   4.851
   56POPC  C311 7486   5.318   8.138   4.642
   56POPC  H11X 7487   5.263   8.230   4.669
   56POPC  H11Y 7488   5.244   8.056   4.625
   56POPC  C312 7489   5.385   8.169   4.508
   56POPC  H12X 7490   5.433   8.076   4.470
   56POPC  H12Y 7491   5.464   8.246   4.521
   56POPC  C313 7492   5.277   8.218   4.411
   56POPC  H13X 7493   5.263   8.328   4.421
   56POPC  H13Y 7494   5.181   8.170   4.439
   56POPC  C314 7495   5.306   8.179   4.266
   56POPC  H14X 7496   5.336   8.073   4.268
   56POPC  H14Y 7497   5.392   8.238   4.228
   56POPC  C315 7498   5.184   8.193   4.173
   56POPC  H15X 7499   5.223   8.217   4.071
   56POPC  H15Y 7500   5.123   8.280   4.206
   56POPC  C316 7501   5.098   8.067   4.163
   56POPC  H16X 7502   5.011   8.083   4.095
   56POPC  H16Y 7503   5.060   8.036   4.263
   56POPC  H16Z 7504   5.159   7.984   4.122
   57POPC     N 7505   6.325   8.050   6.072
   57POPC   C12 7506   6.223   7.950   6.018
   57POPC  H12A 7507   6.246   7.925   5.916
   57POPC  H12B 7508   6.126   7.998   6.016
   57POPC   C13 7509   6.288   8.086   6.212
   57POPC  H13A 7510   6.195   8.141   6.214
   57POPC  H13B 7511   6.271   7.992   6.265
   57POPC  H13C 7512   6.366   8.141   6.263
   57POPC   C14 7513   6.463   7.990   6.073
   57POPC  H14A 7514   6.462   7.894   6.124
   57POPC  H14B 7515   6.499   7.978   5.971
   57POPC  H14C 7516   6.533   8.058   6.120
   57POPC   C15 7517   6.328   8.175   5.992
   57POPC  H15A 7518   6.238   8.233   6.003
   57POPC  H15B 7519   6.346   8.155   5.887
   57POPC  H15C 7520   6.414   8.236   6.023
   57POPC   C11 7521   6.203   7.818   6.098
   57POPC  H11A 7522   6.299   7.763   6.106
   57POPC  H11B 7523   6.132   7.753   6.042
   57POPC     P 7524   6.029   7.784   6.298
   57POPC   O13 7525   5.961   7.891   6.376
   57POPC   O14 7526   6.064   7.658   6.368
   57POPC   O12 7527   6.155   7.848   6.229
   57POPC   O11 7528   5.934   7.753   6.172
   57POPC    C1 7529   5.875   7.868   6.110
   57POPC    HA 7530   5.950   7.949   6.097
   57POPC    HB 7531   5.791   7.906   6.173
   57POPC    C2 7532   5.817   7.845   5.967
   57POPC    HS 7533   5.719   7.792   5.980
   57POPC   O21 7534   5.905   7.765   5.883
   57POPC   C21 7535   5.857   7.745   5.761
   57POPC   O22 7536   5.744   7.770   5.724
   57POPC   C22 7537   5.967   7.696   5.670
   57POPC   H2R 7538   5.983   7.588   5.688
   57POPC   H2S 7539   6.061   7.751   5.693
   57POPC    C3 7540   5.792   7.987   5.905
   57POPC    HX 7541   5.749   8.050   5.986
   57POPC    HY 7542   5.716   7.981   5.825
   57POPC   O31 7543   5.916   8.043   5.853
   57POPC   C31 7544   5.914   8.173   5.830
   57POPC   O32 7545   5.829   8.252   5.869
   57POPC   C32 7546   6.036   8.219   5.749
   57POPC   H2X 7547   6.112   8.258   5.820
   57POPC   H2Y 7548   6.002   8.303   5.686
   57POPC   C23 7549   5.919   7.722   5.527
   57POPC   H3R 7550   5.896   7.830   5.512
   57POPC   H3S 7551   5.824   7.666   5.509
   57POPC   C24 7552   6.018   7.681   5.418
   57POPC   H4R 7553   6.057   7.579   5.437
   57POPC   H4S 7554   6.104   7.751   5.418
   57POPC   C25 7555   5.948   7.683   5.281
   57POPC   H5R 7556   5.875   7.767   5.278
   57POPC   H5S 7557   5.891   7.588   5.268
   57POPC   C26 7558   6.047   7.702   5.168
   57POPC   H6R 7559   6.127   7.626   5.180
   57POPC   H6S 7560   6.097   7.800   5.181
   57POPC   C27 7561   5.983   7.690   5.028
   57POPC   H7R 7562   5.913   7.603   5.027
   57POPC   H7S 7563   6.065   7.667   4.955
   57POPC   C28 7564   5.910   7.817   4.980
   57POPC   H8R 7565   5.824   7.838   5.046
   57POPC   H8S 7566   5.872   7.799   4.877
   57POPC   C29 7567   6.011   7.928   4.980
   57POPC   H91 7568   6.111   7.895   4.951
   57POPC  C210 7569   5.994   8.057   5.013
   57POPC  H101 7570   6.080   8.125   5.005
   57POPC  C211 7571   5.868   8.124   5.060
   57POPC  H11R 7572   5.870   8.139   5.170
   57POPC  H11S 7573   5.778   8.064   5.036
   57POPC  C212 7574   5.859   8.262   4.991
   57POPC  H12R 7575   5.939   8.328   5.030
   57POPC  H12S 7576   5.761   8.308   5.018
   57POPC  C213 7577   5.870   8.257   4.837
   57POPC  H13R 7578   5.971   8.224   4.805
   57POPC  H13S 7579   5.853   8.360   4.797
   57POPC  C214 7580   5.765   8.163   4.777
   57POPC  H14R 7581   5.669   8.193   4.826
   57POPC  H14S 7582   5.784   8.059   4.808
   57POPC  C215 7583   5.749   8.172   4.624
   57POPC  H15R 7584   5.745   8.279   4.594
   57POPC  H15S 7585   5.651   8.127   4.597
   57POPC  C216 7586   5.857   8.097   4.545
   57POPC  H16R 7587   5.955   8.145   4.565
   57POPC  H16S 7588   5.835   8.109   4.436
   57POPC  C217 7589   5.868   7.948   4.578
   57POPC  H17R 7590   5.766   7.903   4.575
   57POPC  H17S 7591   5.906   7.937   4.682
   57POPC  C218 7592   5.959   7.868   4.485
   57POPC  H18R 7593   5.980   7.767   4.526
   57POPC  H18S 7594   6.056   7.921   4.471
   57POPC  H18T 7595   5.912   7.856   4.386
   57POPC   C33 7596   6.101   8.111   5.658
   57POPC   H3X 7597   6.034   8.023   5.644
   57POPC   H3Y 7598   6.195   8.075   5.705
   57POPC   C34 7599   6.134   8.164   5.517
   57POPC   H4X 7600   6.197   8.256   5.525
   57POPC   H4Y 7601   6.041   8.191   5.463
   57POPC   C35 7602   6.210   8.059   5.435
   57POPC   H5X 7603   6.144   7.971   5.419
   57POPC   H5Y 7604   6.299   8.024   5.492
   57POPC   C36 7605   6.258   8.109   5.298
   57POPC   H6X 7606   6.324   8.197   5.310
   57POPC   H6Y 7607   6.170   8.139   5.237
   57POPC   C37 7608   6.335   7.998   5.224
   57POPC   H7X 7609   6.271   7.907   5.221
   57POPC   H7Y 7610   6.427   7.972   5.281
   57POPC   C38 7611   6.372   8.037   5.081
   57POPC   H8X 7612   6.444   8.121   5.085
   57POPC   H8Y 7613   6.282   8.074   5.029
   57POPC   C39 7614   6.433   7.919   5.005
   57POPC   H9X 7615   6.378   7.826   5.029
   57POPC   H9Y 7616   6.537   7.908   5.043
   57POPC  C310 7617   6.437   7.936   4.852
   57POPC  H10X 7618   6.497   7.855   4.806
   57POPC  H10Y 7619   6.487   8.033   4.828
   57POPC  C311 7620   6.300   7.932   4.784
   57POPC  H11X 7621   6.234   8.005   4.834
   57POPC  H11Y 7622   6.255   7.830   4.792
   57POPC  C312 7623   6.307   7.974   4.637
   57POPC  H12X 7624   6.385   8.053   4.625
   57POPC  H12Y 7625   6.209   8.020   4.610
   57POPC  C313 7626   6.336   7.859   4.541
   57POPC  H13X 7627   6.251   7.787   4.545
   57POPC  H13Y 7628   6.429   7.806   4.570
   57POPC  C314 7629   6.347   7.913   4.398
   57POPC  H14X 7630   6.439   7.975   4.386
   57POPC  H14Y 7631   6.257   7.976   4.386
   57POPC  C315 7632   6.339   7.805   4.291
   57POPC  H15X 7633   6.240   7.756   4.306
   57POPC  H15Y 7634   6.422   7.734   4.309
   57POPC  C316 7635   6.347   7.850   4.146
   57POPC  H16X 7636   6.280   7.936   4.128
   57POPC  H16Y 7637   6.318   7.769   4.076
   57POPC  H16Z 7638   6.450   7.880   4.121
   58POPC     N 7639   1.280   4.564   6.266
   58POPC   C12 7640   1.305   4.489   6.135
   58POPC  H12A 7641   1.405   4.507   6.098
   58POPC  H12B 7642   1.236   4.527   6.059
   58POPC   C13 7643   1.141   4.531   6.312
   58POPC  H13A 7644   1.070   4.566   6.239
   58POPC  H13B 7645   1.128   4.422   6.315
   58POPC  H13C 7646   1.118   4.574   6.409
   58POPC   C14 7647   1.374   4.519   6.373
   58POPC  H14A 7648   1.363   4.411   6.386
   58POPC  H14B 7649   1.478   4.542   6.352
   58POPC  H14C 7650   1.346   4.563   6.468
   58POPC   C15 7651   1.290   4.714   6.251
   58POPC  H15A 7652   1.258   4.760   6.344
   58POPC  H15B 7653   1.223   4.757   6.176
   58POPC  H15C 7654   1.391   4.745   6.229
   58POPC   C11 7655   1.286   4.335   6.135
   58POPC  H11A 7656   1.346   4.289   6.216
   58POPC  H11B 7657   1.329   4.294   6.040
   58POPC     P 7658   1.059   4.274   6.024
   58POPC   O13 7659   0.932   4.211   6.067
   58POPC   O14 7660   1.139   4.209   5.919
   58POPC   O12 7661   1.149   4.298   6.153
   58POPC   O11 7662   1.026   4.426   5.994
   58POPC    C1 7663   0.943   4.466   5.885
   58POPC    HA 7664   0.919   4.574   5.898
   58POPC    HB 7665   0.847   4.410   5.884
   58POPC    C2 7666   1.013   4.452   5.747
   58POPC    HS 7667   1.029   4.343   5.728
   58POPC   O21 7668   1.137   4.524   5.753
   58POPC   C21 7669   1.230   4.481   5.670
   58POPC   O22 7670   1.226   4.382   5.599
   58POPC   C22 7671   1.344   4.582   5.672
   58POPC   H2R 7672   1.416   4.546   5.747
   58POPC   H2S 7673   1.307   4.680   5.706
   58POPC    C3 7674   0.922   4.510   5.633
   58POPC    HX 7675   0.900   4.616   5.658
   58POPC    HY 7676   0.825   4.456   5.633
   58POPC   O31 7677   0.987   4.506   5.504
   58POPC   C31 7678   0.979   4.390   5.441
   58POPC   O32 7679   0.909   4.296   5.473
   58POPC   C32 7680   1.067   4.398   5.315
   58POPC   H2X 7681   1.171   4.408   5.352
   58POPC   H2Y 7682   1.040   4.490   5.260
   58POPC   C23 7683   1.405   4.593   5.532
   58POPC   H3R 7684   1.421   4.494   5.485
   58POPC   H3S 7685   1.504   4.645   5.538
   58POPC   C24 7686   1.315   4.679   5.446
   58POPC   H4R 7687   1.309   4.777   5.498
   58POPC   H4S 7688   1.212   4.637   5.438
   58POPC   C25 7689   1.371   4.704   5.307
   58POPC   H5R 7690   1.481   4.714   5.316
   58POPC   H5S 7691   1.330   4.801   5.269
   58POPC   C26 7692   1.336   4.591   5.212
   58POPC   H6R 7693   1.226   4.587   5.200
   58POPC   H6S 7694   1.368   4.494   5.257
   58POPC   C27 7695   1.402   4.608   5.074
   58POPC   H7R 7696   1.376   4.520   5.011
   58POPC   H7S 7697   1.512   4.604   5.089
   58POPC   C28 7698   1.365   4.739   5.003
   58POPC   H8R 7699   1.413   4.741   4.903
   58POPC   H8S 7700   1.407   4.826   5.055
   58POPC   C29 7701   1.215   4.757   5.000
   58POPC   H91 7702   1.169   4.777   5.098
   58POPC  C210 7703   1.138   4.755   4.891
   58POPC  H101 7704   1.029   4.766   4.901
   58POPC  C211 7705   1.188   4.734   4.752
   58POPC  H11R 7706   1.255   4.817   4.722
   58POPC  H11S 7707   1.100   4.742   4.685
   58POPC  C212 7708   1.260   4.600   4.729
   58POPC  H12R 7709   1.191   4.515   4.746
   58POPC  H12S 7710   1.345   4.584   4.799
   58POPC  C213 7711   1.319   4.593   4.588
   58POPC  H13R 7712   1.363   4.493   4.573
   58POPC  H13S 7713   1.400   4.668   4.579
   58POPC  C214 7714   1.215   4.622   4.481
   58POPC  H14R 7715   1.254   4.596   4.381
   58POPC  H14S 7716   1.194   4.731   4.479
   58POPC  C215 7717   1.084   4.546   4.506
   58POPC  H15R 7718   1.041   4.564   4.607
   58POPC  H15S 7719   1.103   4.437   4.498
   58POPC  C216 7720   0.979   4.594   4.408
   58POPC  H16R 7721   1.018   4.572   4.306
   58POPC  H16S 7722   0.965   4.704   4.419
   58POPC  C217 7723   0.844   4.525   4.426
   58POPC  H17R 7724   0.781   4.592   4.487
   58POPC  H17S 7725   0.856   4.433   4.486
   58POPC  C218 7726   0.783   4.493   4.290
   58POPC  H18R 7727   0.860   4.447   4.224
   58POPC  H18S 7728   0.744   4.584   4.240
   58POPC  H18T 7729   0.701   4.418   4.298
   58POPC   C33 7730   1.059   4.275   5.222
   58POPC   H3X 7731   0.961   4.273   5.169
   58POPC   H3Y 7732   1.064   4.183   5.284
   58POPC   C34 7733   1.175   4.271   5.121
   58POPC   H4X 7734   1.270   4.284   5.176
   58POPC   H4Y 7735   1.165   4.356   5.050
   58POPC   C35 7736   1.180   4.138   5.044
   58POPC   H5X 7737   1.085   4.122   4.988
   58POPC   H5Y 7738   1.187   4.057   5.121
   58POPC   C36 7739   1.300   4.122   4.948
   58POPC   H6X 7740   1.315   4.012   4.932
   58POPC   H6Y 7741   1.392   4.162   4.994
   58POPC   C37 7742   1.279   4.184   4.809
   58POPC   H7X 7743   1.281   4.295   4.817
   58POPC   H7Y 7744   1.179   4.155   4.770
   58POPC   C38 7745   1.386   4.139   4.707
   58POPC   H8X 7746   1.391   4.027   4.706
   58POPC   H8Y 7747   1.485   4.177   4.739
   58POPC   C39 7748   1.357   4.187   4.564
   58POPC   H9X 7749   1.322   4.292   4.568
   58POPC   H9Y 7750   1.275   4.126   4.520
   58POPC  C310 7751   1.480   4.179   4.472
   58POPC  H10X 7752   1.515   4.073   4.470
   58POPC  H10Y 7753   1.563   4.241   4.512
   58POPC  C311 7754   1.450   4.220   4.327
   58POPC  H11X 7755   1.358   4.167   4.294
   58POPC  H11Y 7756   1.534   4.188   4.261
   58POPC  C312 7757   1.429   4.371   4.305
   58POPC  H12X 7758   1.524   4.423   4.327
   58POPC  H12Y 7759   1.351   4.408   4.374
   58POPC  C313 7760   1.386   4.398   4.160
   58POPC  H13X 7761   1.284   4.356   4.151
   58POPC  H13Y 7762   1.453   4.341   4.092
   58POPC  C314 7763   1.377   4.543   4.109
   58POPC  H14X 7764   1.474   4.595   4.125
   58POPC  H14Y 7765   1.298   4.597   4.165
   58POPC  C315 7766   1.341   4.543   3.960
   58POPC  H15X 7767   1.404   4.467   3.908
   58POPC  H15Y 7768   1.362   4.641   3.913
   58POPC  C316 7769   1.194   4.508   3.938
   58POPC  H16X 7770   1.175   4.456   3.842
   58POPC  H16Y 7771   1.131   4.598   3.941
   58POPC  H16Z 7772   1.157   4.447   4.022
   59POPC     N 7773   1.346   3.415   6.297
   59POPC   C12 7774   1.250   3.530   6.275
   59POPC  H12A 7775   1.310   3.619   6.254
   59POPC  H12B 7776   1.199   3.549   6.369
   59POPC   C13 7777   1.448   3.413   6.187
   59POPC  H13A 7778   1.525   3.487   6.203
   59POPC  H13B 7779   1.494   3.316   6.178
   59POPC  H13C 7780   1.401   3.439   6.092
   59POPC   C14 7781   1.411   3.439   6.430
   59POPC  H14A 7782   1.486   3.365   6.455
   59POPC  H14B 7783   1.462   3.535   6.434
   59POPC  H14C 7784   1.338   3.440   6.510
   59POPC   C15 7785   1.270   3.287   6.302
   59POPC  H15A 7786   1.227   3.267   6.205
   59POPC  H15B 7787   1.188   3.296   6.374
   59POPC  H15C 7788   1.334   3.204   6.333
   59POPC   C11 7789   1.141   3.523   6.164
   59POPC  H11A 7790   1.059   3.594   6.190
   59POPC  H11B 7791   1.094   3.423   6.161
   59POPC     P 7792   1.283   3.685   6.016
   59POPC   O13 7793   1.416   3.632   5.979
   59POPC   O14 7794   1.275   3.767   6.140
   59POPC   O12 7795   1.191   3.557   6.036
   59POPC   O11 7796   1.215   3.763   5.896
   59POPC    C1 7797   1.079   3.806   5.904
   59POPC    HA 7798   1.074   3.915   5.927
   59POPC    HB 7799   1.024   3.752   5.986
   59POPC    C2 7800   1.001   3.777   5.773
   59POPC    HS 7801   0.898   3.749   5.807
   59POPC   O21 7802   1.064   3.674   5.695
   59POPC   C21 7803   0.981   3.590   5.639
   59POPC   O22 7804   0.866   3.572   5.674
   59POPC   C22 7805   1.050   3.524   5.523
   59POPC   H2R 7806   1.015   3.419   5.514
   59POPC   H2S 7807   1.159   3.524   5.545
   59POPC    C3 7808   0.982   3.903   5.680
   59POPC    HX 7809   0.935   3.983   5.740
   59POPC    HY 7810   0.906   3.869   5.605
   59POPC   O31 7811   1.105   3.951   5.619
   59POPC   C31 7812   1.109   3.947   5.486
   59POPC   O32 7813   1.014   3.926   5.413
   59POPC   C32 7814   1.252   3.962   5.432
   59POPC   H2X 7815   1.323   3.972   5.516
   59POPC   H2Y 7816   1.255   4.053   5.369
   59POPC   C23 7817   1.026   3.591   5.386
   59POPC   H3R 7818   1.036   3.700   5.391
   59POPC   H3S 7819   0.924   3.565   5.349
   59POPC   C24 7820   1.132   3.533   5.294
   59POPC   H4R 7821   1.102   3.428   5.291
   59POPC   H4S 7822   1.233   3.541   5.340
   59POPC   C25 7823   1.139   3.578   5.149
   59POPC   H5R 7824   1.232   3.533   5.107
   59POPC   H5S 7825   1.146   3.688   5.140
   59POPC   C26 7826   1.020   3.528   5.068
   59POPC   H6R 7827   0.929   3.571   5.112
   59POPC   H6S 7828   1.003   3.420   5.077
   59POPC   C27 7829   1.033   3.555   4.919
   59POPC   H7R 7830   1.026   3.664   4.902
   59POPC   H7S 7831   0.946   3.506   4.870
   59POPC   C28 7832   1.165   3.502   4.855
   59POPC   H8R 7833   1.249   3.561   4.897
   59POPC   H8S 7834   1.164   3.530   4.747
   59POPC   C29 7835   1.194   3.355   4.872
   59POPC   H91 7836   1.234   3.329   4.971
   59POPC  C210 7837   1.178   3.254   4.782
   59POPC  H101 7838   1.205   3.152   4.814
   59POPC  C211 7839   1.127   3.264   4.640
   59POPC  H11R 7840   1.181   3.193   4.574
   59POPC  H11S 7841   1.146   3.365   4.599
   59POPC  C212 7842   0.976   3.232   4.637
   59POPC  H12R 7843   0.927   3.274   4.728
   59POPC  H12S 7844   0.962   3.122   4.643
   59POPC  C213 7845   0.895   3.286   4.516
   59POPC  H13R 7846   0.788   3.272   4.542
   59POPC  H13S 7847   0.914   3.232   4.422
   59POPC  C214 7848   0.912   3.435   4.484
   59POPC  H14R 7849   0.834   3.465   4.410
   59POPC  H14S 7850   1.011   3.452   4.436
   59POPC  C215 7851   0.898   3.520   4.609
   59POPC  H15R 7852   0.986   3.499   4.671
   59POPC  H15S 7853   0.808   3.488   4.666
   59POPC  C216 7854   0.892   3.669   4.582
   59POPC  H16R 7855   0.872   3.724   4.677
   59POPC  H16S 7856   0.804   3.683   4.517
   59POPC  C217 7857   1.021   3.723   4.521
   59POPC  H17R 7858   1.037   3.679   4.420
   59POPC  H17S 7859   1.105   3.688   4.586
   59POPC  C218 7860   1.028   3.876   4.513
   59POPC  H18R 7861   0.994   3.910   4.413
   59POPC  H18S 7862   1.132   3.911   4.527
   59POPC  H18T 7863   0.965   3.923   4.591
   59POPC   C33 7864   1.288   3.838   5.346
   59POPC   H3X 7865   1.223   3.839   5.255
   59POPC   H3Y 7866   1.267   3.746   5.405
   59POPC   C34 7867   1.434   3.829   5.301
   59POPC   H4X 7868   1.498   3.812   5.390
   59POPC   H4Y 7869   1.464   3.925   5.253
   59POPC   C35 7870   1.458   3.715   5.200
   59POPC   H5X 7871   1.390   3.730   5.113
   59POPC   H5Y 7872   1.431   3.618   5.247
   59POPC   C36 7873   1.603   3.710   5.150
   59POPC   H6X 7874   1.668   3.685   5.237
   59POPC   H6Y 7875   1.632   3.810   5.113
   59POPC   C37 7876   1.628   3.607   5.039
   59POPC   H7X 7877   1.589   3.507   5.071
   59POPC   H7Y 7878   1.738   3.597   5.025
   59POPC   C38 7879   1.565   3.644   4.904
   59POPC   H8X 7880   1.604   3.743   4.871
   59POPC   H8Y 7881   1.455   3.652   4.914
   59POPC   C39 7882   1.598   3.538   4.798
   59POPC   H9X 7883   1.544   3.445   4.826
   59POPC   H9Y 7884   1.708   3.517   4.801
   59POPC  C310 7885   1.561   3.576   4.655
   59POPC  H10X 7886   1.612   3.507   4.584
   59POPC  H10Y 7887   1.599   3.679   4.634
   59POPC  C311 7888   1.410   3.567   4.629
   59POPC  H11X 7889   1.357   3.641   4.692
   59POPC  H11Y 7890   1.376   3.465   4.660
   59POPC  C312 7891   1.370   3.586   4.482
   59POPC  H12X 7892   1.262   3.563   4.469
   59POPC  H12Y 7893   1.427   3.514   4.420
   59POPC  C313 7894   1.396   3.729   4.433
   59POPC  H13X 7895   1.496   3.762   4.469
   59POPC  H13Y 7896   1.321   3.799   4.475
   59POPC  C314 7897   1.401   3.739   4.280
   59POPC  H14X 7898   1.465   3.657   4.240
   59POPC  H14Y 7899   1.450   3.836   4.253
   59POPC  C315 7900   1.265   3.734   4.211
   59POPC  H15X 7901   1.202   3.819   4.247
   59POPC  H15Y 7902   1.212   3.640   4.236
   59POPC  C316 7903   1.285   3.744   4.060
   59POPC  H16X 7904   1.344   3.835   4.035
   59POPC  H16Y 7905   1.189   3.750   4.007
   59POPC  H16Z 7906   1.341   3.657   4.021
   60POPC     N 7907   8.153   5.540   6.347
   60POPC   C12 7908   8.094   5.465   6.227
   60POPC  H12A 7909   8.043   5.538   6.165
   60POPC  H12B 7910   8.021   5.394   6.263
   60POPC   C13 7911   8.236   5.655   6.294
   60POPC  H13A 7912   8.326   5.617   6.248
   60POPC  H13B 7913   8.184   5.705   6.212
   60POPC  H13C 7914   8.261   5.726   6.372
   60POPC   C14 7915   8.041   5.592   6.433
   60POPC  H14A 7916   7.986   5.511   6.479
   60POPC  H14B 7917   8.078   5.656   6.512
   60POPC  H14C 7918   7.970   5.650   6.375
   60POPC   C15 7919   8.240   5.449   6.428
   60POPC  H15A 7920   8.317   5.407   6.365
   60POPC  H15B 7921   8.183   5.366   6.471
   60POPC  H15C 7922   8.289   5.500   6.510
   60POPC   C11 7923   8.190   5.391   6.130
   60POPC  H11A 7924   8.130   5.326   6.063
   60POPC  H11B 7925   8.258   5.324   6.186
   60POPC     P 7926   8.201   5.563   5.935
   60POPC   O13 7927   8.126   5.674   6.001
   60POPC   O14 7928   8.125   5.466   5.853
   60POPC   O12 7929   8.268   5.483   6.055
   60POPC   O11 7930   8.333   5.613   5.862
   60POPC    C1 7931   8.451   5.630   5.944
   60POPC    HA 7932   8.492   5.533   5.978
   60POPC    HB 7933   8.426   5.688   6.036
   60POPC    C2 7934   8.567   5.711   5.878
   60POPC    HS 7935   8.625   5.762   5.959
   60POPC   O21 7936   8.517   5.810   5.788
   60POPC   C21 7937   8.426   5.892   5.835
   60POPC   O22 7938   8.400   5.915   5.951
   60POPC   C22 7939   8.362   5.966   5.719
   60POPC   H2R 7940   8.416   5.942   5.625
   60POPC   H2S 7941   8.369   6.075   5.739
   60POPC    C3 7942   8.670   5.621   5.801
   60POPC    HX 7943   8.735   5.574   5.878
   60POPC    HY 7944   8.737   5.685   5.740
   60POPC   O31 7945   8.608   5.514   5.725
   60POPC   C31 7946   8.569   5.550   5.603
   60POPC   O32 7947   8.606   5.650   5.545
   60POPC   C32 7948   8.469   5.449   5.547
   60POPC   H2X 7949   8.370   5.468   5.594
   60POPC   H2Y 7950   8.503   5.347   5.575
   60POPC   C23 7951   8.216   5.920   5.711
   60POPC   H3R 7952   8.167   5.924   5.811
   60POPC   H3S 7953   8.216   5.812   5.680
   60POPC   C24 7954   8.132   6.000   5.612
   60POPC   H4R 7955   8.193   6.023   5.522
   60POPC   H4S 7956   8.103   6.096   5.661
   60POPC   C25 7957   8.008   5.920   5.570
   60POPC   H5R 7958   7.930   5.990   5.534
   60POPC   H5S 7959   7.966   5.867   5.659
   60POPC   C26 7960   8.036   5.820   5.457
   60POPC   H6R 7961   8.099   5.737   5.496
   60POPC   H6S 7962   8.093   5.871   5.376
   60POPC   C27 7963   7.906   5.765   5.398
   60POPC   H7R 7964   7.846   5.851   5.361
   60POPC   H7S 7965   7.847   5.715   5.479
   60POPC   C28 7966   7.930   5.665   5.284
   60POPC   H8R 7967   7.980   5.575   5.326
   60POPC   H8S 7968   8.002   5.712   5.213
   60POPC   C29 7969   7.802   5.629   5.213
   60POPC   H91 7970   7.709   5.654   5.266
   60POPC  C210 7971   7.797   5.569   5.093
   60POPC  H101 7972   7.698   5.549   5.047
   60POPC  C211 7973   7.917   5.528   5.012
   60POPC  H11R 7974   7.898   5.432   4.959
   60POPC  H11S 7975   8.005   5.510   5.077
   60POPC  C212 7976   7.956   5.636   4.909
   60POPC  H12R 7977   7.965   5.735   4.959
   60POPC  H12S 7978   7.876   5.643   4.831
   60POPC  C213 7979   8.091   5.603   4.843
   60POPC  H13R 7980   8.084   5.506   4.790
   60POPC  H13S 7981   8.168   5.592   4.922
   60POPC  C214 7982   8.138   5.711   4.744
   60POPC  H14R 7983   8.238   5.681   4.706
   60POPC  H14S 7984   8.151   5.808   4.797
   60POPC  C215 7985   8.045   5.729   4.625
   60POPC  H15R 7986   7.951   5.779   4.657
   60POPC  H15S 7987   8.019   5.628   4.586
   60POPC  C216 7988   8.111   5.811   4.512
   60POPC  H16R 7989   8.198   5.753   4.474
   60POPC  H16S 7990   8.150   5.907   4.552
   60POPC  C217 7991   8.016   5.839   4.394
   60POPC  H17R 7992   8.077   5.872   4.307
   60POPC  H17S 7993   7.947   5.921   4.421
   60POPC  C218 7994   7.934   5.717   4.354
   60POPC  H18R 7995   7.999   5.628   4.343
   60POPC  H18S 7996   7.880   5.735   4.259
   60POPC  H18T 7997   7.858   5.694   4.432
   60POPC   C33 7998   8.458   5.458   5.392
   60POPC   H3X 7999   8.412   5.364   5.354
   60POPC   H3Y 8000   8.561   5.464   5.351
   60POPC   C34 8001   8.372   5.576   5.344
   60POPC   H4X 8002   8.410   5.670   5.390
   60POPC   H4Y 8003   8.267   5.562   5.378
   60POPC   C35 8004   8.373   5.595   5.192
   60POPC   H5X 8005   8.307   5.681   5.166
   60POPC   H5Y 8006   8.332   5.505   5.142
   60POPC   C36 8007   8.513   5.624   5.137
   60POPC   H6X 8008   8.581   5.539   5.156
   60POPC   H6Y 8009   8.555   5.713   5.190
   60POPC   C37 8010   8.512   5.651   4.987
   60POPC   H7X 8011   8.437   5.731   4.964
   60POPC   H7Y 8012   8.480   5.559   4.933
   60POPC   C38 8013   8.649   5.695   4.938
   60POPC   H8X 8014   8.723   5.613   4.948
   60POPC   H8Y 8015   8.684   5.780   5.002
   60POPC   C39 8016   8.646   5.743   4.793
   60POPC   H9X 8017   8.745   5.790   4.774
   60POPC   H9Y 8018   8.567   5.819   4.779
   60POPC  C310 8019   8.630   5.632   4.691
   60POPC  H10X 8020   8.669   5.538   4.733
   60POPC  H10Y 8021   8.691   5.657   4.601
   60POPC  C311 8022   8.488   5.607   4.643
   60POPC  H11X 8023   8.443   5.703   4.611
   60POPC  H11Y 8024   8.425   5.566   4.725
   60POPC  C312 8025   8.486   5.510   4.526
   60POPC  H12X 8026   8.504   5.406   4.560
   60POPC  H12Y 8027   8.567   5.537   4.454
   60POPC  C313 8028   8.353   5.520   4.453
   60POPC  H13X 8029   8.348   5.622   4.411
   60POPC  H13Y 8030   8.268   5.509   4.524
   60POPC  C314 8031   8.342   5.422   4.339
   60POPC  H14X 8032   8.326   5.319   4.378
   60POPC  H14Y 8033   8.437   5.422   4.281
   60POPC  C315 8034   8.228   5.463   4.247
   60POPC  H15X 8035   8.227   5.574   4.235
   60POPC  H15Y 8036   8.132   5.433   4.295
   60POPC  C316 8037   8.243   5.400   4.110
   60POPC  H16X 8038   8.165   5.433   4.041
   60POPC  H16Y 8039   8.238   5.290   4.118
   60POPC  H16Z 8040   8.340   5.431   4.066
   61POPC     N 8041   2.196   2.246   5.980
   61POPC   C12 8042   2.114   2.122   6.015
   61POPC  H12A 8043   2.183   2.037   6.021
   61POPC  H12B 8044   2.044   2.101   5.936
   61POPC   C13 8045   2.124   2.368   6.030
   61POPC  H13A 8046   2.100   2.350   6.135
   61POPC  H13B 8047   2.185   2.457   6.027
   61POPC  H13C 8048   2.031   2.384   5.977
   61POPC   C14 8049   2.327   2.237   6.053
   61POPC  H14A 8050   2.310   2.213   6.158
   61POPC  H14B 8051   2.392   2.159   6.015
   61POPC  H14C 8052   2.382   2.330   6.051
   61POPC   C15 8053   2.218   2.254   5.833
   61POPC  H15A 8054   2.124   2.268   5.780
   61POPC  H15B 8055   2.265   2.164   5.793
   61POPC  H15C 8056   2.282   2.339   5.810
   61POPC   C11 8057   2.037   2.121   6.151
   61POPC  H11A 8058   1.985   2.023   6.160
   61POPC  H11B 8059   1.957   2.198   6.149
   61POPC     P 8060   2.208   2.025   6.321
   61POPC   O13 8061   2.115   1.926   6.382
   61POPC   O14 8062   2.323   2.078   6.400
   61POPC   O12 8063   2.123   2.146   6.263
   61POPC   O11 8064   2.262   1.965   6.185
   61POPC    C1 8065   2.387   1.903   6.161
   61POPC    HA 8066   2.416   1.841   6.249
   61POPC    HB 8067   2.466   1.980   6.147
   61POPC    C2 8068   2.381   1.810   6.036
   61POPC    HS 8069   2.472   1.747   6.045
   61POPC   O21 8070   2.382   1.886   5.913
   61POPC   C21 8071   2.437   1.823   5.808
   61POPC   O22 8072   2.487   1.712   5.812
   61POPC   C22 8073   2.425   1.914   5.686
   61POPC   H2R 8074   2.418   2.019   5.721
   61POPC   H2S 8075   2.330   1.887   5.634
   61POPC    C3 8076   2.255   1.716   6.038
   61POPC    HX 8077   2.249   1.675   6.141
   61POPC    HY 8078   2.280   1.631   5.971
   61POPC   O31 8079   2.127   1.776   6.007
   61POPC   C31 8080   2.076   1.744   5.888
   61POPC   O32 8081   2.133   1.680   5.801
   61POPC   C32 8082   1.928   1.785   5.884
   61POPC   H2X 8083   1.908   1.857   5.966
   61POPC   H2Y 8084   1.869   1.693   5.904
   61POPC   C23 8085   2.545   1.903   5.589
   61POPC   H3R 8086   2.559   1.797   5.556
   61POPC   H3S 8087   2.637   1.933   5.643
   61POPC   C24 8088   2.533   1.992   5.464
   61POPC   H4R 8089   2.627   1.980   5.405
   61POPC   H4S 8090   2.529   2.099   5.496
   61POPC   C25 8091   2.415   1.963   5.371
   61POPC   H5R 8092   2.422   2.030   5.282
   61POPC   H5S 8093   2.319   1.987   5.422
   61POPC   C26 8094   2.409   1.817   5.321
   61POPC   H6R 8095   2.390   1.750   5.408
   61POPC   H6S 8096   2.507   1.790   5.276
   61POPC   C27 8097   2.297   1.795   5.219
   61POPC   H7R 8098   2.307   1.868   5.135
   61POPC   H7S 8099   2.203   1.818   5.272
   61POPC   C28 8100   2.287   1.652   5.164
   61POPC   H8R 8101   2.187   1.640   5.117
   61POPC   H8S 8102   2.289   1.581   5.250
   61POPC   C29 8103   2.400   1.624   5.068
   61POPC   H91 8104   2.499   1.624   5.115
   61POPC  C210 8105   2.390   1.597   4.936
   61POPC  H101 8106   2.483   1.581   4.879
   61POPC  C211 8107   2.264   1.590   4.854
   61POPC  H11R 8108   2.174   1.577   4.919
   61POPC  H11S 8109   2.266   1.501   4.787
   61POPC  C212 8110   2.242   1.716   4.769
   61POPC  H12R 8111   2.255   1.805   4.835
   61POPC  H12S 8112   2.136   1.720   4.735
   61POPC  C213 8113   2.336   1.730   4.648
   61POPC  H13R 8114   2.442   1.724   4.683
   61POPC  H13S 8115   2.321   1.831   4.604
   61POPC  C214 8116   2.314   1.626   4.536
   61POPC  H14R 8117   2.336   1.524   4.575
   61POPC  H14S 8118   2.387   1.646   4.454
   61POPC  C215 8119   2.172   1.629   4.478
   61POPC  H15R 8120   2.150   1.728   4.435
   61POPC  H15S 8121   2.099   1.612   4.561
   61POPC  C216 8122   2.142   1.520   4.374
   61POPC  H16R 8123   2.036   1.530   4.343
   61POPC  H16S 8124   2.155   1.423   4.425
   61POPC  C217 8125   2.231   1.513   4.250
   61POPC  H17R 8126   2.332   1.478   4.281
   61POPC  H17S 8127   2.241   1.614   4.206
   61POPC  C218 8128   2.173   1.414   4.148
   61POPC  H18R 8129   2.080   1.455   4.102
   61POPC  H18S 8130   2.149   1.317   4.196
   61POPC  H18T 8131   2.245   1.394   4.066
   61POPC   C33 8132   1.883   1.844   5.748
   61POPC   H3X 8133   1.771   1.849   5.747
   61POPC   H3Y 8134   1.912   1.778   5.664
   61POPC   C34 8135   1.936   1.987   5.726
   61POPC   H4X 8136   2.047   1.986   5.740
   61POPC   H4Y 8137   1.892   2.052   5.805
   61POPC   C35 8138   1.905   2.048   5.589
   61POPC   H5X 8139   1.935   2.155   5.592
   61POPC   H5Y 8140   1.796   2.045   5.569
   61POPC   C36 8141   1.980   1.983   5.471
   61POPC   H6X 8142   1.932   1.886   5.448
   61POPC   H6Y 8143   2.086   1.961   5.500
   61POPC   C37 8144   1.980   2.074   5.347
   61POPC   H7X 8145   2.059   2.152   5.360
   61POPC   H7Y 8146   1.883   2.128   5.342
   61POPC   C38 8147   2.001   2.004   5.212
   61POPC   H8X 8148   1.903   1.994   5.161
   61POPC   H8Y 8149   2.036   1.900   5.225
   61POPC   C39 8150   2.089   2.081   5.114
   61POPC   H9X 8151   2.196   2.062   5.139
   61POPC   H9Y 8152   2.071   2.190   5.124
   61POPC  C310 8153   2.060   2.040   4.968
   61POPC  H10X 8154   1.969   2.093   4.933
   61POPC  H10Y 8155   2.038   1.931   4.964
   61POPC  C311 8156   2.178   2.068   4.874
   61POPC  H11X 8157   2.151   2.040   4.770
   61POPC  H11Y 8158   2.263   2.003   4.906
   61POPC  C312 8159   2.228   2.213   4.878
   61POPC  H12X 8160   2.325   2.219   4.824
   61POPC  H12Y 8161   2.248   2.243   4.983
   61POPC  C313 8162   2.132   2.314   4.814
   61POPC  H13X 8163   2.167   2.417   4.838
   61POPC  H13Y 8164   2.030   2.303   4.857
   61POPC  C314 8165   2.125   2.298   4.662
   61POPC  H14X 8166   2.067   2.206   4.638
   61POPC  H14Y 8167   2.228   2.282   4.622
   61POPC  C315 8168   2.063   2.418   4.589
   61POPC  H15X 8169   2.144   2.491   4.567
   61POPC  H15Y 8170   1.991   2.468   4.657
   61POPC  C316 8171   1.992   2.377   4.461
   61POPC  H16X 8172   1.956   2.466   4.405
   61POPC  H16Y 8173   1.905   2.312   4.485
   61POPC  H16Z 8174   2.061   2.319   4.395
   62POPC     N 8175   7.034   7.792   6.149
   62POPC   C12 8176   7.143   7.692   6.185
   62POPC  H12A 8177   7.156   7.693   6.293
   62POPC  H12B 8178   7.236   7.722   6.138
   62POPC   C13 8179   7.006   7.789   6.002
   62POPC  H13A 8180   6.930   7.861   5.974
   62POPC  H13B 8181   7.094   7.805   5.942
   62POPC  H13C 8182   6.966   7.690   5.975
   62POPC   C14 8183   6.910   7.752   6.222
   62POPC  H14A 8184   6.926   7.747   6.330
   62POPC  H14B 8185   6.828   7.817   6.201
   62POPC  H14C 8186   6.883   7.650   6.193
   62POPC   C15 8187   7.071   7.929   6.197
   62POPC  H15A 8188   7.175   7.951   6.181
   62POPC  H15B 8189   7.051   7.937   6.303
   62POPC  H15C 8190   7.009   8.003   6.149
   62POPC   C11 8191   7.116   7.544   6.152
   62POPC  H11A 8192   7.212   7.489   6.161
   62POPC  H11B 8193   7.087   7.538   6.044
   62POPC     P 8194   6.926   7.376   6.180
   62POPC   O13 8195   6.839   7.311   6.282
   62POPC   O14 8196   7.013   7.296   6.091
   62POPC   O12 8197   7.021   7.486   6.244
   62POPC   O11 8198   6.844   7.486   6.100
   62POPC    C1 8199   6.716   7.459   6.047
   62POPC    HA 8200   6.643   7.534   6.084
   62POPC    HB 8201   6.677   7.359   6.079
   62POPC    C2 8202   6.714   7.459   5.892
   62POPC    HS 8203   6.615   7.410   5.872
   62POPC   O21 8204   6.831   7.389   5.839
   62POPC   C21 8205   6.794   7.306   5.743
   62POPC   O22 8206   6.679   7.290   5.708
   62POPC   C22 8207   6.913   7.228   5.684
   62POPC   H2R 8208   6.962   7.175   5.769
   62POPC   H2S 8209   6.987   7.296   5.641
   62POPC    C3 8210   6.707   7.601   5.826
   62POPC    HX 8211   6.657   7.669   5.898
   62POPC    HY 8212   6.638   7.592   5.739
   62POPC   O31 8213   6.836   7.657   5.791
   62POPC   C31 8214   6.876   7.626   5.666
   62POPC   O32 8215   6.805   7.581   5.579
   62POPC   C32 8216   7.026   7.642   5.656
   62POPC   H2X 8217   7.070   7.608   5.752
   62POPC   H2Y 8218   7.051   7.748   5.640
   62POPC   C23 8219   6.868   7.126   5.575
   62POPC   H3R 8220   6.767   7.087   5.601
   62POPC   H3S 8221   6.937   7.040   5.577
   62POPC   C24 8222   6.864   7.177   5.430
   62POPC   H4R 8223   6.967   7.199   5.395
   62POPC   H4S 8224   6.804   7.272   5.427
   62POPC   C25 8225   6.797   7.076   5.334
   62POPC   H5R 8226   6.686   7.083   5.346
   62POPC   H5S 8227   6.827   6.972   5.361
   62POPC   C26 8228   6.826   7.099   5.186
   62POPC   H6R 8229   6.764   7.030   5.124
   62POPC   H6S 8230   6.933   7.071   5.171
   62POPC   C27 8231   6.800   7.244   5.140
   62POPC   H7R 8232   6.860   7.314   5.202
   62POPC   H7S 8233   6.693   7.268   5.156
   62POPC   C28 8234   6.836   7.271   4.993
   62POPC   H8R 8235   6.842   7.381   4.976
   62POPC   H8S 8236   6.749   7.235   4.932
   62POPC   C29 8237   6.965   7.203   4.956
   62POPC   H91 8238   7.047   7.211   5.030
   62POPC  C210 8239   6.988   7.138   4.841
   62POPC  H101 8240   7.087   7.094   4.821
   62POPC  C211 8241   6.885   7.126   4.732
   62POPC  H11R 8242   6.781   7.120   4.769
   62POPC  H11S 8243   6.901   7.034   4.671
   62POPC  C212 8244   6.902   7.250   4.642
   62POPC  H12R 8245   6.935   7.340   4.698
   62POPC  H12S 8246   6.803   7.273   4.597
   62POPC  C213 8247   7.007   7.213   4.538
   62POPC  H13R 8248   6.963   7.132   4.478
   62POPC  H13S 8249   7.092   7.177   4.599
   62POPC  C214 8250   7.071   7.310   4.439
   62POPC  H14R 8251   7.130   7.387   4.493
   62POPC  H14S 8252   6.998   7.361   4.374
   62POPC  C215 8253   7.161   7.219   4.353
   62POPC  H15R 8254   7.096   7.148   4.296
   62POPC  H15S 8255   7.222   7.158   4.423
   62POPC  C216 8256   7.260   7.288   4.261
   62POPC  H16R 8257   7.350   7.224   4.250
   62POPC  H16S 8258   7.292   7.379   4.315
   62POPC  C217 8259   7.205   7.316   4.122
   62POPC  H17R 8260   7.267   7.390   4.069
   62POPC  H17S 8261   7.106   7.364   4.130
   62POPC  C218 8262   7.197   7.188   4.037
   62POPC  H18R 8263   7.152   7.209   3.939
   62POPC  H18S 8264   7.135   7.112   4.089
   62POPC  H18T 8265   7.299   7.145   4.022
   62POPC   C33 8266   7.083   7.553   5.544
   62POPC   H3X 8267   7.041   7.451   5.547
   62POPC   H3Y 8268   7.192   7.545   5.560
   62POPC   C34 8269   7.065   7.606   5.402
   62POPC   H4X 8270   6.958   7.632   5.384
   62POPC   H4Y 8271   7.090   7.525   5.330
   62POPC   C35 8272   7.157   7.725   5.376
   62POPC   H5X 8273   7.259   7.702   5.415
   62POPC   H5Y 8274   7.117   7.813   5.432
   62POPC   C36 8275   7.167   7.761   5.229
   62POPC   H6X 8276   7.215   7.678   5.173
   62POPC   H6Y 8277   7.231   7.851   5.217
   62POPC   C37 8278   7.028   7.787   5.170
   62POPC   H7X 8279   6.972   7.857   5.236
   62POPC   H7Y 8280   6.973   7.691   5.170
   62POPC   C38 8281   7.033   7.843   5.029
   62POPC   H8X 8282   7.097   7.778   4.965
   62POPC   H8Y 8283   7.077   7.945   5.031
   62POPC   C39 8284   6.894   7.848   4.967
   62POPC   H9X 8285   6.897   7.907   4.873
   62POPC   H9Y 8286   6.822   7.898   5.037
   62POPC  C310 8287   6.842   7.709   4.933
   62POPC  H10X 8288   6.838   7.642   5.021
   62POPC  H10Y 8289   6.913   7.665   4.860
   62POPC  C311 8290   6.702   7.720   4.874
   62POPC  H11X 8291   6.702   7.799   4.795
   62POPC  H11Y 8292   6.634   7.753   4.956
   62POPC  C312 8293   6.647   7.592   4.816
   62POPC  H12X 8294   6.548   7.614   4.770
   62POPC  H12Y 8295   6.631   7.518   4.898
   62POPC  C313 8296   6.739   7.530   4.711
   62POPC  H13X 8297   6.696   7.432   4.681
   62POPC  H13Y 8298   6.837   7.508   4.757
   62POPC  C314 8299   6.758   7.617   4.586
   62POPC  H14X 8300   6.800   7.717   4.613
   62POPC  H14Y 8301   6.660   7.633   4.537
   62POPC  C315 8302   6.853   7.549   4.489
   62POPC  H15X 8303   6.819   7.444   4.480
   62POPC  H15Y 8304   6.956   7.547   4.532
   62POPC  C316 8305   6.855   7.606   4.348
   62POPC  H16X 8306   6.919   7.544   4.281
   62POPC  H16Y 8307   6.892   7.710   4.347
   62POPC  H16Z 8308   6.752   7.603   4.308
   63POPC     N 8309   8.206   6.321   6.124
   63POPC   C12 8310   8.107   6.296   6.012
   63POPC  H12A 8311   8.142   6.211   5.954
   63POPC  H12B 8312   8.106   6.383   5.946
   63POPC   C13 8313   8.191   6.216   6.228
   63POPC  H13A 8314   8.273   6.219   6.299
   63POPC  H13B 8315   8.095   6.226   6.277
   63POPC  H13C 8316   8.193   6.118   6.181
   63POPC   C14 8317   8.345   6.321   6.073
   63POPC  H14A 8318   8.373   6.231   6.020
   63POPC  H14B 8319   8.368   6.407   6.011
   63POPC  H14C 8320   8.415   6.324   6.157
   63POPC   C15 8321   8.178   6.457   6.180
   63POPC  H15A 8322   8.202   6.532   6.106
   63POPC  H15B 8323   8.231   6.478   6.270
   63POPC  H15C 8324   8.071   6.465   6.200
   63POPC   C11 8325   7.960   6.268   6.055
   63POPC  H11A 8326   7.956   6.165   6.095
   63POPC  H11B 8327   7.897   6.267   5.963
   63POPC     P 8328   7.815   6.476   6.115
   63POPC   O13 8329   7.821   6.589   6.210
   63POPC   O14 8330   7.683   6.417   6.085
   63POPC   O12 8331   7.914   6.360   6.156
   63POPC   O11 8332   7.875   6.528   5.978
   63POPC    C1 8333   7.792   6.628   5.913
   63POPC    HA 8334   7.767   6.713   5.982
   63POPC    HB 8335   7.696   6.583   5.881
   63POPC    C2 8336   7.867   6.691   5.793
   63POPC    HS 8337   7.801   6.766   5.743
   63POPC   O21 8338   7.908   6.591   5.698
   63POPC   C21 8339   7.808   6.520   5.650
   63POPC   O22 8340   7.690   6.551   5.652
   63POPC   C22 8341   7.863   6.389   5.597
   63POPC   H2R 8342   7.826   6.308   5.663
   63POPC   H2S 8343   7.974   6.391   5.601
   63POPC    C3 8344   7.992   6.765   5.848
   63POPC    HX 8345   8.050   6.694   5.911
   63POPC    HY 8346   7.954   6.846   5.914
   63POPC   O31 8347   8.070   6.823   5.742
   63POPC   C31 8348   8.159   6.742   5.687
   63POPC   O32 8349   8.204   6.641   5.739
   63POPC   C32 8350   8.197   6.801   5.551
   63POPC   H2X 8351   8.282   6.871   5.565
   63POPC   H2Y 8352   8.110   6.860   5.515
   63POPC   C23 8353   7.818   6.364   5.452
   63POPC   H3R 8354   7.855   6.447   5.387
   63POPC   H3S 8355   7.707   6.362   5.446
   63POPC   C24 8356   7.873   6.230   5.403
   63POPC   H4R 8357   7.840   6.153   5.476
   63POPC   H4S 8358   7.984   6.234   5.403
   63POPC   C25 8359   7.825   6.186   5.265
   63POPC   H5R 8360   7.716   6.165   5.266
   63POPC   H5S 8361   7.877   6.091   5.239
   63POPC   C26 8362   7.855   6.289   5.156
   63POPC   H6R 8363   7.879   6.232   5.064
   63POPC   H6S 8364   7.946   6.348   5.182
   63POPC   C27 8365   7.737   6.384   5.128
   63POPC   H7R 8366   7.712   6.443   5.219
   63POPC   H7S 8367   7.648   6.324   5.103
   63POPC   C28 8368   7.768   6.483   5.015
   63POPC   H8R 8369   7.845   6.554   5.052
   63POPC   H8S 8370   7.677   6.544   4.995
   63POPC   C29 8371   7.816   6.409   4.894
   63POPC   H91 8372   7.924   6.412   4.879
   63POPC  C210 8373   7.741   6.346   4.803
   63POPC  H101 8374   7.789   6.298   4.716
   63POPC  C211 8375   7.591   6.340   4.807
   63POPC  H11R 8376   7.553   6.327   4.911
   63POPC  H11S 8377   7.551   6.257   4.745
   63POPC  C212 8378   7.543   6.474   4.750
   63POPC  H12R 8379   7.591   6.559   4.803
   63POPC  H12S 8380   7.433   6.483   4.765
   63POPC  C213 8381   7.575   6.488   4.601
   63POPC  H13R 8382   7.535   6.397   4.551
   63POPC  H13S 8383   7.685   6.485   4.585
   63POPC  C214 8384   7.512   6.614   4.541
   63POPC  H14R 8385   7.453   6.659   4.621
   63POPC  H14S 8386   7.432   6.591   4.470
   63POPC  C215 8387   7.605   6.729   4.497
   63POPC  H15R 8388   7.592   6.810   4.572
   63POPC  H15S 8389   7.570   6.770   4.399
   63POPC  C216 8390   7.756   6.706   4.492
   63POPC  H16R 8391   7.797   6.660   4.584
   63POPC  H16S 8392   7.801   6.807   4.483
   63POPC  C217 8393   7.806   6.637   4.367
   63POPC  H17R 8394   7.748   6.684   4.283
   63POPC  H17S 8395   7.781   6.529   4.368
   63POPC  C218 8396   7.956   6.662   4.350
   63POPC  H18R 8397   7.977   6.771   4.342
   63POPC  H18S 8398   7.996   6.615   4.259
   63POPC  H18T 8399   8.012   6.622   4.437
   63POPC   C33 8400   8.232   6.697   5.442
   63POPC   H3X 8401   8.172   6.604   5.455
   63POPC   H3Y 8402   8.339   6.670   5.454
   63POPC   C34 8403   8.209   6.751   5.300
   63POPC   H4X 8404   8.271   6.690   5.230
   63POPC   H4Y 8405   8.246   6.856   5.295
   63POPC   C35 8406   8.062   6.746   5.252
   63POPC   H5X 8407   7.998   6.792   5.331
   63POPC   H5Y 8408   8.031   6.640   5.241
   63POPC   C36 8409   8.036   6.821   5.120
   63POPC   H6X 8410   8.065   6.927   5.136
   63POPC   H6Y 8411   7.928   6.819   5.095
   63POPC   C37 8412   8.118   6.769   5.000
   63POPC   H7X 8413   8.218   6.744   5.037
   63POPC   H7Y 8414   8.127   6.853   4.926
   63POPC   C38 8415   8.061   6.647   4.927
   63POPC   H8X 8416   7.953   6.669   4.909
   63POPC   H8Y 8417   8.068   6.557   4.992
   63POPC   C39 8418   8.121   6.617   4.787
   63POPC   H9X 8419   8.120   6.711   4.728
   63POPC   H9Y 8420   8.051   6.547   4.736
   63POPC  C310 8421   8.262   6.554   4.777
   63POPC  H10X 8422   8.339   6.630   4.799
   63POPC  H10Y 8423   8.280   6.528   4.671
   63POPC  C311 8424   8.292   6.432   4.867
   63POPC  H11X 8425   8.286   6.464   4.973
   63POPC  H11Y 8426   8.397   6.400   4.847
   63POPC  C312 8427   8.201   6.310   4.845
   63POPC  H12X 8428   8.099   6.340   4.874
   63POPC  H12Y 8429   8.230   6.228   4.915
   63POPC  C313 8430   8.201   6.257   4.701
   63POPC  H13X 8431   8.289   6.191   4.684
   63POPC  H13Y 8432   8.213   6.343   4.632
   63POPC  C314 8433   8.072   6.185   4.662
   63POPC  H14X 8434   7.986   6.228   4.718
   63POPC  H14Y 8435   8.078   6.078   4.690
   63POPC  C315 8436   8.042   6.200   4.512
   63POPC  H15X 8437   7.963   6.127   4.483
   63POPC  H15Y 8438   8.134   6.175   4.455
   63POPC  C316 8439   7.994   6.340   4.474
   63POPC  H16X 8440   7.887   6.354   4.500
   63POPC  H16Y 8441   8.006   6.358   4.365
   63POPC  H16Z 8442   8.052   6.420   4.525
   64POPC     N 8443   1.129   5.498   6.006
   64POPC   C12 8444   1.123   5.350   5.970
   64POPC  H12A 8445   1.160   5.335   5.869
   64POPC  H12B 8446   1.019   5.318   5.969
   64POPC   C13 8447   1.061   5.511   6.138
   64POPC  H13A 8448   1.107   5.440   6.207
   64POPC  H13B 8449   1.065   5.608   6.183
   64POPC  H13C 8450   0.958   5.478   6.132
   64POPC   C14 8451   1.271   5.543   6.022
   64POPC  H14A 8452   1.274   5.648   6.048
   64POPC  H14B 8453   1.319   5.485   6.100
   64POPC  H14C 8454   1.329   5.529   5.931
   64POPC   C15 8455   1.061   5.583   5.904
   64POPC  H15A 8456   1.111   5.579   5.808
   64POPC  H15B 8457   1.059   5.686   5.937
   64POPC  H15C 8458   0.958   5.550   5.888
   64POPC   C11 8459   1.195   5.250   6.066
   64POPC  H11A 8460   1.303   5.277   6.073
   64POPC  H11B 8461   1.192   5.148   6.021
   64POPC     P 8462   1.009   5.162   6.225
   64POPC   O13 8463   0.932   5.210   6.341
   64POPC   O14 8464   1.053   5.020   6.226
   64POPC   O12 8465   1.139   5.251   6.199
   64POPC   O11 8466   0.925   5.188   6.093
   64POPC    C1 8467   0.805   5.109   6.084
   64POPC    HA 8468   0.743   5.116   6.177
   64POPC    HB 8469   0.830   5.002   6.068
   64POPC    C2 8470   0.718   5.163   5.968
   64POPC    HS 8471   0.627   5.101   5.955
   64POPC   O21 8472   0.793   5.167   5.846
   64POPC   C21 8473   0.828   5.047   5.807
   64POPC   O22 8474   0.770   4.943   5.839
   64POPC   C22 8475   0.949   5.059   5.716
   64POPC   H2R 8476   1.027   5.117   5.768
   64POPC   H2S 8477   0.916   5.118   5.628
   64POPC    C3 8478   0.672   5.305   6.005
   64POPC    HX 8479   0.761   5.363   6.039
   64POPC    HY 8480   0.606   5.293   6.094
   64POPC   O31 8481   0.599   5.370   5.899
   64POPC   C31 8482   0.676   5.437   5.811
   64POPC   O32 8483   0.796   5.454   5.824
   64POPC   C32 8484   0.592   5.496   5.701
   64POPC   H2X 8485   0.577   5.603   5.721
   64POPC   H2Y 8486   0.494   5.445   5.697
   64POPC   C23 8487   1.004   4.923   5.668
   64POPC   H3R 8488   0.920   4.854   5.642
   64POPC   H3S 8489   1.062   4.876   5.751
   64POPC   C24 8490   1.093   4.935   5.544
   64POPC   H4R 8491   1.037   4.979   5.459
   64POPC   H4S 8492   1.117   4.831   5.515
   64POPC   C25 8493   1.222   5.016   5.568
   64POPC   H5R 8494   1.308   4.974   5.512
   64POPC   H5S 8495   1.247   5.011   5.676
   64POPC   C26 8496   1.211   5.162   5.522
   64POPC   H6R 8497   1.103   5.191   5.522
   64POPC   H6S 8498   1.247   5.172   5.418
   64POPC   C27 8499   1.288   5.257   5.615
   64POPC   H7R 8500   1.395   5.228   5.615
   64POPC   H7S 8501   1.249   5.245   5.718
   64POPC   C28 8502   1.276   5.404   5.572
   64POPC   H8R 8503   1.324   5.415   5.472
   64POPC   H8S 8504   1.336   5.465   5.643
   64POPC   C29 8505   1.133   5.452   5.572
   64POPC   H91 8506   1.086   5.457   5.670
   64POPC  C210 8507   1.057   5.476   5.464
   64POPC  H101 8508   0.952   5.506   5.478
   64POPC  C211 8509   1.096   5.459   5.319
   64POPC  H11R 8510   1.075   5.355   5.287
   64POPC  H11S 8511   1.205   5.477   5.302
   64POPC  C212 8512   1.015   5.554   5.230
   64POPC  H12R 8513   1.041   5.660   5.251
   64POPC  H12S 8514   0.906   5.541   5.251
   64POPC  C213 8515   1.038   5.524   5.082
   64POPC  H13R 8516   1.026   5.414   5.066
   64POPC  H13S 8517   1.143   5.550   5.055
   64POPC  C214 8518   0.939   5.596   4.990
   64POPC  H14R 8519   0.952   5.706   4.996
   64POPC  H14S 8520   0.836   5.572   5.025
   64POPC  C215 8521   0.950   5.548   4.845
   64POPC  H15R 8522   0.867   5.589   4.784
   64POPC  H15S 8523   0.939   5.438   4.847
   64POPC  C216 8524   1.083   5.581   4.776
   64POPC  H16R 8525   1.169   5.558   4.843
   64POPC  H16S 8526   1.087   5.689   4.751
   64POPC  C217 8527   1.100   5.497   4.649
   64POPC  H17R 8528   1.004   5.496   4.593
   64POPC  H17S 8529   1.122   5.392   4.680
   64POPC  C218 8530   1.213   5.544   4.558
   64POPC  H18R 8531   1.187   5.644   4.516
   64POPC  H18S 8532   1.229   5.474   4.474
   64POPC  H18T 8533   1.307   5.553   4.617
   64POPC   C33 8534   0.667   5.477   5.568
   64POPC   H3X 8535   0.760   5.538   5.566
   64POPC   H3Y 8536   0.602   5.512   5.484
   64POPC   C34 8537   0.701   5.329   5.545
   64POPC   H4X 8538   0.616   5.264   5.575
   64POPC   H4Y 8539   0.790   5.302   5.606
   64POPC   C35 8540   0.733   5.301   5.399
   64POPC   H5X 8541   0.807   5.375   5.361
   64POPC   H5Y 8542   0.641   5.312   5.338
   64POPC   C36 8543   0.791   5.161   5.382
   64POPC   H6X 8544   0.721   5.084   5.422
   64POPC   H6Y 8545   0.888   5.155   5.436
   64POPC   C37 8546   0.819   5.137   5.235
   64POPC   H7X 8547   0.887   5.218   5.200
   64POPC   H7Y 8548   0.723   5.146   5.179
   64POPC   C38 8549   0.882   5.002   5.206
   64POPC   H8X 8550   0.827   4.922   5.262
   64POPC   H8Y 8551   0.988   5.001   5.239
   64POPC   C39 8552   0.874   4.974   5.057
   64POPC   H9X 8553   0.767   4.966   5.029
   64POPC   H9Y 8554   0.924   4.879   5.033
   64POPC  C310 8555   0.930   5.089   4.973
   64POPC  H10X 8556   1.034   5.112   5.005
   64POPC  H10Y 8557   0.869   5.181   4.986
   64POPC  C311 8558   0.928   5.056   4.824
   64POPC  H11X 8559   0.825   5.031   4.791
   64POPC  H11Y 8560   0.993   4.968   4.806
   64POPC  C312 8561   0.979   5.176   4.745
   64POPC  H12X 8562   1.079   5.206   4.785
   64POPC  H12Y 8563   0.909   5.260   4.760
   64POPC  C313 8564   0.990   5.151   4.595
   64POPC  H13X 8565   1.041   5.237   4.546
   64POPC  H13Y 8566   0.886   5.146   4.556
   64POPC  C314 8567   1.064   5.022   4.558
   64POPC  H14X 8568   1.003   4.934   4.587
   64POPC  H14Y 8569   1.161   5.017   4.614
   64POPC  C315 8570   1.092   5.015   4.408
   64POPC  H15X 8571   1.139   4.917   4.386
   64POPC  H15Y 8572   1.165   5.093   4.382
   64POPC  C316 8573   0.966   5.033   4.324
   64POPC  H16X 8574   0.896   4.948   4.337
   64POPC  H16Y 8575   0.992   5.043   4.216
   64POPC  H16Z 8576   0.913   5.125   4.353
   65POPC     N 8577   2.341   7.542   6.318
   65POPC   C12 8578   2.207   7.591   6.263
   65POPC  H12A 8579   2.226   7.679   6.203
   65POPC  H12B 8580   2.144   7.620   6.347
   65POPC   C13 8581   2.431   7.505   6.204
   65POPC  H13A 8582   2.533   7.486   6.235
   65POPC  H13B 8583   2.392   7.413   6.159
   65POPC  H13C 8584   2.427   7.578   6.124
   65POPC   C14 8585   2.405   7.646   6.403
   65POPC  H14A 8586   2.505   7.616   6.434
   65POPC  H14B 8587   2.410   7.742   6.354
   65POPC  H14C 8588   2.347   7.657   6.495
   65POPC   C15 8589   2.326   7.417   6.401
   65POPC  H15A 8590   2.421   7.388   6.445
   65POPC  H15B 8591   2.291   7.335   6.339
   65POPC  H15C 8592   2.254   7.430   6.481
   65POPC   C11 8593   2.128   7.496   6.172
   65POPC  H11A 8594   2.025   7.536   6.156
   65POPC  H11B 8595   2.115   7.399   6.227
   65POPC     P 8596   2.215   7.335   5.986
   65POPC   O13 8597   2.251   7.249   6.102
   65POPC   O14 8598   2.311   7.344   5.873
   65POPC   O12 8599   2.191   7.483   6.044
   65POPC   O11 8600   2.070   7.295   5.935
   65POPC    C1 8601   1.978   7.242   6.031
   65POPC    HA 8602   1.957   7.315   6.112
   65POPC    HB 8603   2.021   7.151   6.079
   65POPC    C2 8604   1.841   7.205   5.968
   65POPC    HS 8605   1.790   7.140   6.042
   65POPC   O21 8606   1.843   7.135   5.845
   65POPC   C21 8607   1.937   7.051   5.818
   65POPC   O22 8608   2.017   7.001   5.895
   65POPC   C22 8609   1.921   7.013   5.672
   65POPC   H2R 8610   1.818   7.036   5.637
   65POPC   H2S 8611   1.939   6.905   5.662
   65POPC    C3 8612   1.752   7.329   5.941
   65POPC    HX 8613   1.740   7.378   6.039
   65POPC    HY 8614   1.653   7.293   5.907
   65POPC   O31 8615   1.809   7.413   5.837
   65POPC   C31 8616   1.864   7.527   5.879
   65POPC   O32 8617   1.837   7.581   5.985
   65POPC   C32 8618   1.959   7.585   5.776
   65POPC   H2X 8619   2.045   7.628   5.832
   65POPC   H2Y 8620   1.908   7.667   5.723
   65POPC   C23 8621   2.026   7.089   5.592
   65POPC   H3R 8622   2.015   7.199   5.605
   65POPC   H3S 8623   2.011   7.065   5.485
   65POPC   C24 8624   2.165   7.043   5.638
   65POPC   H4R 8625   2.164   6.933   5.649
   65POPC   H4S 8626   2.187   7.087   5.739
   65POPC   C25 8627   2.279   7.085   5.548
   65POPC   H5R 8628   2.368   7.025   5.579
   65POPC   H5S 8629   2.303   7.192   5.568
   65POPC   C26 8630   2.255   7.063   5.399
   65POPC   H6R 8631   2.177   7.134   5.364
   65POPC   H6S 8632   2.220   6.959   5.380
   65POPC   C27 8633   2.386   7.088   5.326
   65POPC   H7R 8634   2.460   7.012   5.360
   65POPC   H7S 8635   2.421   7.187   5.362
   65POPC   C28 8636   2.387   7.095   5.172
   65POPC   H8R 8637   2.470   7.029   5.138
   65POPC   H8S 8638   2.416   7.198   5.144
   65POPC   C29 8639   2.261   7.061   5.098
   65POPC   H91 8640   2.171   7.039   5.157
   65POPC  C210 8641   2.255   7.059   4.964
   65POPC  H101 8642   2.161   7.027   4.916
   65POPC  C211 8643   2.369   7.089   4.869
   65POPC  H11R 8644   2.339   7.047   4.771
   65POPC  H11S 8645   2.456   7.034   4.907
   65POPC  C212 8646   2.433   7.227   4.839
   65POPC  H12R 8647   2.456   7.280   4.934
   65POPC  H12S 8648   2.361   7.287   4.781
   65POPC  C213 8649   2.565   7.212   4.761
   65POPC  H13R 8650   2.561   7.120   4.698
   65POPC  H13S 8651   2.648   7.198   4.833
   65POPC  C214 8652   2.597   7.328   4.667
   65POPC  H14R 8653   2.704   7.322   4.636
   65POPC  H14S 8654   2.584   7.424   4.721
   65POPC  C215 8655   2.511   7.325   4.539
   65POPC  H15R 8656   2.406   7.304   4.567
   65POPC  H15S 8657   2.546   7.242   4.473
   65POPC  C216 8658   2.516   7.457   4.462
   65POPC  H16R 8659   2.614   7.466   4.410
   65POPC  H16S 8660   2.510   7.540   4.536
   65POPC  C217 8661   2.402   7.478   4.362
   65POPC  H17R 8662   2.417   7.578   4.314
   65POPC  H17S 8663   2.306   7.482   4.418
   65POPC  C218 8664   2.391   7.372   4.253
   65POPC  H18R 8665   2.490   7.349   4.209
   65POPC  H18S 8666   2.324   7.408   4.172
   65POPC  H18T 8667   2.347   7.279   4.295
   65POPC   C33 8668   2.010   7.485   5.671
   65POPC   H3X 8669   1.925   7.444   5.612
   65POPC   H3Y 8670   2.062   7.400   5.720
   65POPC   C34 8671   2.110   7.552   5.576
   65POPC   H4X 8672   2.199   7.584   5.635
   65POPC   H4Y 8673   2.064   7.643   5.532
   65POPC   C35 8674   2.152   7.457   5.466
   65POPC   H5X 8675   2.063   7.426   5.407
   65POPC   H5Y 8676   2.194   7.365   5.513
   65POPC   C36 8677   2.258   7.516   5.373
   65POPC   H6X 8678   2.353   7.525   5.430
   65POPC   H6Y 8679   2.228   7.619   5.341
   65POPC   C37 8680   2.279   7.427   5.251
   65POPC   H7X 8681   2.269   7.321   5.281
   65POPC   H7Y 8682   2.382   7.438   5.211
   65POPC   C38 8683   2.178   7.454   5.139
   65POPC   H8X 8684   2.150   7.561   5.135
   65POPC   H8Y 8685   2.088   7.393   5.163
   65POPC   C39 8686   2.228   7.408   5.003
   65POPC   H9X 8687   2.260   7.304   5.015
   65POPC   H9Y 8688   2.319   7.464   4.973
   65POPC  C310 8689   2.130   7.416   4.887
   65POPC  H10X 8690   2.191   7.416   4.794
   65POPC  H10Y 8691   2.079   7.514   4.889
   65POPC  C311 8692   2.033   7.298   4.875
   65POPC  H11X 8693   1.936   7.318   4.922
   65POPC  H11Y 8694   2.070   7.213   4.933
   65POPC  C312 8695   2.012   7.252   4.730
   65POPC  H12X 8696   1.921   7.188   4.728
   65POPC  H12Y 8697   2.098   7.187   4.700
   65POPC  C313 8698   2.001   7.366   4.626
   65POPC  H13X 8699   2.093   7.367   4.564
   65POPC  H13Y 8700   1.996   7.465   4.676
   65POPC  C314 8701   1.877   7.357   4.537
   65POPC  H14X 8702   1.876   7.444   4.468
   65POPC  H14Y 8703   1.787   7.363   4.602
   65POPC  C315 8704   1.869   7.227   4.458
   65POPC  H15X 8705   1.887   7.144   4.530
   65POPC  H15Y 8706   1.949   7.223   4.381
   65POPC  C316 8707   1.732   7.202   4.394
   65POPC  H16X 8708   1.740   7.199   4.284
   65POPC  H16Y 8709   1.660   7.281   4.424
   65POPC  H16Z 8710   1.691   7.104   4.428
   66POPC     N 8711   5.661   1.044   6.356
   66POPC   C12 8712   5.533   1.036   6.275
   66POPC  H12A 8713   5.487   1.135   6.263
   66POPC  H12B 8714   5.459   0.976   6.327
   66POPC   C13 8715   5.768   1.110   6.273
   66POPC  H13A 8716   5.782   1.055   6.180
   66POPC  H13B 8717   5.734   1.207   6.238
   66POPC  H13C 8718   5.861   1.122   6.325
   66POPC   C14 8719   5.634   1.128   6.476
   66POPC  H14A 8720   5.721   1.132   6.542
   66POPC  H14B 8721   5.613   1.230   6.446
   66POPC  H14C 8722   5.553   1.089   6.535
   66POPC   C15 8723   5.711   0.910   6.398
   66POPC  H15A 8724   5.630   0.851   6.438
   66POPC  H15B 8725   5.786   0.924   6.475
   66POPC  H15C 8726   5.758   0.859   6.315
   66POPC   C11 8727   5.548   0.984   6.133
   66POPC  H11A 8728   5.447   0.957   6.093
   66POPC  H11B 8729   5.609   0.892   6.136
   66POPC     P 8730   5.530   1.214   6.015
   66POPC   O13 8731   5.620   1.329   6.034
   66POPC   O14 8732   5.403   1.212   6.091
   66POPC   O12 8733   5.611   1.083   6.051
   66POPC   O11 8734   5.499   1.191   5.862
   66POPC    C1 8735   5.461   1.060   5.818
   66POPC    HA 8736   5.350   1.051   5.819
   66POPC    HB 8737   5.496   0.979   5.885
   66POPC    C2 8738   5.517   1.019   5.678
   66POPC    HS 8739   5.546   0.913   5.680
   66POPC   O21 8740   5.628   1.097   5.633
   66POPC   C21 8741   5.740   1.103   5.701
   66POPC   O22 8742   5.769   1.048   5.806
   66POPC   C22 8743   5.840   1.177   5.613
   66POPC   H2R 8744   5.938   1.175   5.664
   66POPC   H2S 8745   5.807   1.283   5.606
   66POPC    C3 8746   5.406   1.028   5.569
   66POPC    HX 8747   5.370   1.133   5.571
   66POPC    HY 8748   5.322   0.961   5.599
   66POPC   O31 8749   5.458   0.995   5.439
   66POPC   C31 8750   5.372   1.005   5.339
   66POPC   O32 8751   5.251   1.004   5.351
   66POPC   C32 8752   5.449   1.045   5.210
   66POPC   H2X 8753   5.557   1.034   5.231
   66POPC   H2Y 8754   5.427   1.153   5.198
   66POPC   C23 8755   5.849   1.114   5.472
   66POPC   H3R 8756   5.752   1.124   5.420
   66POPC   H3S 8757   5.873   1.006   5.483
   66POPC   C24 8758   5.960   1.180   5.390
   66POPC   H4R 8759   6.050   1.177   5.454
   66POPC   H4S 8760   5.932   1.286   5.370
   66POPC   C25 8761   5.996   1.111   5.258
   66POPC   H5R 8762   6.033   1.010   5.286
   66POPC   H5S 8763   6.080   1.166   5.210
   66POPC   C26 8764   5.881   1.098   5.159
   66POPC   H6R 8765   5.800   1.043   5.213
   66POPC   H6S 8766   5.911   1.037   5.071
   66POPC   C27 8767   5.827   1.234   5.110
   66POPC   H7R 8768   5.904   1.290   5.053
   66POPC   H7S 8769   5.809   1.291   5.203
   66POPC   C28 8770   5.696   1.224   5.031
   66POPC   H8R 8771   5.642   1.137   5.071
   66POPC   H8S 8772   5.716   1.203   4.924
   66POPC   C29 8773   5.610   1.345   5.056
   66POPC   H91 8774   5.575   1.352   5.160
   66POPC  C210 8775   5.567   1.437   4.969
   66POPC  H101 8776   5.496   1.514   5.002
   66POPC  C211 8777   5.598   1.436   4.822
   66POPC  H11R 8778   5.689   1.375   4.801
   66POPC  H11S 8779   5.618   1.537   4.782
   66POPC  C212 8780   5.476   1.371   4.757
   66POPC  H12R 8781   5.390   1.440   4.750
   66POPC  H12S 8782   5.440   1.285   4.820
   66POPC  C213 8783   5.509   1.309   4.623
   66POPC  H13R 8784   5.611   1.264   4.634
   66POPC  H13S 8785   5.518   1.380   4.542
   66POPC  C214 8786   5.415   1.193   4.590
   66POPC  H14R 8787   5.381   1.141   4.682
   66POPC  H14S 8788   5.487   1.131   4.537
   66POPC  C215 8789   5.311   1.193   4.479
   66POPC  H15R 8790   5.363   1.143   4.393
   66POPC  H15S 8791   5.288   1.295   4.447
   66POPC  C216 8792   5.193   1.107   4.528
   66POPC  H16R 8793   5.177   1.138   4.634
   66POPC  H16S 8794   5.227   1.001   4.533
   66POPC  C217 8795   5.050   1.111   4.468
   66POPC  H17R 8796   4.983   1.143   4.550
   66POPC  H17S 8797   5.027   1.005   4.452
   66POPC  C218 8798   5.007   1.177   4.338
   66POPC  H18R 8799   4.996   1.102   4.256
   66POPC  H18S 8800   5.078   1.254   4.305
   66POPC  H18T 8801   4.907   1.224   4.351
   66POPC   C33 8802   5.408   0.978   5.075
   66POPC   H3X 8803   5.340   1.049   5.021
   66POPC   H3Y 8804   5.344   0.889   5.093
   66POPC   C34 8805   5.517   0.940   4.970
   66POPC   H4X 8806   5.545   1.030   4.911
   66POPC   H4Y 8807   5.465   0.873   4.899
   66POPC   C35 8808   5.650   0.868   5.009
   66POPC   H5X 8809   5.629   0.776   5.063
   66POPC   H5Y 8810   5.712   0.929   5.076
   66POPC   C36 8811   5.728   0.826   4.883
   66POPC   H6X 8812   5.787   0.911   4.845
   66POPC   H6Y 8813   5.645   0.807   4.815
   66POPC   C37 8814   5.804   0.691   4.881
   66POPC   H7X 8815   5.750   0.620   4.947
   66POPC   H7Y 8816   5.901   0.704   4.931
   66POPC   C38 8817   5.822   0.619   4.743
   66POPC   H8X 8818   5.771   0.520   4.749
   66POPC   H8Y 8819   5.930   0.597   4.731
   66POPC   C39 8820   5.771   0.684   4.611
   66POPC   H9X 8821   5.822   0.781   4.601
   66POPC   H9Y 8822   5.663   0.703   4.616
   66POPC  C310 8823   5.786   0.598   4.484
   66POPC  H10X 8824   5.722   0.508   4.495
   66POPC  H10Y 8825   5.894   0.574   4.491
   66POPC  C311 8826   5.779   0.655   4.340
   66POPC  H11X 8827   5.831   0.581   4.275
   66POPC  H11Y 8828   5.842   0.745   4.338
   66POPC  C312 8829   5.644   0.683   4.270
   66POPC  H12X 8830   5.576   0.743   4.333
   66POPC  H12Y 8831   5.590   0.587   4.254
   66POPC  C313 8832   5.665   0.756   4.134
   66POPC  H13X 8833   5.687   0.679   4.059
   66POPC  H13Y 8834   5.758   0.816   4.135
   66POPC  C314 8835   5.549   0.850   4.091
   66POPC  H14X 8836   5.524   0.918   4.175
   66POPC  H14Y 8837   5.460   0.785   4.076
   66POPC  C315 8838   5.569   0.934   3.962
   66POPC  H15X 8839   5.482   0.910   3.897
   66POPC  H15Y 8840   5.659   0.899   3.908
   66POPC  C316 8841   5.571   1.089   3.971
   66POPC  H16X 8842   5.474   1.129   4.006
   66POPC  H16Y 8843   5.588   1.133   3.870
   66POPC  H16Z 8844   5.648   1.130   4.038
   67POPC     N 8845   4.187   8.483   6.050
   67POPC   C12 8846   4.299   8.384   6.023
   67POPC  H12A 8847   4.394   8.435   6.032
   67POPC  H12B 8848   4.290   8.348   5.922
   67POPC   C13 8849   4.055   8.412   6.058
   67POPC  H13A 8850   4.065   8.332   6.130
   67POPC  H13B 8851   3.979   8.483   6.088
   67POPC  H13C 8852   4.026   8.371   5.962
   67POPC   C14 8853   4.215   8.546   6.183
   67POPC  H14A 8854   4.212   8.469   6.261
   67POPC  H14B 8855   4.314   8.589   6.188
   67POPC  H14C 8856   4.140   8.620   6.208
   67POPC   C15 8857   4.166   8.594   5.954
   67POPC  H15A 8858   4.179   8.564   5.851
   67POPC  H15B 8859   4.235   8.676   5.975
   67POPC  H15C 8860   4.067   8.639   5.965
   67POPC   C11 8861   4.310   8.258   6.116
   67POPC  H11A 8862   4.398   8.198   6.082
   67POPC  H11B 8863   4.222   8.192   6.099
   67POPC     P 8864   4.453   8.279   6.338
   67POPC   O13 8865   4.518   8.148   6.313
   67POPC   O14 8866   4.429   8.316   6.481
   67POPC   O12 8867   4.319   8.290   6.255
   67POPC   O11 8868   4.534   8.393   6.264
   67POPC    C1 8869   4.660   8.363   6.202
   67POPC    HA 8870   4.666   8.257   6.168
   67POPC    HB 8871   4.739   8.382   6.277
   67POPC    C2 8872   4.693   8.450   6.077
   67POPC    HS 8873   4.738   8.545   6.114
   67POPC   O21 8874   4.571   8.479   6.002
   67POPC   C21 8875   4.593   8.565   5.903
   67POPC   O22 8876   4.702   8.606   5.871
   67POPC   C22 8877   4.459   8.605   5.839
   67POPC   H2R 8878   4.401   8.644   5.925
   67POPC   H2S 8879   4.413   8.514   5.797
   67POPC    C3 8880   4.800   8.375   5.989
   67POPC    HX 8881   4.874   8.331   6.060
   67POPC    HY 8882   4.857   8.444   5.924
   67POPC   O31 8883   4.738   8.268   5.916
   67POPC   C31 8884   4.685   8.297   5.797
   67POPC   O32 8885   4.725   8.376   5.715
   67POPC   C32 8886   4.551   8.223   5.794
   67POPC   H2X 8887   4.491   8.255   5.881
   67POPC   H2Y 8888   4.579   8.119   5.810
   67POPC   C23 8889   4.464   8.719   5.734
   67POPC   H3R 8890   4.569   8.736   5.705
   67POPC   H3S 8891   4.429   8.814   5.783
   67POPC   C24 8892   4.384   8.705   5.602
   67POPC   H4R 8893   4.426   8.779   5.530
   67POPC   H4S 8894   4.280   8.736   5.624
   67POPC   C25 8895   4.376   8.568   5.532
   67POPC   H5R 8896   4.302   8.579   5.450
   67POPC   H5S 8897   4.331   8.496   5.603
   67POPC   C26 8898   4.504   8.508   5.468
   67POPC   H6R 8899   4.510   8.402   5.492
   67POPC   H6S 8900   4.597   8.551   5.511
   67POPC   C27 8901   4.501   8.508   5.314
   67POPC   H7R 8902   4.519   8.609   5.274
   67POPC   H7S 8903   4.397   8.482   5.284
   67POPC   C28 8904   4.591   8.403   5.241
   67POPC   H8R 8905   4.561   8.408   5.135
   67POPC   H8S 8906   4.564   8.302   5.277
   67POPC   C29 8907   4.740   8.416   5.249
   67POPC   H91 8908   4.780   8.400   5.351
   67POPC  C210 8909   4.827   8.444   5.149
   67POPC  H101 8910   4.932   8.457   5.180
   67POPC  C211 8911   4.804   8.472   5.001
   67POPC  H11R 8912   4.696   8.485   4.980
   67POPC  H11S 8913   4.834   8.385   4.941
   67POPC  C212 8914   4.878   8.599   4.945
   67POPC  H12R 8915   4.947   8.642   5.022
   67POPC  H12S 8916   4.799   8.676   4.926
   67POPC  C213 8917   4.952   8.593   4.810
   67POPC  H13R 8918   5.046   8.535   4.817
   67POPC  H13S 8919   4.983   8.698   4.788
   67POPC  C214 8920   4.862   8.545   4.696
   67POPC  H14R 8921   4.757   8.574   4.719
   67POPC  H14S 8922   4.864   8.434   4.690
   67POPC  C215 8923   4.895   8.601   4.557
   67POPC  H15R 8924   5.000   8.575   4.529
   67POPC  H15S 8925   4.887   8.712   4.558
   67POPC  C216 8926   4.797   8.543   4.455
   67POPC  H16R 8927   4.695   8.580   4.478
   67POPC  H16S 8928   4.795   8.432   4.467
   67POPC  C217 8929   4.831   8.576   4.310
   67POPC  H17R 8930   4.919   8.645   4.306
   67POPC  H17S 8931   4.745   8.632   4.268
   67POPC  C218 8932   4.860   8.451   4.227
   67POPC  H18R 8933   4.770   8.386   4.223
   67POPC  H18S 8934   4.943   8.392   4.272
   67POPC  H18T 8935   4.888   8.478   4.123
   67POPC   C33 8936   4.471   8.234   5.662
   67POPC   H3X 8937   4.544   8.229   5.578
   67POPC   H3Y 8938   4.418   8.330   5.662
   67POPC   C34 8939   4.370   8.122   5.637
   67POPC   H4X 8940   4.289   8.122   5.714
   67POPC   H4Y 8941   4.428   8.028   5.646
   67POPC   C35 8942   4.308   8.113   5.495
   67POPC   H5X 8943   4.209   8.063   5.503
   67POPC   H5Y 8944   4.373   8.047   5.433
   67POPC   C36 8945   4.289   8.244   5.419
   67POPC   H6X 8946   4.386   8.272   5.376
   67POPC   H6Y 8947   4.255   8.324   5.488
   67POPC   C37 8948   4.185   8.234   5.307
   67POPC   H7X 8949   4.161   8.335   5.267
   67POPC   H7Y 8950   4.094   8.193   5.354
   67POPC   C38 8951   4.221   8.142   5.189
   67POPC   H8X 8952   4.128   8.116   5.133
   67POPC   H8Y 8953   4.265   8.048   5.228
   67POPC   C39 8954   4.317   8.211   5.093
   67POPC   H9X 8955   4.407   8.239   5.152
   67POPC   H9Y 8956   4.270   8.305   5.055
   67POPC  C310 8957   4.363   8.125   4.976
   67POPC  H10X 8958   4.282   8.119   4.899
   67POPC  H10Y 8959   4.383   8.021   5.011
   67POPC  C311 8960   4.492   8.181   4.915
   67POPC  H11X 8961   4.519   8.122   4.826
   67POPC  H11Y 8962   4.575   8.168   4.990
   67POPC  C312 8963   4.486   8.329   4.875
   67POPC  H12X 8964   4.586   8.358   4.834
   67POPC  H12Y 8965   4.466   8.394   4.963
   67POPC  C313 8966   4.380   8.362   4.771
   67POPC  H13X 8967   4.394   8.469   4.742
   67POPC  H13Y 8968   4.278   8.353   4.814
   67POPC  C314 8969   4.391   8.274   4.647
   67POPC  H14X 8970   4.327   8.183   4.657
   67POPC  H14Y 8971   4.497   8.240   4.633
   67POPC  C315 8972   4.352   8.356   4.526
   67POPC  H15X 8973   4.433   8.433   4.516
   67POPC  H15Y 8974   4.256   8.407   4.546
   67POPC  C316 8975   4.343   8.277   4.397
   67POPC  H16X 8976   4.442   8.233   4.375
   67POPC  H16Y 8977   4.315   8.345   4.313
   67POPC  H16Z 8978   4.267   8.197   4.404
   68POPC     N 8979   8.292   3.703   6.292
   68POPC   C12 8980   8.164   3.661   6.221
   68POPC  H12A 8981   8.082   3.719   6.256
   68POPC  H12B 8982   8.143   3.557   6.252
   68POPC   C13 8983   8.362   3.820   6.230
   68POPC  H13A 8984   8.458   3.837   6.277
   68POPC  H13B 8985   8.381   3.797   6.126
   68POPC  H13C 8986   8.306   3.912   6.238
   68POPC   C14 8987   8.270   3.731   6.437
   68POPC  H14A 8988   8.227   3.644   6.486
   68POPC  H14B 8989   8.365   3.754   6.487
   68POPC  H14C 8990   8.205   3.816   6.454
   68POPC   C15 8991   8.385   3.586   6.285
   68POPC  H15A 8992   8.427   3.578   6.185
   68POPC  H15B 8993   8.333   3.492   6.301
   68POPC  H15C 8994   8.465   3.596   6.356
   68POPC   C11 8995   8.162   3.656   6.065
   68POPC  H11A 8996   8.196   3.753   6.023
   68POPC  H11B 8997   8.057   3.641   6.029
   68POPC     P 8998   8.205   3.400   6.035
   68POPC   O13 8999   8.087   3.367   5.953
   68POPC   O14 9000   8.199   3.376   6.182
   68POPC   O12 9001   8.244   3.552   6.014
   68POPC   O11 9002   8.335   3.329   5.979
   68POPC    C1 9003   8.422   3.262   6.069
   68POPC    HA 9004   8.381   3.160   6.088
   68POPC    HB 9005   8.431   3.314   6.167
   68POPC    C2 9006   8.564   3.246   6.009
   68POPC    HS 9007   8.629   3.199   6.085
   68POPC   O21 9008   8.623   3.369   5.967
   68POPC   C21 9009   8.620   3.479   6.037
   68POPC   O22 9010   8.620   3.488   6.159
   68POPC   C22 9011   8.638   3.595   5.940
   68POPC   H2R 9012   8.694   3.557   5.851
   68POPC   H2S 9013   8.698   3.672   5.990
   68POPC    C3 9014   8.563   3.156   5.882
   68POPC    HX 9015   8.552   3.051   5.915
   68POPC    HY 9016   8.662   3.165   5.833
   68POPC   O31 9017   8.457   3.183   5.788
   68POPC   C31 9018   8.454   3.301   5.723
   68POPC   O32 9019   8.547   3.379   5.714
   68POPC   C32 9020   8.322   3.309   5.645
   68POPC   H2X 9021   8.243   3.261   5.707
   68POPC   H2Y 9022   8.337   3.254   5.550
   68POPC   C23 9023   8.508   3.661   5.889
   68POPC   H3R 9024   8.451   3.706   5.972
   68POPC   H3S 9025   8.442   3.584   5.841
   68POPC   C24 9026   8.545   3.767   5.784
   68POPC   H4R 9027   8.613   3.719   5.710
   68POPC   H4S 9028   8.602   3.847   5.836
   68POPC   C25 9029   8.429   3.831   5.706
   68POPC   H5R 9030   8.471   3.925   5.664
   68POPC   H5S 9031   8.344   3.857   5.772
   68POPC   C26 9032   8.385   3.752   5.583
   68POPC   H6R 9033   8.285   3.709   5.601
   68POPC   H6S 9034   8.458   3.669   5.570
   68POPC   C27 9035   8.381   3.832   5.451
   68POPC   H7R 9036   8.443   3.923   5.460
   68POPC   H7S 9037   8.276   3.867   5.435
   68POPC   C28 9038   8.425   3.750   5.329
   68POPC   H8R 9039   8.406   3.811   5.237
   68POPC   H8S 9040   8.356   3.664   5.326
   68POPC   C29 9041   8.571   3.709   5.332
   68POPC   H91 9042   8.641   3.793   5.330
   68POPC  C210 9043   8.625   3.586   5.337
   68POPC  H101 9044   8.735   3.579   5.338
   68POPC  C211 9045   8.556   3.453   5.339
   68POPC  H11R 9046   8.507   3.437   5.437
   68POPC  H11S 9047   8.633   3.373   5.333
   68POPC  C212 9048   8.456   3.427   5.224
   68POPC  H12R 9049   8.372   3.499   5.226
   68POPC  H12S 9050   8.411   3.327   5.241
   68POPC  C213 9051   8.514   3.440   5.083
   68POPC  H13R 9052   8.519   3.548   5.057
   68POPC  H13S 9053   8.446   3.391   5.010
   68POPC  C214 9054   8.655   3.381   5.073
   68POPC  H14R 9055   8.655   3.274   5.104
   68POPC  H14S 9056   8.724   3.434   5.142
   68POPC  C215 9057   8.714   3.397   4.935
   68POPC  H15R 9058   8.822   3.372   4.947
   68POPC  H15S 9059   8.707   3.503   4.903
   68POPC  C216 9060   8.650   3.312   4.826
   68POPC  H16R 9061   8.573   3.374   4.774
   68POPC  H16S 9062   8.593   3.228   4.868
   68POPC  C217 9063   8.756   3.261   4.729
   68POPC  H17R 9064   8.708   3.220   4.637
   68POPC  H17S 9065   8.810   3.177   4.775
   68POPC  C218 9066   8.854   3.372   4.695
   68POPC  H18R 9067   8.891   3.365   4.592
   68POPC  H18S 9068   8.939   3.374   4.766
   68POPC  H18T 9069   8.804   3.471   4.700
   68POPC   C33 9070   8.279   3.452   5.610
   68POPC   H3X 9071   8.353   3.498   5.543
   68POPC   H3Y 9072   8.276   3.510   5.706
   68POPC   C34 9073   8.141   3.466   5.543
   68POPC   H4X 9074   8.110   3.573   5.553
   68POPC   H4Y 9075   8.069   3.405   5.599
   68POPC   C35 9076   8.138   3.433   5.393
   68POPC   H5X 9077   8.151   3.324   5.379
   68POPC   H5Y 9078   8.224   3.485   5.346
   68POPC   C36 9079   8.012   3.482   5.318
   68POPC   H6X 9080   8.011   3.593   5.314
   68POPC   H6Y 9081   7.924   3.450   5.378
   68POPC   C37 9082   7.998   3.424   5.176
   68POPC   H7X 9083   7.895   3.445   5.140
   68POPC   H7Y 9084   8.009   3.313   5.182
   68POPC   C38 9085   8.093   3.477   5.067
   68POPC   H8X 9086   8.199   3.472   5.101
   68POPC   H8Y 9087   8.069   3.583   5.046
   68POPC   C39 9088   8.078   3.392   4.940
   68POPC   H9X 9089   7.974   3.352   4.938
   68POPC   H9Y 9090   8.147   3.305   4.943
   68POPC  C310 9091   8.096   3.469   4.808
   68POPC  H10X 9092   8.199   3.509   4.797
   68POPC  H10Y 9093   8.026   3.555   4.808
   68POPC  C311 9094   8.062   3.380   4.689
   68POPC  H11X 9095   7.980   3.309   4.715
   68POPC  H11Y 9096   8.150   3.318   4.659
   68POPC  C312 9097   8.016   3.463   4.570
   68POPC  H12X 9098   8.093   3.539   4.545
   68POPC  H12Y 9099   7.923   3.519   4.598
   68POPC  C313 9100   7.987   3.378   4.448
   68POPC  H13X 9101   7.901   3.311   4.469
   68POPC  H13Y 9102   8.074   3.311   4.426
   68POPC  C314 9103   7.962   3.467   4.327
   68POPC  H14X 9104   7.907   3.559   4.358
   68POPC  H14Y 9105   7.903   3.414   4.250
   68POPC  C315 9106   8.094   3.498   4.260
   68POPC  H15X 9107   8.141   3.402   4.228
   68POPC  H15Y 9108   8.159   3.549   4.335
   68POPC  C316 9109   8.085   3.588   4.139
   68POPC  H16X 9110   8.178   3.589   4.080
   68POPC  H16Y 9111   8.069   3.691   4.176
   68POPC  H16Z 9112   8.003   3.554   4.075
   69POPC     N 9113   2.898   8.252   6.097
   69POPC   C12 9114   2.903   8.124   6.014
   69POPC  H12A 9115   2.946   8.142   5.917
   69POPC  H12B 9116   2.801   8.089   5.997
   69POPC   C13 9117   2.815   8.354   6.025
   69POPC  H13A 9118   2.851   8.370   5.924
   69POPC  H13B 9119   2.712   8.323   6.018
   69POPC  H13C 9120   2.818   8.448   6.079
   69POPC   C14 9121   2.833   8.220   6.228
   69POPC  H14A 9122   2.886   8.135   6.274
   69POPC  H14B 9123   2.835   8.300   6.300
   69POPC  H14C 9124   2.732   8.183   6.214
   69POPC   C15 9125   3.035   8.306   6.122
   69POPC  H15A 9126   3.033   8.378   6.203
   69POPC  H15B 9127   3.080   8.349   6.033
   69POPC  H15C 9128   3.099   8.224   6.154
   69POPC   C11 9129   2.975   8.002   6.074
   69POPC  H11A 9130   3.083   8.022   6.090
   69POPC  H11B 9131   2.966   7.920   5.998
   69POPC     P 9132   2.937   7.818   6.246
   69POPC   O13 9133   2.890   7.805   6.385
   69POPC   O14 9134   3.077   7.784   6.213
   69POPC   O12 9135   2.915   7.966   6.199
   69POPC   O11 9136   2.830   7.745   6.150
   69POPC    C1 9137   2.701   7.809   6.138
   69POPC    HA 9138   2.709   7.920   6.129
   69POPC    HB 9139   2.640   7.788   6.229
   69POPC    C2 9140   2.617   7.769   6.012
   69POPC    HS 9141   2.584   7.664   6.029
   69POPC   O21 9142   2.691   7.778   5.887
   69POPC   C21 9143   2.623   7.725   5.782
   69POPC   O22 9144   2.521   7.660   5.793
   69POPC   C22 9145   2.684   7.772   5.650
   69POPC   H2R 9146   2.764   7.845   5.672
   69POPC   H2S 9147   2.604   7.825   5.594
   69POPC    C3 9148   2.494   7.865   6.009
   69POPC    HX 9149   2.446   7.862   6.109
   69POPC    HY 9150   2.417   7.827   5.938
   69POPC   O31 9151   2.537   8.003   5.985
   69POPC   C31 9152   2.534   8.033   5.855
   69POPC   O32 9153   2.486   7.962   5.769
   69POPC   C32 9154   2.607   8.163   5.822
   69POPC   H2X 9155   2.715   8.148   5.841
   69POPC   H2Y 9156   2.568   8.244   5.886
   69POPC   C23 9157   2.738   7.659   5.561
   69POPC   H3R 9158   2.655   7.605   5.511
   69POPC   H3S 9159   2.793   7.583   5.622
   69POPC   C24 9160   2.839   7.714   5.458
   69POPC   H4R 9161   2.887   7.628   5.406
   69POPC   H4S 9162   2.920   7.768   5.512
   69POPC   C25 9163   2.783   7.810   5.353
   69POPC   H5R 9164   2.863   7.830   5.279
   69POPC   H5S 9165   2.759   7.907   5.402
   69POPC   C26 9166   2.658   7.762   5.280
   69POPC   H6R 9167   2.631   7.839   5.204
   69POPC   H6S 9168   2.573   7.754   5.352
   69POPC   C27 9169   2.674   7.626   5.210
   69POPC   H7R 9170   2.635   7.545   5.275
   69POPC   H7S 9171   2.782   7.607   5.198
   69POPC   C28 9172   2.607   7.623   5.071
   69POPC   H8R 9173   2.620   7.521   5.027
   69POPC   H8S 9174   2.656   7.696   5.003
   69POPC   C29 9175   2.461   7.653   5.087
   69POPC   H91 9176   2.424   7.634   5.189
   69POPC  C210 9177   2.377   7.712   5.001
   69POPC  H101 9178   2.274   7.730   5.035
   69POPC  C211 9179   2.406   7.764   4.863
   69POPC  H11R 9180   2.515   7.778   4.845
   69POPC  H11S 9181   2.359   7.865   4.857
   69POPC  C212 9182   2.346   7.680   4.750
   69POPC  H12R 9183   2.260   7.620   4.786
   69POPC  H12S 9184   2.423   7.608   4.715
   69POPC  C213 9185   2.293   7.765   4.633
   69POPC  H13R 9186   2.200   7.815   4.667
   69POPC  H13S 9187   2.265   7.697   4.549
   69POPC  C214 9188   2.390   7.873   4.580
   69POPC  H14R 9189   2.417   7.942   4.663
   69POPC  H14S 9190   2.339   7.932   4.501
   69POPC  C215 9191   2.519   7.814   4.523
   69POPC  H15R 9192   2.493   7.756   4.431
   69POPC  H15S 9193   2.563   7.744   4.597
   69POPC  C216 9194   2.625   7.918   4.487
   69POPC  H16R 9195   2.671   7.958   4.581
   69POPC  H16S 9196   2.578   8.004   4.433
   69POPC  C217 9197   2.733   7.857   4.398
   69POPC  H17R 9198   2.812   7.933   4.379
   69POPC  H17S 9199   2.685   7.833   4.300
   69POPC  C218 9200   2.795   7.727   4.451
   69POPC  H18R 9201   2.878   7.694   4.386
   69POPC  H18S 9202   2.719   7.646   4.452
   69POPC  H18T 9203   2.833   7.741   4.554
   69POPC   C33 9204   2.588   8.192   5.672
   69POPC   H3X 9205   2.482   8.219   5.650
   69POPC   H3Y 9206   2.610   8.099   5.615
   69POPC   C34 9207   2.681   8.301   5.619
   69POPC   H4X 9208   2.786   8.276   5.647
   69POPC   H4Y 9209   2.655   8.399   5.664
   69POPC   C35 9210   2.674   8.309   5.466
   69POPC   H5X 9211   2.737   8.395   5.433
   69POPC   H5Y 9212   2.570   8.330   5.432
   69POPC   C36 9213   2.726   8.181   5.400
   69POPC   H6X 9214   2.641   8.122   5.359
   69POPC   H6Y 9215   2.775   8.117   5.477
   69POPC   C37 9216   2.832   8.207   5.292
   69POPC   H7X 9217   2.897   8.117   5.282
   69POPC   H7Y 9218   2.897   8.291   5.327
   69POPC   C38 9219   2.771   8.241   5.156
   69POPC   H8X 9220   2.851   8.280   5.089
   69POPC   H8Y 9221   2.697   8.323   5.169
   69POPC   C39 9222   2.701   8.122   5.088
   69POPC   H9X 9223   2.644   8.162   5.002
   69POPC   H9Y 9224   2.627   8.076   5.157
   69POPC  C310 9225   2.795   8.013   5.036
   69POPC  H10X 9226   2.733   7.933   4.989
   69POPC  H10Y 9227   2.849   7.967   5.121
   69POPC  C311 9228   2.897   8.064   4.933
   69POPC  H11X 9229   2.955   7.977   4.894
   69POPC  H11Y 9230   2.969   8.132   4.984
   69POPC  C312 9231   2.830   8.139   4.817
   69POPC  H12X 9232   2.784   8.233   4.854
   69POPC  H12Y 9233   2.749   8.075   4.776
   69POPC  C313 9234   2.927   8.175   4.704
   69POPC  H13X 9235   2.969   8.082   4.661
   69POPC  H13Y 9236   3.012   8.235   4.745
   69POPC  C314 9237   2.858   8.256   4.593
   69POPC  H14X 9238   2.823   8.353   4.636
   69POPC  H14Y 9239   2.768   8.201   4.558
   69POPC  C315 9240   2.950   8.284   4.474
   69POPC  H15X 9241   2.972   8.188   4.423
   69POPC  H15Y 9242   3.046   8.325   4.512
   69POPC  C316 9243   2.891   8.383   4.374
   69POPC  H16X 9244   2.916   8.485   4.408
   69POPC  H16Y 9245   2.781   8.374   4.367
   69POPC  H16Z 9246   2.936   8.370   4.273
   70POPC     N 9247   1.497   7.068   6.198
   70POPC   C12 9248   1.445   6.931   6.235
   70POPC  H12A 9249   1.336   6.937   6.243
   70POPC  H12B 9250   1.480   6.906   6.335
   70POPC   C13 9251   1.640   7.075   6.241
   70POPC  H13A 9252   1.650   7.067   6.349
   70POPC  H13B 9253   1.694   6.991   6.196
   70POPC  H13C 9254   1.685   7.168   6.212
   70POPC   C14 9255   1.488   7.085   6.049
   70POPC  H14A 9256   1.534   7.176   6.015
   70POPC  H14B 9257   1.540   7.001   6.001
   70POPC  H14C 9258   1.385   7.080   6.016
   70POPC   C15 9259   1.416   7.174   6.264
   70POPC  H15A 9260   1.428   7.173   6.372
   70POPC  H15B 9261   1.310   7.162   6.241
   70POPC  H15C 9262   1.446   7.273   6.231
   70POPC   C11 9263   1.477   6.815   6.138
   70POPC  H11A 9264   1.405   6.822   6.054
   70POPC  H11B 9265   1.450   6.720   6.190
   70POPC     P 9266   1.707   6.699   6.132
   70POPC   O13 9267   1.639   6.568   6.120
   70POPC   O14 9268   1.760   6.734   6.264
   70POPC   O12 9269   1.611   6.818   6.084
   70POPC   O11 9270   1.833   6.693   6.037
   70POPC    C1 9271   1.839   6.767   5.917
   70POPC    HA 9272   1.946   6.787   5.898
   70POPC    HB 9273   1.786   6.865   5.923
   70POPC    C2 9274   1.794   6.684   5.795
   70POPC    HS 9275   1.827   6.735   5.701
   70POPC   O21 9276   1.651   6.665   5.794
   70POPC   C21 9277   1.589   6.776   5.757
   70POPC   O22 9278   1.645   6.877   5.716
   70POPC   C22 9279   1.438   6.766   5.763
   70POPC   H2R 9280   1.405   6.818   5.855
   70POPC   H2S 9281   1.407   6.659   5.771
   70POPC    C3 9282   1.869   6.550   5.797
   70POPC    HX 9283   1.828   6.487   5.879
   70POPC    HY 9284   1.975   6.572   5.822
   70POPC   O31 9285   1.865   6.494   5.665
   70POPC   C31 9286   1.771   6.402   5.651
   70POPC   O32 9287   1.720   6.338   5.741
   70POPC   C32 9288   1.735   6.391   5.504
   70POPC   H2X 9289   1.786   6.303   5.460
   70POPC   H2Y 9290   1.769   6.482   5.450
   70POPC   C23 9291   1.375   6.837   5.641
   70POPC   H3R 9292   1.446   6.903   5.588
   70POPC   H3S 9293   1.292   6.901   5.676
   70POPC   C24 9294   1.317   6.736   5.542
   70POPC   H4R 9295   1.224   6.702   5.592
   70POPC   H4S 9296   1.387   6.650   5.530
   70POPC   C25 9297   1.278   6.792   5.405
   70POPC   H5R 9298   1.206   6.875   5.420
   70POPC   H5S 9299   1.223   6.712   5.350
   70POPC   C26 9300   1.393   6.841   5.316
   70POPC   H6R 9301   1.459   6.756   5.288
   70POPC   H6S 9302   1.455   6.916   5.369
   70POPC   C27 9303   1.332   6.903   5.190
   70POPC   H7R 9304   1.287   7.000   5.220
   70POPC   H7S 9305   1.248   6.837   5.158
   70POPC   C28 9306   1.427   6.928   5.073
   70POPC   H8R 9307   1.525   6.966   5.111
   70POPC   H8S 9308   1.384   7.007   5.008
   70POPC   C29 9309   1.445   6.800   4.997
   70POPC   H91 9310   1.526   6.736   5.033
   70POPC  C210 9311   1.366   6.755   4.898
   70POPC  H101 9312   1.384   6.656   4.853
   70POPC  C211 9313   1.246   6.828   4.846
   70POPC  H11R 9314   1.273   6.934   4.828
   70POPC  H11S 9315   1.164   6.827   4.922
   70POPC  C212 9316   1.192   6.764   4.718
   70POPC  H12R 9317   1.160   6.659   4.738
   70POPC  H12S 9318   1.273   6.759   4.641
   70POPC  C213 9319   1.073   6.842   4.662
   70POPC  H13R 9320   0.990   6.837   4.736
   70POPC  H13S 9321   1.037   6.793   4.568
   70POPC  C214 9322   1.105   6.989   4.635
   70POPC  H14R 9323   1.126   7.042   4.730
   70POPC  H14S 9324   1.015   7.037   4.594
   70POPC  C215 9325   1.221   7.013   4.538
   70POPC  H15R 9326   1.312   6.962   4.575
   70POPC  H15S 9327   1.242   7.121   4.540
   70POPC  C216 9328   1.193   6.973   4.393
   70POPC  H16R 9329   1.123   7.046   4.347
   70POPC  H16S 9330   1.144   6.873   4.389
   70POPC  C217 9331   1.320   6.971   4.308
   70POPC  H17R 9332   1.289   6.970   4.201
   70POPC  H17S 9333   1.374   6.876   4.330
   70POPC  C218 9334   1.414   7.089   4.333
   70POPC  H18R 9335   1.359   7.184   4.331
   70POPC  H18S 9336   1.495   7.095   4.257
   70POPC  H18T 9337   1.463   7.076   4.431
   70POPC   C33 9338   1.583   6.378   5.492
   70POPC   H3X 9339   1.530   6.463   5.541
   70POPC   H3Y 9340   1.551   6.285   5.546
   70POPC   C34 9341   1.536   6.365   5.348
   70POPC   H4X 9342   1.434   6.319   5.353
   70POPC   H4Y 9343   1.605   6.299   5.292
   70POPC   C35 9344   1.519   6.496   5.271
   70POPC   H5X 9345   1.612   6.555   5.276
   70POPC   H5Y 9346   1.439   6.553   5.323
   70POPC   C36 9347   1.472   6.470   5.126
   70POPC   H6X 9348   1.418   6.558   5.087
   70POPC   H6Y 9349   1.396   6.390   5.133
   70POPC   C37 9350   1.579   6.423   5.025
   70POPC   H7X 9351   1.524   6.366   4.946
   70POPC   H7Y 9352   1.648   6.352   5.075
   70POPC   C38 9353   1.663   6.529   4.949
   70POPC   H8X 9354   1.596   6.593   4.889
   70POPC   H8Y 9355   1.728   6.475   4.876
   70POPC   C39 9356   1.753   6.616   5.038
   70POPC   H9X 9357   1.838   6.555   5.076
   70POPC   H9Y 9358   1.696   6.652   5.126
   70POPC  C310 9359   1.805   6.744   4.970
   70POPC  H10X 9360   1.875   6.794   5.041
   70POPC  H10Y 9361   1.721   6.814   4.952
   70POPC  C311 9362   1.876   6.721   4.836
   70POPC  H11X 9363   1.799   6.706   4.758
   70POPC  H11Y 9364   1.939   6.629   4.841
   70POPC  C312 9365   1.965   6.841   4.802
   70POPC  H12X 9366   2.054   6.839   4.869
   70POPC  H12Y 9367   1.909   6.935   4.824
   70POPC  C313 9368   2.012   6.847   4.656
   70POPC  H13X 9369   2.070   6.756   4.630
   70POPC  H13Y 9370   2.081   6.935   4.646
   70POPC  C314 9371   1.895   6.867   4.557
   70POPC  H14X 9372   1.826   6.941   4.603
   70POPC  H14Y 9373   1.838   6.773   4.545
   70POPC  C315 9374   1.939   6.921   4.420
   70POPC  H15X 9375   2.014   7.003   4.436
   70POPC  H15Y 9376   1.850   6.964   4.370
   70POPC  C316 9377   1.998   6.820   4.324
   70POPC  H16X 9378   1.919   6.749   4.293
   70POPC  H16Y 9379   2.082   6.764   4.372
   70POPC  H16Z 9380   2.035   6.870   4.232
   71POPC     N 9381   2.985   1.080   6.266
   71POPC   C12 9382   3.041   1.089   6.124
   71POPC  H12A 9383   2.989   1.167   6.071
   71POPC  H12B 9384   3.022   0.995   6.073
   71POPC   C13 9385   2.839   1.110   6.270
   71POPC  H13A 9386   2.820   1.206   6.224
   71POPC  H13B 9387   2.783   1.031   6.223
   71POPC  H13C 9388   2.805   1.119   6.373
   71POPC   C14 9389   3.009   0.942   6.319
   71POPC  H14A 9390   2.983   0.931   6.424
   71POPC  H14B 9391   2.951   0.870   6.263
   71POPC  H14C 9392   3.114   0.916   6.308
   71POPC   C15 9393   3.046   1.182   6.357
   71POPC  H15A 9394   3.025   1.158   6.461
   71POPC  H15B 9395   3.001   1.280   6.341
   71POPC  H15C 9396   3.153   1.190   6.341
   71POPC   C11 9397   3.193   1.115   6.100
   71POPC  H11A 9398   3.227   1.205   6.155
   71POPC  H11B 9399   3.203   1.141   5.991
   71POPC     P 9400   3.389   0.951   6.039
   71POPC   O13 9401   3.442   0.823   6.094
   71POPC   O14 9402   3.487   1.061   6.020
   71POPC   O12 9403   3.273   1.002   6.137
   71POPC   O11 9404   3.309   0.927   5.906
   71POPC    C1 9405   3.217   0.821   5.882
   71POPC    HA 9406   3.138   0.858   5.813
   71POPC    HB 9407   3.168   0.785   5.975
   71POPC    C2 9408   3.288   0.701   5.813
   71POPC    HS 9409   3.348   0.655   5.894
   71POPC   O21 9410   3.368   0.752   5.703
   71POPC   C21 9411   3.492   0.709   5.702
   71POPC   O22 9412   3.541   0.634   5.785
   71POPC   C22 9413   3.569   0.764   5.581
   71POPC   H2R 9414   3.596   0.677   5.518
   71POPC   H2S 9415   3.661   0.811   5.621
   71POPC    C3 9416   3.190   0.592   5.760
   71POPC    HX 9417   3.108   0.580   5.835
   71POPC    HY 9418   3.243   0.494   5.755
   71POPC   O31 9419   3.131   0.628   5.633
   71POPC   C31 9420   3.213   0.603   5.529
   71POPC   O32 9421   3.308   0.527   5.531
   71POPC   C32 9422   3.184   0.702   5.416
   71POPC   H2X 9423   3.275   0.706   5.353
   71POPC   H2Y 9424   3.171   0.801   5.465
   71POPC   C23 9425   3.503   0.873   5.495
   71POPC   H3R 9426   3.486   0.964   5.556
   71POPC   H3S 9427   3.405   0.838   5.457
   71POPC   C24 9428   3.592   0.906   5.374
   71POPC   H4R 9429   3.600   0.815   5.310
   71POPC   H4S 9430   3.695   0.931   5.409
   71POPC   C25 9431   3.542   1.022   5.287
   71POPC   H5R 9432   3.602   1.022   5.193
   71POPC   H5S 9433   3.561   1.119   5.338
   71POPC   C26 9434   3.392   1.014   5.253
   71POPC   H6R 9435   3.335   1.055   5.339
   71POPC   H6S 9436   3.360   0.908   5.239
   71POPC   C27 9437   3.357   1.093   5.126
   71POPC   H7R 9438   3.432   1.173   5.110
   71POPC   H7S 9439   3.258   1.142   5.141
   71POPC   C28 9440   3.345   1.005   4.999
   71POPC   H8R 9441   3.326   1.071   4.912
   71POPC   H8S 9442   3.255   0.941   5.010
   71POPC   C29 9443   3.464   0.916   4.975
   71POPC   H91 9444   3.457   0.816   5.020
   71POPC  C210 9445   3.575   0.948   4.907
   71POPC  H101 9446   3.651   0.870   4.891
   71POPC  C211 9447   3.607   1.079   4.840
   71POPC  H11R 9448   3.705   1.118   4.878
   71POPC  H11S 9449   3.532   1.159   4.859
   71POPC  C212 9450   3.620   1.055   4.688
   71POPC  H12R 9451   3.680   0.963   4.672
   71POPC  H12S 9452   3.677   1.137   4.640
   71POPC  C213 9453   3.485   1.033   4.618
   71POPC  H13R 9454   3.425   0.964   4.681
   71POPC  H13S 9455   3.504   0.984   4.520
   71POPC  C214 9456   3.402   1.160   4.594
   71POPC  H14R 9457   3.369   1.200   4.692
   71POPC  H14S 9458   3.310   1.132   4.537
   71POPC  C215 9459   3.475   1.272   4.518
   71POPC  H15R 9460   3.567   1.301   4.575
   71POPC  H15S 9461   3.408   1.360   4.515
   71POPC  C216 9462   3.512   1.239   4.374
   71POPC  H16R 9463   3.545   1.133   4.366
   71POPC  H16S 9464   3.598   1.303   4.342
   71POPC  C217 9465   3.397   1.266   4.276
   71POPC  H17R 9466   3.385   1.375   4.260
   71POPC  H17S 9467   3.302   1.227   4.319
   71POPC  C218 9468   3.423   1.196   4.143
   71POPC  H18R 9469   3.341   1.215   4.070
   71POPC  H18S 9470   3.429   1.087   4.163
   71POPC  H18T 9471   3.519   1.229   4.099
   71POPC   C33 9472   3.061   0.673   5.328
   71POPC   H3X 9473   3.015   0.771   5.303
   71POPC   H3Y 9474   2.984   0.614   5.383
   71POPC   C34 9475   3.096   0.606   5.195
   71POPC   H4X 9476   3.140   0.505   5.214
   71POPC   H4Y 9477   3.173   0.667   5.144
   71POPC   C35 9478   2.973   0.592   5.104
   71POPC   H5X 9479   2.927   0.692   5.088
   71POPC   H5Y 9480   2.898   0.528   5.155
   71POPC   C36 9481   3.004   0.529   4.968
   71POPC   H6X 9482   2.908   0.510   4.914
   71POPC   H6Y 9483   3.053   0.431   4.985
   71POPC   C37 9484   3.095   0.611   4.876
   71POPC   H7X 9485   3.109   0.550   4.784
   71POPC   H7Y 9486   3.196   0.623   4.922
   71POPC   C38 9487   3.041   0.750   4.840
   71POPC   H8X 9488   3.034   0.812   4.932
   71POPC   H8Y 9489   2.939   0.741   4.797
   71POPC   C39 9490   3.131   0.823   4.739
   71POPC   H9X 9491   3.236   0.822   4.777
   71POPC   H9Y 9492   3.100   0.929   4.728
   71POPC  C310 9493   3.129   0.756   4.601
   71POPC  H10X 9494   3.027   0.764   4.557
   71POPC  H10Y 9495   3.153   0.648   4.612
   71POPC  C311 9496   3.232   0.813   4.504
   71POPC  H11X 9497   3.325   0.838   4.559
   71POPC  H11Y 9498   3.192   0.907   4.461
   71POPC  C312 9499   3.269   0.709   4.399
   71POPC  H12X 9500   3.176   0.656   4.369
   71POPC  H12Y 9501   3.336   0.636   4.450
   71POPC  C313 9502   3.341   0.759   4.273
   71POPC  H13X 9503   3.402   0.675   4.233
   71POPC  H13Y 9504   3.410   0.842   4.299
   71POPC  C314 9505   3.244   0.802   4.163
   71POPC  H14X 9506   3.172   0.720   4.142
   71POPC  H14Y 9507   3.298   0.819   4.068
   71POPC  C315 9508   3.168   0.928   4.204
   71POPC  H15X 9509   3.236   0.995   4.262
   71POPC  H15Y 9510   3.085   0.899   4.272
   71POPC  C316 9511   3.113   1.008   4.087
   71POPC  H16X 9512   3.069   0.942   4.009
   71POPC  H16Y 9513   3.194   1.067   4.039
   71POPC  H16Z 9514   3.035   1.078   4.123
   72POPC     N 9515   3.947   0.844   6.307
   72POPC   C12 9516   4.091   0.881   6.278
   72POPC  H12A 9517   4.154   0.823   6.345
   72POPC  H12B 9518   4.108   0.985   6.304
   72POPC   C13 9519   3.930   0.694   6.297
   72POPC  H13A 9520   4.005   0.643   6.357
   72POPC  H13B 9521   3.831   0.662   6.325
   72POPC  H13C 9522   3.950   0.665   6.194
   72POPC   C14 9523   3.907   0.889   6.444
   72POPC  H14A 9524   3.945   0.989   6.465
   72POPC  H14B 9525   3.800   0.890   6.457
   72POPC  H14C 9526   3.949   0.822   6.518
   72POPC   C15 9527   3.857   0.906   6.205
   72POPC  H15A 9528   3.859   1.013   6.210
   72POPC  H15B 9529   3.755   0.871   6.214
   72POPC  H15C 9530   3.892   0.877   6.106
   72POPC   C11 9531   4.148   0.855   6.136
   72POPC  H11A 9532   4.247   0.906   6.132
   72POPC  H11B 9533   4.083   0.901   6.058
   72POPC     P 9534   4.235   0.669   5.977
   72POPC   O13 9535   4.319   0.554   6.015
   72POPC   O14 9536   4.306   0.786   5.921
   72POPC   O12 9537   4.163   0.716   6.112
   72POPC   O11 9538   4.114   0.623   5.884
   72POPC    C1 9539   3.982   0.602   5.935
   72POPC    HA 9540   3.947   0.693   5.989
   72POPC    HB 9541   3.982   0.516   6.006
   72POPC    C2 9542   3.870   0.574   5.827
   72POPC    HS 9543   3.773   0.569   5.880
   72POPC   O21 9544   3.894   0.448   5.763
   72POPC   C21 9545   3.809   0.401   5.672
   72POPC   O22 9546   3.693   0.434   5.657
   72POPC   C22 9547   3.881   0.299   5.584
   72POPC   H2R 9548   3.902   0.349   5.487
   72POPC   H2S 9549   3.805   0.221   5.565
   72POPC    C3 9550   3.861   0.690   5.721
   72POPC    HX 9551   3.810   0.772   5.775
   72POPC    HY 9552   3.794   0.657   5.640
   72POPC   O31 9553   3.985   0.744   5.669
   72POPC   C31 9554   4.019   0.708   5.546
   72POPC   O32 9555   3.964   0.622   5.480
   72POPC   C32 9556   4.129   0.802   5.493
   72POPC   H2X 9557   4.196   0.742   5.428
   72POPC   H2Y 9558   4.188   0.836   5.581
   72POPC   C23 9559   4.010   0.239   5.645
   72POPC   H3R 9560   4.038   0.147   5.589
   72POPC   H3S 9561   3.991   0.207   5.750
   72POPC   C24 9562   4.134   0.331   5.640
   72POPC   H4R 9563   4.216   0.285   5.699
   72POPC   H4S 9564   4.111   0.428   5.690
   72POPC   C25 9565   4.185   0.364   5.499
   72POPC   H5R 9566   4.262   0.444   5.507
   72POPC   H5S 9567   4.100   0.404   5.441
   72POPC   C26 9568   4.247   0.244   5.425
   72POPC   H6R 9569   4.171   0.164   5.414
   72POPC   H6S 9570   4.330   0.203   5.486
   72POPC   C27 9571   4.302   0.276   5.284
   72POPC   H7R 9572   4.334   0.179   5.240
   72POPC   H7S 9573   4.392   0.340   5.293
   72POPC   C28 9574   4.203   0.341   5.184
   72POPC   H8R 9575   4.105   0.289   5.191
   72POPC   H8S 9576   4.241   0.321   5.082
   72POPC   C29 9577   4.186   0.490   5.204
   72POPC   H91 9578   4.102   0.520   5.269
   72POPC  C210 9579   4.259   0.586   5.146
   72POPC  H101 9580   4.235   0.691   5.166
   72POPC  C211 9581   4.373   0.566   5.050
   72POPC  H11R 9582   4.407   0.461   5.046
   72POPC  H11S 9583   4.461   0.628   5.079
   72POPC  C212 9584   4.324   0.608   4.910
   72POPC  H12R 9585   4.289   0.714   4.911
   72POPC  H12S 9586   4.236   0.544   4.882
   72POPC  C213 9587   4.431   0.593   4.803
   72POPC  H13R 9588   4.466   0.487   4.800
   72POPC  H13S 9589   4.519   0.656   4.830
   72POPC  C214 9590   4.382   0.634   4.664
   72POPC  H14R 9591   4.467   0.624   4.594
   72POPC  H14S 9592   4.354   0.742   4.664
   72POPC  C215 9593   4.262   0.552   4.612
   72POPC  H15R 9594   4.169   0.584   4.664
   72POPC  H15S 9595   4.279   0.445   4.634
   72POPC  C216 9596   4.244   0.570   4.461
   72POPC  H16R 9597   4.336   0.533   4.410
   72POPC  H16S 9598   4.234   0.678   4.437
   72POPC  C217 9599   4.126   0.496   4.399
   72POPC  H17R 9600   4.032   0.550   4.424
   72POPC  H17S 9601   4.118   0.394   4.444
   72POPC  C218 9602   4.142   0.483   4.247
   72POPC  H18R 9603   4.239   0.437   4.221
   72POPC  H18S 9604   4.137   0.583   4.199
   72POPC  H18T 9605   4.062   0.419   4.204
   72POPC   C33 9606   4.077   0.928   5.416
   72POPC   H3X 9607   4.162   1.001   5.413
   72POPC   H3Y 9608   3.994   0.976   5.471
   72POPC   C34 9609   4.036   0.902   5.270
   72POPC   H4X 9610   3.943   0.841   5.267
   72POPC   H4Y 9611   4.116   0.843   5.221
   72POPC   C35 9612   4.015   1.030   5.186
   72POPC   H5X 9613   4.094   1.105   5.211
   72POPC   H5Y 9614   3.917   1.075   5.211
   72POPC   C36 9615   4.022   1.006   5.034
   72POPC   H6X 9616   4.127   0.983   5.004
   72POPC   H6Y 9617   3.992   1.099   4.981
   72POPC   C37 9618   3.933   0.891   4.984
   72POPC   H7X 9619   3.828   0.911   5.016
   72POPC   H7Y 9620   3.965   0.795   5.031
   72POPC   C38 9621   3.939   0.875   4.832
   72POPC   H8X 9622   4.044   0.883   4.797
   72POPC   H8Y 9623   3.882   0.960   4.786
   72POPC   C39 9624   3.881   0.743   4.781
   72POPC   H9X 9625   3.785   0.722   4.833
   72POPC   H9Y 9626   3.950   0.658   4.804
   72POPC  C310 9627   3.855   0.748   4.630
   72POPC  H10X 9628   3.949   0.724   4.575
   72POPC  H10Y 9629   3.827   0.851   4.600
   72POPC  C311 9630   3.743   0.654   4.586
   72POPC  H11X 9631   3.650   0.669   4.644
   72POPC  H11Y 9632   3.779   0.550   4.600
   72POPC  C312 9633   3.711   0.676   4.439
   72POPC  H12X 9634   3.808   0.702   4.390
   72POPC  H12Y 9635   3.645   0.764   4.422
   72POPC  C313 9636   3.651   0.553   4.373
   72POPC  H13X 9637   3.547   0.537   4.406
   72POPC  H13Y 9638   3.710   0.462   4.402
   72POPC  C314 9639   3.665   0.568   4.223
   72POPC  H14X 9640   3.649   0.675   4.197
   72POPC  H14Y 9641   3.593   0.507   4.165
   72POPC  C315 9642   3.807   0.524   4.191
   72POPC  H15X 9643   3.812   0.412   4.198
   72POPC  H15Y 9644   3.877   0.562   4.268
   72POPC  C316 9645   3.859   0.572   4.058
   72POPC  H16X 9646   3.873   0.682   4.054
   72POPC  H16Y 9647   3.791   0.541   3.976
   72POPC  H16Z 9648   3.959   0.528   4.046
   73POPC     N 9649   6.998   1.524   6.337
   73POPC   C12 9650   6.938   1.489   6.201
   73POPC  H12A 9651   6.949   1.577   6.137
   73POPC  H12B 9652   6.832   1.471   6.211
   73POPC   C13 9653   7.143   1.556   6.319
   73POPC  H13A 9654   7.156   1.642   6.255
   73POPC  H13B 9655   7.193   1.570   6.414
   73POPC  H13C 9656   7.190   1.472   6.267
   73POPC   C14 9657   6.930   1.643   6.393
   73POPC  H14A 9658   6.823   1.622   6.401
   73POPC  H14B 9659   6.965   1.663   6.494
   73POPC  H14C 9660   6.943   1.732   6.334
   73POPC   C15 9661   6.983   1.411   6.435
   73POPC  H15A 9662   6.878   1.394   6.459
   73POPC  H15B 9663   7.035   1.435   6.528
   73POPC  H15C 9664   7.030   1.321   6.396
   73POPC   C11 9665   7.003   1.372   6.123
   73POPC  H11A 9666   6.941   1.354   6.031
   73POPC  H11B 9667   6.999   1.280   6.184
   73POPC     P 9668   7.208   1.343   5.961
   73POPC   O13 9669   7.137   1.218   5.923
   73POPC   O14 9670   7.353   1.329   5.989
   73POPC   O12 9671   7.138   1.404   6.090
   73POPC   O11 9672   7.184   1.455   5.850
   73POPC    C1 9673   7.233   1.587   5.875
   73POPC    HA 9674   7.342   1.585   5.899
   73POPC    HB 9675   7.180   1.629   5.963
   73POPC    C2 9676   7.214   1.688   5.755
   73POPC    HS 9677   7.208   1.789   5.802
   73POPC   O21 9678   7.098   1.667   5.674
   73POPC   C21 9679   6.987   1.665   5.739
   73POPC   O22 9680   6.969   1.703   5.854
   73POPC   C22 9681   6.876   1.624   5.647
   73POPC   H2R 9682   6.907   1.538   5.586
   73POPC   H2S 9683   6.853   1.709   5.580
   73POPC    C3 9684   7.330   1.690   5.655
   73POPC    HX 9685   7.426   1.696   5.711
   73POPC    HY 9686   7.320   1.778   5.588
   73POPC   O31 9687   7.319   1.569   5.579
   73POPC   C31 9688   7.424   1.526   5.518
   73POPC   O32 9689   7.524   1.591   5.494
   73POPC   C32 9690   7.401   1.379   5.491
   73POPC   H2X 9691   7.294   1.354   5.507
   73POPC   H2Y 9692   7.459   1.323   5.567
   73POPC   C23 9693   6.753   1.591   5.733
   73POPC   H3R 9694   6.665   1.594   5.664
   73POPC   H3S 9695   6.735   1.670   5.809
   73POPC   C24 9696   6.759   1.456   5.806
   73POPC   H4R 9697   6.677   1.447   5.880
   73POPC   H4S 9698   6.855   1.452   5.863
   73POPC   C25 9699   6.754   1.333   5.715
   73POPC   H5R 9700   6.759   1.241   5.777
   73POPC   H5S 9701   6.846   1.336   5.655
   73POPC   C26 9702   6.629   1.325   5.625
   73POPC   H6R 9703   6.588   1.425   5.599
   73POPC   H6S 9704   6.549   1.273   5.684
   73POPC   C27 9705   6.651   1.250   5.492
   73POPC   H7R 9706   6.550   1.215   5.460
   73POPC   H7S 9707   6.714   1.161   5.509
   73POPC   C28 9708   6.706   1.339   5.377
   73POPC   H8R 9709   6.646   1.433   5.374
   73POPC   H8S 9710   6.687   1.286   5.282
   73POPC   C29 9711   6.852   1.370   5.389
   73POPC   H91 9712   6.904   1.322   5.473
   73POPC  C210 9713   6.927   1.443   5.305
   73POPC  H101 9714   7.032   1.462   5.331
   73POPC  C211 9715   6.878   1.509   5.179
   73POPC  H11R 9716   6.949   1.589   5.149
   73POPC  H11S 9717   6.778   1.555   5.192
   73POPC  C212 9718   6.871   1.404   5.067
   73POPC  H12R 9719   6.778   1.343   5.079
   73POPC  H12S 9720   6.957   1.334   5.072
   73POPC  C213 9721   6.873   1.466   4.927
   73POPC  H13R 9722   6.972   1.513   4.911
   73POPC  H13S 9723   6.796   1.547   4.922
   73POPC  C214 9724   6.846   1.363   4.817
   73POPC  H14R 9725   6.738   1.334   4.823
   73POPC  H14S 9726   6.906   1.272   4.836
   73POPC  C215 9727   6.876   1.414   4.676
   73POPC  H15R 9728   6.820   1.349   4.605
   73POPC  H15S 9729   6.984   1.401   4.655
   73POPC  C216 9730   6.841   1.562   4.656
   73POPC  H16R 9731   6.908   1.625   4.719
   73POPC  H16S 9732   6.737   1.579   4.691
   73POPC  C217 9733   6.853   1.612   4.511
   73POPC  H17R 9734   6.960   1.622   4.484
   73POPC  H17S 9735   6.808   1.714   4.506
   73POPC  C218 9736   6.784   1.522   4.410
   73POPC  H18R 9737   6.695   1.479   4.459
   73POPC  H18S 9738   6.849   1.437   4.381
   73POPC  H18T 9739   6.751   1.577   4.320
   73POPC   C33 9740   7.444   1.337   5.349
   73POPC   H3X 9741   7.458   1.226   5.350
   73POPC   H3Y 9742   7.542   1.382   5.322
   73POPC   C34 9743   7.340   1.371   5.243
   73POPC   H4X 9744   7.331   1.481   5.229
   73POPC   H4Y 9745   7.240   1.334   5.275
   73POPC   C35 9746   7.378   1.302   5.112
   73POPC   H5X 9747   7.388   1.194   5.132
   73POPC   H5Y 9748   7.478   1.339   5.079
   73POPC   C36 9749   7.276   1.322   5.000
   73POPC   H6X 9750   7.278   1.428   4.966
   73POPC   H6Y 9751   7.174   1.301   5.037
   73POPC   C37 9752   7.305   1.229   4.881
   73POPC   H7X 9753   7.276   1.126   4.909
   73POPC   H7Y 9754   7.414   1.229   4.859
   73POPC   C38 9755   7.226   1.268   4.757
   73POPC   H8X 9756   7.147   1.339   4.788
   73POPC   H8Y 9757   7.175   1.179   4.713
   73POPC   C39 9758   7.315   1.334   4.651
   73POPC   H9X 9759   7.364   1.256   4.587
   73POPC   H9Y 9760   7.396   1.392   4.701
   73POPC  C310 9761   7.232   1.429   4.567
   73POPC  H10X 9762   7.181   1.501   4.636
   73POPC  H10Y 9763   7.154   1.372   4.513
   73POPC  C311 9764   7.312   1.511   4.466
   73POPC  H11X 9765   7.357   1.443   4.391
   73POPC  H11Y 9766   7.394   1.568   4.516
   73POPC  C312 9767   7.215   1.608   4.398
   73POPC  H12X 9768   7.189   1.689   4.469
   73POPC  H12Y 9769   7.122   1.551   4.377
   73POPC  C313 9770   7.264   1.663   4.265
   73POPC  H13X 9771   7.175   1.667   4.199
   73POPC  H13Y 9772   7.338   1.594   4.219
   73POPC  C314 9773   7.319   1.805   4.272
   73POPC  H14X 9774   7.402   1.808   4.345
   73POPC  H14Y 9775   7.239   1.874   4.307
   73POPC  C315 9776   7.368   1.852   4.135
   73POPC  H15X 9777   7.458   1.791   4.111
   73POPC  H15Y 9778   7.399   1.958   4.143
   73POPC  C316 9779   7.264   1.836   4.024
   73POPC  H16X 9780   7.167   1.879   4.056
   73POPC  H16Y 9781   7.247   1.728   4.000
   73POPC  H16Z 9782   7.296   1.886   3.930
   74POPC     N 9783   1.365   2.560   6.337
   74POPC   C12 9784   1.412   2.564   6.193
   74POPC  H12A 9785   1.461   2.469   6.167
   74POPC  H12B 9786   1.492   2.635   6.181
   74POPC   C13 9787   1.479   2.555   6.432
   74POPC  H13A 9788   1.543   2.642   6.427
   74POPC  H13B 9789   1.444   2.543   6.533
   74POPC  H13C 9790   1.541   2.468   6.410
   74POPC   C14 9791   1.279   2.678   6.372
   74POPC  H14A 9792   1.190   2.680   6.309
   74POPC  H14B 9793   1.248   2.671   6.475
   74POPC  H14C 9794   1.333   2.771   6.359
   74POPC   C15 9795   1.281   2.436   6.349
   74POPC  H15A 9796   1.340   2.347   6.334
   74POPC  H15B 9797   1.209   2.438   6.267
   74POPC  H15C 9798   1.226   2.430   6.441
   74POPC   C11 9799   1.304   2.587   6.087
   74POPC  H11A 9800   1.354   2.611   5.991
   74POPC  H11B 9801   1.241   2.676   6.111
   74POPC     P 9802   1.264   2.354   5.982
   74POPC   O13 9803   1.155   2.255   5.972
   74POPC   O14 9804   1.399   2.310   6.024
   74POPC   O12 9805   1.219   2.472   6.078
   74POPC   O11 9806   1.274   2.441   5.852
   74POPC    C1 9807   1.158   2.516   5.811
   74POPC    HA 9808   1.200   2.583   5.736
   74POPC    HB 9809   1.113   2.578   5.891
   74POPC    C2 9810   1.052   2.428   5.742
   74POPC    HS 9811   1.007   2.361   5.819
   74POPC   O21 9812   1.134   2.352   5.654
   74POPC   C21 9813   1.078   2.266   5.581
   74POPC   O22 9814   0.959   2.250   5.560
   74POPC   C22 9815   1.189   2.187   5.517
   74POPC   H2R 9816   1.209   2.102   5.584
   74POPC   H2S 9817   1.280   2.249   5.506
   74POPC    C3 9818   0.933   2.502   5.669
   74POPC    HX 9819   0.902   2.587   5.733
   74POPC    HY 9820   0.847   2.431   5.667
   74POPC   O31 9821   0.965   2.544   5.534
   74POPC   C31 9822   0.867   2.604   5.469
   74POPC   O32 9823   0.755   2.623   5.514
   74POPC   C32 9824   0.910   2.652   5.328
   74POPC   H2X 9825   0.833   2.605   5.263
   74POPC   H2Y 9826   1.006   2.610   5.298
   74POPC   C23 9827   1.133   2.145   5.383
   74POPC   H3R 9828   1.033   2.095   5.395
   74POPC   H3S 9829   1.196   2.072   5.331
   74POPC   C24 9830   1.126   2.258   5.284
   74POPC   H4R 9831   1.230   2.281   5.249
   74POPC   H4S 9832   1.081   2.351   5.325
   74POPC   C25 9833   1.043   2.202   5.172
   74POPC   H5R 9834   1.045   2.090   5.177
   74POPC   H5S 9835   1.093   2.231   5.078
   74POPC   C26 9836   0.897   2.243   5.177
   74POPC   H6R 9837   0.886   2.353   5.171
   74POPC   H6S 9838   0.857   2.215   5.278
   74POPC   C27 9839   0.815   2.173   5.068
   74POPC   H7R 9840   0.712   2.211   5.073
   74POPC   H7S 9841   0.812   2.065   5.101
   74POPC   C28 9842   0.873   2.174   4.923
   74POPC   H8R 9843   0.893   2.066   4.902
   74POPC   H8S 9844   0.972   2.221   4.927
   74POPC   C29 9845   0.803   2.227   4.799
   74POPC   H91 9846   0.699   2.193   4.787
   74POPC  C210 9847   0.851   2.316   4.707
   74POPC  H101 9848   0.788   2.338   4.619
   74POPC  C211 9849   0.987   2.384   4.706
   74POPC  H11R 9850   1.058   2.322   4.765
   74POPC  H11S 9851   0.978   2.479   4.761
   74POPC  C212 9852   1.065   2.423   4.577
   74POPC  H12R 9853   1.029   2.361   4.492
   74POPC  H12S 9854   1.172   2.395   4.594
   74POPC  C213 9855   1.067   2.571   4.529
   74POPC  H13R 9856   0.970   2.586   4.478
   74POPC  H13S 9857   1.144   2.582   4.449
   74POPC  C214 9858   1.087   2.691   4.623
   74POPC  H14R 9859   1.194   2.720   4.632
   74POPC  H14S 9860   1.053   2.668   4.725
   74POPC  C215 9861   1.014   2.813   4.563
   74POPC  H15R 9862   0.982   2.887   4.640
   74POPC  H15S 9863   0.921   2.778   4.512
   74POPC  C216 9864   1.100   2.880   4.456
   74POPC  H16R 9865   1.144   2.802   4.391
   74POPC  H16S 9866   1.185   2.934   4.503
   74POPC  C217 9867   1.013   2.974   4.373
   74POPC  H17R 9868   0.985   3.053   4.445
   74POPC  H17S 9869   0.919   2.924   4.342
   74POPC  C218 9870   1.081   3.036   4.251
   74POPC  H18R 9871   1.058   3.144   4.244
   74POPC  H18S 9872   1.044   2.987   4.158
   74POPC  H18T 9873   1.191   3.023   4.256
   74POPC   C33 9874   0.903   2.805   5.301
   74POPC   H3X 9875   0.888   2.857   5.399
   74POPC   H3Y 9876   0.808   2.823   5.246
   74POPC   C34 9877   1.013   2.888   5.224
   74POPC   H4X 9878   1.054   2.956   5.300
   74POPC   H4Y 9879   0.959   2.945   5.146
   74POPC   C35 9880   1.136   2.833   5.146
   74POPC   H5X 9881   1.111   2.797   5.045
   74POPC   H5Y 9882   1.160   2.748   5.209
   74POPC   C36 9883   1.261   2.922   5.129
   74POPC   H6X 9884   1.299   2.942   5.232
   74POPC   H6Y 9885   1.232   3.017   5.081
   74POPC   C37 9886   1.385   2.869   5.048
   74POPC   H7X 9887   1.428   2.783   5.102
   74POPC   H7Y 9888   1.461   2.950   5.053
   74POPC   C38 9889   1.367   2.832   4.898
   74POPC   H8X 9890   1.395   2.919   4.834
   74POPC   H8Y 9891   1.259   2.813   4.880
   74POPC   C39 9892   1.446   2.705   4.855
   74POPC   H9X 9893   1.367   2.629   4.833
   74POPC   H9Y 9894   1.505   2.664   4.940
   74POPC  C310 9895   1.540   2.718   4.732
   74POPC  H10X 9896   1.638   2.759   4.765
   74POPC  H10Y 9897   1.495   2.793   4.663
   74POPC  C311 9898   1.564   2.590   4.649
   74POPC  H11X 9899   1.631   2.519   4.701
   74POPC  H11Y 9900   1.615   2.620   4.555
   74POPC  C312 9901   1.433   2.518   4.611
   74POPC  H12X 9902   1.351   2.592   4.618
   74POPC  H12Y 9903   1.411   2.438   4.684
   74POPC  C313 9904   1.427   2.462   4.467
   74POPC  H13X 9905   1.465   2.536   4.394
   74POPC  H13Y 9906   1.319   2.449   4.444
   74POPC  C314 9907   1.498   2.327   4.450
   74POPC  H14X 9908   1.492   2.271   4.546
   74POPC  H14Y 9909   1.605   2.345   4.428
   74POPC  C315 9910   1.435   2.240   4.340
   74POPC  H15X 9911   1.500   2.151   4.322
   74POPC  H15Y 9912   1.436   2.299   4.246
   74POPC  C316 9913   1.293   2.191   4.372
   74POPC  H16X 9914   1.293   2.127   4.463
   74POPC  H16Y 9915   1.252   2.132   4.287
   74POPC  H16Z 9916   1.223   2.275   4.388
   75POPC     N 9917   7.557   2.062   6.236
   75POPC   C12 9918   7.577   1.932   6.160
   75POPC  H12A 9919   7.497   1.919   6.089
   75POPC  H12B 9920   7.573   1.849   6.229
   75POPC   C13 9921   7.573   2.179   6.144
   75POPC  H13A 9922   7.497   2.181   6.066
   75POPC  H13B 9923   7.574   2.272   6.198
   75POPC  H13C 9924   7.670   2.170   6.095
   75POPC   C14 9925   7.425   2.064   6.307
   75POPC  H14A 9926   7.413   1.978   6.371
   75POPC  H14B 9927   7.414   2.154   6.367
   75POPC  H14C 9928   7.343   2.064   6.236
   75POPC   C15 9929   7.666   2.073   6.338
   75POPC  H15A 9930   7.763   2.052   6.288
   75POPC  H15B 9931   7.658   2.004   6.420
   75POPC  H15C 9932   7.674   2.172   6.381
   75POPC   C11 9933   7.709   1.917   6.079
   75POPC  H11A 9934   7.708   1.997   6.001
   75POPC  H11B 9935   7.708   1.820   6.026
   75POPC     P 9936   7.962   1.971   6.094
   75POPC   O13 9937   8.071   1.895   6.158
   75POPC   O14 9938   7.960   2.119   6.105
   75POPC   O12 9939   7.825   1.923   6.162
   75POPC   O11 9940   7.927   1.920   5.947
   75POPC    C1 9941   8.016   1.862   5.853
   75POPC    HA 9942   7.954   1.806   5.779
   75POPC    HB 9943   8.082   1.787   5.902
   75POPC    C2 9944   8.101   1.969   5.777
   75POPC    HS 9945   8.208   1.950   5.805
   75POPC   O21 9946   8.063   2.098   5.824
   75POPC   C21 9947   8.123   2.195   5.764
   75POPC   O22 9948   8.233   2.193   5.710
   75POPC   C22 9949   8.013   2.292   5.724
   75POPC   H2R 9950   8.061   2.325   5.631
   75POPC   H2S 9951   8.006   2.373   5.799
   75POPC    C3 9952   8.090   1.964   5.619
   75POPC    HX 9953   8.191   1.991   5.579
   75POPC    HY 9954   8.027   2.041   5.574
   75POPC   O31 9955   8.050   1.834   5.572
   75POPC   C31 9956   8.087   1.806   5.447
   75POPC   O32 9957   8.162   1.716   5.415
   75POPC   C32 9958   8.003   1.884   5.346
   75POPC   H2X 9959   8.059   1.886   5.251
   75POPC   H2Y 9960   7.986   1.989   5.379
   75POPC   C23 9961   7.875   2.230   5.691
   75POPC   H3R 9962   7.819   2.212   5.785
   75POPC   H3S 9963   7.883   2.131   5.643
   75POPC   C24 9964   7.790   2.309   5.590
   75POPC   H4R 9965   7.836   2.305   5.488
   75POPC   H4S 9966   7.784   2.416   5.621
   75POPC   C25 9967   7.649   2.250   5.585
   75POPC   H5R 9968   7.582   2.315   5.524
   75POPC   H5S 9969   7.614   2.253   5.690
   75POPC   C26 9970   7.638   2.103   5.538
   75POPC   H6R 9971   7.535   2.068   5.561
   75POPC   H6S 9972   7.705   2.037   5.597
   75POPC   C27 9973   7.661   2.077   5.388
   75POPC   H7R 9974   7.623   1.974   5.366
   75POPC   H7S 9975   7.771   2.077   5.367
   75POPC   C28 9976   7.593   2.178   5.294
   75POPC   H8R 9977   7.641   2.277   5.308
   75POPC   H8S 9978   7.487   2.192   5.324
   75POPC   C29 9979   7.598   2.134   5.150
   75POPC   H91 9980   7.518   2.065   5.118
   75POPC  C210 9981   7.696   2.164   5.064
   75POPC  H101 9982   7.691   2.124   4.961
   75POPC  C211 9983   7.818   2.248   5.094
   75POPC  H11R 9984   7.820   2.283   5.200
   75POPC  H11S 9985   7.820   2.339   5.030
   75POPC  C212 9986   7.946   2.166   5.072
   75POPC  H12R 9987   7.943   2.073   5.133
   75POPC  H12S 9988   8.033   2.226   5.106
   75POPC  C213 9989   7.966   2.127   4.925
   75POPC  H13R 9990   7.960   2.217   4.860
   75POPC  H13S 9991   7.885   2.057   4.895
   75POPC  C214 9992   8.099   2.056   4.904
   75POPC  H14R 9993   8.094   1.996   4.811
   75POPC  H14S 9994   8.117   1.985   4.988
   75POPC  C215 9995   8.212   2.158   4.895
   75POPC  H15R 9996   8.297   2.130   4.959
   75POPC  H15S 9997   8.176   2.255   4.938
   75POPC  C216 9998   8.252   2.188   4.750
   75POPC  H16R 9999   8.333   2.264   4.752
   75POPC  H16S10000   8.158   2.226   4.706
   75POPC  C21710001   8.297   2.079   4.654
   75POPC  H17R10002   8.216   2.004   4.645
   75POPC  H17S10003   8.388   2.034   4.697
   75POPC  C21810004   8.334   2.127   4.513
   75POPC  H18R10005   8.368   2.043   4.450
   75POPC  H18S10006   8.417   2.200   4.517
   75POPC  H18T10007   8.246   2.175   4.465
   75POPC   C3310008   7.869   1.807   5.337
   75POPC   H3X10009   7.800   1.842   5.416
   75POPC   H3Y10010   7.891   1.699   5.359
   75POPC   C3410011   7.792   1.795   5.204
   75POPC   H4X10012   7.861   1.775   5.119
   75POPC   H4Y10013   7.737   1.888   5.182
   75POPC   C3510014   7.698   1.674   5.223
   75POPC   H5X10015   7.677   1.664   5.332
   75POPC   H5Y10016   7.753   1.582   5.193
   75POPC   C3610017   7.563   1.676   5.152
   75POPC   H6X10018   7.502   1.762   5.191
   75POPC   H6Y10019   7.508   1.582   5.176
   75POPC   C3710020   7.580   1.690   5.002
   75POPC   H7X10021   7.642   1.782   4.994
   75POPC   H7Y10022   7.482   1.707   4.952
   75POPC   C3810023   7.657   1.578   4.933
   75POPC   H8X10024   7.609   1.480   4.954
   75POPC   H8Y10025   7.761   1.573   4.975
   75POPC   C3910026   7.667   1.597   4.781
   75POPC   H9X10027   7.566   1.589   4.736
   75POPC   H9Y10028   7.726   1.511   4.742
   75POPC  C31010029   7.734   1.728   4.736
   75POPC  H10X10030   7.763   1.714   4.629
   75POPC  H10Y10031   7.828   1.745   4.794
   75POPC  C31110032   7.645   1.853   4.741
   75POPC  H11X10033   7.619   1.888   4.843
   75POPC  H11Y10034   7.548   1.827   4.695
   75POPC  C31210035   7.708   1.976   4.675
   75POPC  H12X10036   7.795   1.945   4.614
   75POPC  H12Y10037   7.746   2.044   4.754
   75POPC  C31310038   7.607   2.056   4.592
   75POPC  H13X10039   7.654   2.150   4.557
   75POPC  H13Y10040   7.520   2.082   4.656
   75POPC  C31410041   7.561   1.976   4.470
   75POPC  H14X10042   7.479   2.031   4.419
   75POPC  H14Y10043   7.518   1.879   4.503
   75POPC  C31510044   7.675   1.949   4.372
   75POPC  H15X10045   7.772   1.988   4.411
   75POPC  H15Y10046   7.653   2.012   4.285
   75POPC  C31610047   7.692   1.804   4.327
   75POPC  H16X10048   7.663   1.794   4.220
   75POPC  H16Y10049   7.628   1.735   4.386
   75POPC  H16Z10050   7.798   1.771   4.337
   76POPC     N10051   8.006   7.207   6.139
   76POPC   C1210052   8.009   7.332   6.051
   76POPC  H12A10053   8.050   7.305   5.954
   76POPC  H12B10054   8.073   7.405   6.098
   76POPC   C1310055   7.897   7.115   6.094
   76POPC  H13A10056   7.877   7.040   6.170
   76POPC  H13B10057   7.804   7.171   6.082
   76POPC  H13C10058   7.917   7.065   6.001
   76POPC   C1410059   8.137   7.135   6.132
   76POPC  H14A10060   8.158   7.101   6.031
   76POPC  H14B10061   8.217   7.199   6.166
   76POPC  H14C10062   8.134   7.046   6.194
   76POPC   C1510063   7.974   7.246   6.280
   76POPC  H15A10064   8.049   7.306   6.330
   76POPC  H15B10065   7.954   7.159   6.341
   76POPC  H15C10066   7.882   7.307   6.277
   76POPC   C1110067   7.877   7.408   6.022
   76POPC  H11A10068   7.815   7.344   5.953
   76POPC  H11B10069   7.900   7.501   5.965
   76POPC     P10070   7.658   7.403   6.158
   76POPC   O1310071   7.612   7.424   6.296
   76POPC   O1410072   7.644   7.263   6.112
   76POPC   O1210073   7.811   7.445   6.143
   76POPC   O1110074   7.587   7.502   6.058
   76POPC    C110075   7.459   7.476   6.002
   76POPC    HA10076   7.419   7.572   5.965
   76POPC    HB10077   7.389   7.437   6.079
   76POPC    C210078   7.464   7.378   5.881
   76POPC    HS10079   7.479   7.276   5.922
   76POPC   O2110080   7.573   7.419   5.796
   76POPC   C2110081   7.633   7.322   5.730
   76POPC   O2210082   7.607   7.203   5.738
   76POPC   C2210083   7.735   7.383   5.634
   76POPC   H2R10084   7.827   7.405   5.693
   76POPC   H2S10085   7.693   7.479   5.596
   76POPC    C310086   7.327   7.384   5.806
   76POPC    HX10087   7.306   7.491   5.782
   76POPC    HY10088   7.248   7.352   5.878
   76POPC   O3110089   7.319   7.299   5.688
   76POPC   C3110090   7.361   7.358   5.576
   76POPC   O3210091   7.409   7.469   5.569
   76POPC   C3210092   7.332   7.269   5.456
   76POPC   H2X10093   7.227   7.233   5.462
   76POPC   H2Y10094   7.400   7.182   5.462
   76POPC   C2310095   7.770   7.293   5.512
   76POPC   H3R10096   7.679   7.279   5.451
   76POPC   H3S10097   7.803   7.193   5.547
   76POPC   C2410098   7.880   7.355   5.424
   76POPC   H4R10099   7.969   7.374   5.488
   76POPC   H4S10100   7.845   7.453   5.386
   76POPC   C2510101   7.925   7.269   5.304
   76POPC   H5R10102   7.840   7.256   5.233
   76POPC   H5S10103   7.955   7.168   5.339
   76POPC   C2610104   8.043   7.334   5.230
   76POPC   H6R10105   8.117   7.369   5.306
   76POPC   H6S10106   8.008   7.424   5.175
   76POPC   C2710107   8.119   7.242   5.132
   76POPC   H7R10108   8.163   7.157   5.190
   76POPC   H7S10109   8.205   7.298   5.089
   76POPC   C2810110   8.035   7.185   5.017
   76POPC   H8R10111   7.948   7.129   5.058
   76POPC   H8S10112   8.098   7.109   4.965
   76POPC   C2910113   7.988   7.293   4.922
   76POPC   H9110114   7.896   7.345   4.954
   76POPC  C21010115   8.046   7.329   4.806
   76POPC  H10110116   8.000   7.409   4.747
   76POPC  C21110117   8.171   7.269   4.746
   76POPC  H11R10118   8.249   7.255   4.825
   76POPC  H11S10119   8.216   7.338   4.671
   76POPC  C21210120   8.147   7.132   4.679
   76POPC  H12R10121   8.112   7.060   4.756
   76POPC  H12S10122   8.245   7.093   4.642
   76POPC  C21310123   8.049   7.129   4.562
   76POPC  H13R10124   8.105   7.147   4.467
   76POPC  H13S10125   7.972   7.209   4.572
   76POPC  C21410126   7.977   6.993   4.555
   76POPC  H14R10127   8.051   6.912   4.575
   76POPC  H14S10128   7.940   6.977   4.452
   76POPC  C21510129   7.862   6.982   4.657
   76POPC  H15R10130   7.897   7.017   4.756
   76POPC  H15S10131   7.836   6.875   4.672
   76POPC  C21610132   7.733   7.059   4.620
   76POPC  H16R10133   7.749   7.160   4.663
   76POPC  H16S10134   7.648   7.012   4.673
   76POPC  C21710135   7.698   7.079   4.471
   76POPC  H17R10136   7.736   6.994   4.410
   76POPC  H17S10137   7.752   7.171   4.437
   76POPC  C21810138   7.549   7.094   4.437
   76POPC  H18R10139   7.496   7.156   4.511
   76POPC  H18S10140   7.500   6.995   4.433
   76POPC  H18T10141   7.537   7.143   4.338
   76POPC   C3310142   7.353   7.348   5.324
   76POPC   H3X10143   7.440   7.418   5.332
   76POPC   H3Y10144   7.264   7.410   5.303
   76POPC   C3410145   7.383   7.256   5.205
   76POPC   H4X10146   7.367   7.314   5.111
   76POPC   H4Y10147   7.313   7.170   5.206
   76POPC   C3510148   7.530   7.210   5.210
   76POPC   H5X10149   7.554   7.175   5.313
   76POPC   H5Y10150   7.595   7.298   5.189
   76POPC   C3610151   7.566   7.097   5.113
   76POPC   H6X10152   7.524   7.001   5.150
   76POPC   H6Y10153   7.677   7.085   5.112
   76POPC   C3710154   7.516   7.121   4.971
   76POPC   H7X10155   7.406   7.136   4.970
   76POPC   H7Y10156   7.537   7.030   4.912
   76POPC   C3810157   7.586   7.234   4.897
   76POPC   H8X10158   7.692   7.202   4.882
   76POPC   H8Y10159   7.588   7.326   4.957
   76POPC   C3910160   7.522   7.257   4.759
   76POPC   H9X10161   7.482   7.161   4.720
   76POPC   H9Y10162   7.602   7.289   4.689
   76POPC  C31010163   7.415   7.365   4.752
   76POPC  H10X10164   7.325   7.335   4.810
   76POPC  H10Y10165   7.383   7.375   4.645
   76POPC  C31110166   7.465   7.502   4.800
   76POPC  H11X10167   7.467   7.503   4.911
   76POPC  H11Y10168   7.389   7.576   4.766
   76POPC  C31210169   7.603   7.543   4.745
   76POPC  H12X10170   7.682   7.474   4.781
   76POPC  H12Y10171   7.631   7.644   4.782
   76POPC  C31310172   7.601   7.549   4.593
   76POPC  H13X10173   7.510   7.606   4.564
   76POPC  H13Y10174   7.592   7.448   4.549
   76POPC  C31410175   7.721   7.620   4.531
   76POPC  H14X10176   7.815   7.563   4.549
   76POPC  H14Y10177   7.733   7.721   4.576
   76POPC  C31510178   7.695   7.633   4.382
   76POPC  H15X10179   7.587   7.618   4.361
   76POPC  H15Y10180   7.747   7.552   4.328
   76POPC  C31610181   7.733   7.770   4.327
   76POPC  H16X10182   7.837   7.797   4.355
   76POPC  H16Y10183   7.664   7.849   4.363
   76POPC  H16Z10184   7.727   7.764   4.217
   77POPC     N10185   0.791   6.268   5.955
   77POPC   C1210186   0.799   6.365   6.071
   77POPC  H12A10187   0.703   6.412   6.081
   77POPC  H12B10188   0.871   6.443   6.047
   77POPC   C1310189   0.924   6.201   5.939
   77POPC  H13A10190   0.923   6.118   5.871
   77POPC  H13B10191   1.002   6.270   5.907
   77POPC  H13C10192   0.960   6.166   6.037
   77POPC   C1410193   0.687   6.162   5.976
   77POPC  H14A10194   0.714   6.101   6.062
   77POPC  H14B10195   0.589   6.206   5.994
   77POPC  H14C10196   0.679   6.098   5.889
   77POPC   C1510197   0.751   6.342   5.831
   77POPC  H15A10198   0.750   6.275   5.746
   77POPC  H15B10199   0.817   6.424   5.809
   77POPC  H15C10200   0.651   6.382   5.843
   77POPC   C1110201   0.844   6.310   6.208
   77POPC  H11A10202   0.803   6.207   6.221
   77POPC  H11B10203   0.802   6.375   6.286
   77POPC     P10204   1.053   6.205   6.315
   77POPC   O1310205   0.961   6.167   6.425
   77POPC   O1410206   1.195   6.236   6.349
   77POPC   O1210207   0.986   6.317   6.221
   77POPC   O1110208   1.049   6.086   6.210
   77POPC    C110209   1.160   6.000   6.184
   77POPC    HA10210   1.119   5.904   6.147
   77POPC    HB10211   1.218   5.977   6.277
   77POPC    C210212   1.258   6.055   6.075
   77POPC    HS10213   1.352   6.078   6.130
   77POPC   O2110214   1.204   6.173   6.012
   77POPC   C2110215   1.289   6.273   5.993
   77POPC   O2210216   1.408   6.270   6.017
   77POPC   C2210217   1.217   6.393   5.933
   77POPC   H2R10218   1.267   6.484   5.971
   77POPC   H2S10219   1.114   6.395   5.972
   77POPC    C310220   1.287   5.946   5.968
   77POPC    HX10221   1.332   5.859   6.021
   77POPC    HY10222   1.368   5.984   5.900
   77POPC   O3110223   1.168   5.900   5.898
   77POPC   C3110224   1.143   5.967   5.783
   77POPC   O3210225   1.216   6.053   5.737
   77POPC   C3210226   1.015   5.920   5.715
   77POPC   H2X10227   0.930   5.936   5.784
   77POPC   H2Y10228   1.026   5.812   5.694
   77POPC   C2310229   1.221   6.393   5.778
   77POPC   H3R10230   1.228   6.289   5.739
   77POPC   H3S10231   1.313   6.446   5.746
   77POPC   C2410232   1.098   6.456   5.712
   77POPC   H4R10233   1.081   6.555   5.761
   77POPC   H4S10234   1.008   6.394   5.730
   77POPC   C2510235   1.117   6.480   5.562
   77POPC   H5R10236   1.225   6.503   5.546
   77POPC   H5S10237   1.056   6.567   5.530
   77POPC   C2610238   1.088   6.365   5.465
   77POPC   H6R10239   0.980   6.338   5.469
   77POPC   H6S10240   1.148   6.276   5.495
   77POPC   C2710241   1.125   6.409   5.322
   77POPC   H7R10242   1.236   6.422   5.317
   77POPC   H7S10243   1.080   6.509   5.302
   77POPC   C2810244   1.078   6.314   5.211
   77POPC   H8R10245   1.108   6.359   5.114
   77POPC   H8S10246   0.967   6.310   5.213
   77POPC   C2910247   1.135   6.175   5.226
   77POPC   H9110248   1.149   6.140   5.329
   77POPC  C21010249   1.167   6.093   5.124
   77POPC  H10110250   1.205   5.993   5.147
   77POPC  C21110251   1.151   6.126   4.979
   77POPC  H11R10252   1.055   6.180   4.963
   77POPC  H11S10253   1.144   6.031   4.921
   77POPC  C21210254   1.258   6.215   4.914
   77POPC  H12R10255   1.351   6.155   4.906
   77POPC  H12S10256   1.280   6.304   4.977
   77POPC  C21310257   1.206   6.263   4.778
   77POPC  H13R10258   1.135   6.348   4.794
   77POPC  H13S10259   1.146   6.181   4.733
   77POPC  C21410260   1.314   6.304   4.678
   77POPC  H14R10261   1.365   6.397   4.711
   77POPC  H14S10262   1.264   6.325   4.581
   77POPC  C21510263   1.419   6.194   4.655
   77POPC  H15R10264   1.484   6.187   4.745
   77POPC  H15S10265   1.484   6.224   4.570
   77POPC  C21610266   1.355   6.057   4.626
   77POPC  H16R10267   1.265   6.078   4.566
   77POPC  H16S10268   1.319   6.009   4.720
   77POPC  C21710269   1.446   5.959   4.550
   77POPC  H17R10270   1.516   5.910   4.621
   77POPC  H17S10271   1.505   6.015   4.474
   77POPC  C21810272   1.375   5.842   4.484
   77POPC  H18R10273   1.288   5.869   4.425
   77POPC  H18S10274   1.348   5.766   4.559
   77POPC  H18T10275   1.441   5.799   4.408
   77POPC   C3310276   0.991   5.997   5.582
   77POPC   H3X10277   1.075   5.977   5.511
   77POPC   H3Y10278   0.991   6.107   5.600
   77POPC   C3410279   0.859   5.961   5.511
   77POPC   H4X10280   0.774   5.979   5.581
   77POPC   H4Y10281   0.858   5.853   5.485
   77POPC   C3510282   0.836   6.043   5.383
   77POPC   H5X10283   0.915   6.019   5.308
   77POPC   H5Y10284   0.845   6.151   5.408
   77POPC   C3610285   0.698   6.021   5.318
   77POPC   H6X10286   0.622   6.028   5.398
   77POPC   H6Y10287   0.692   5.918   5.275
   77POPC   C3710288   0.661   6.125   5.210
   77POPC   H7X10289   0.720   6.217   5.222
   77POPC   H7Y10290   0.554   6.152   5.226
   77POPC   C3810291   0.671   6.075   5.064
   77POPC   H8X10292   0.616   6.147   4.999
   77POPC   H8Y10293   0.622   5.976   5.054
   77POPC   C3910294   0.816   6.067   5.013
   77POPC   H9X10295   0.874   6.001   5.082
   77POPC   H9Y10296   0.858   6.169   5.020
   77POPC  C31010297   0.832   6.013   4.869
   77POPC  H10X10298   0.792   5.910   4.864
   77POPC  H10Y10299   0.940   6.008   4.845
   77POPC  C31110300   0.763   6.100   4.763
   77POPC  H11X10301   0.785   6.207   4.782
   77POPC  H11Y10302   0.653   6.086   4.772
   77POPC  C31210303   0.804   6.068   4.618
   77POPC  H12X10304   0.825   5.959   4.607
   77POPC  H12Y10305   0.899   6.123   4.599
   77POPC  C31310306   0.697   6.111   4.516
   77POPC  H13X10307   0.640   6.196   4.559
   77POPC  H13Y10308   0.627   6.025   4.506
   77POPC  C31410309   0.744   6.152   4.375
   77POPC  H14X10310   0.656   6.140   4.308
   77POPC  H14Y10311   0.822   6.084   4.335
   77POPC  C31510312   0.789   6.299   4.359
   77POPC  H15X10313   0.704   6.365   4.389
   77POPC  H15Y10314   0.808   6.317   4.251
   77POPC  C31610315   0.913   6.342   4.437
   77POPC  H16X10316   0.896   6.337   4.547
   77POPC  H16Y10317   0.945   6.445   4.410
   77POPC  H16Z10318   0.997   6.274   4.415
   78POPC     N10319   8.629   4.974   6.296
   78POPC   C1210320   8.646   4.858   6.199
   78POPC  H12A10321   8.550   4.828   6.159
   78POPC  H12B10322   8.683   4.772   6.256
   78POPC   C1310323   8.518   4.948   6.392
   78POPC  H13A10324   8.546   4.866   6.456
   78POPC  H13B10325   8.501   5.036   6.453
   78POPC  H13C10326   8.425   4.922   6.342
   78POPC   C1410327   8.757   4.987   6.376
   78POPC  H14A10328   8.841   5.005   6.308
   78POPC  H14B10329   8.753   5.068   6.447
   78POPC  H14C10330   8.781   4.894   6.426
   78POPC   C1510331   8.605   5.103   6.223
   78POPC  H15A10332   8.525   5.092   6.150
   78POPC  H15B10333   8.695   5.128   6.166
   78POPC  H15C10334   8.583   5.186   6.289
   78POPC   C1110335   8.746   4.876   6.082
   78POPC  H11A10336   8.714   4.960   6.015
   78POPC  H11B10337   8.749   4.783   6.021
   78POPC     P10338   9.000   4.939   6.051
   78POPC   O1310339   9.031   4.829   5.958
   78POPC   O1410340   9.105   4.977   6.148
   78POPC   O1210341   8.874   4.900   6.138
   78POPC   O1110342   8.952   5.058   5.957
   78POPC    C110343   8.907   5.188   5.988
   78POPC    HA10344   8.991   5.245   6.034
   78POPC    HB10345   8.828   5.182   6.065
   78POPC    C210346   8.852   5.273   5.866
   78POPC    HS10347   8.860   5.380   5.898
   78POPC   O2110348   8.715   5.238   5.837
   78POPC   C2110349   8.631   5.296   5.921
   78POPC   O2210350   8.664   5.363   6.017
   78POPC   C2210351   8.485   5.265   5.889
   78POPC   H2R10352   8.452   5.325   5.802
   78POPC   H2S10353   8.428   5.301   5.978
   78POPC    C310354   8.922   5.275   5.726
   78POPC    HX10355   9.004   5.348   5.732
   78POPC    HY10356   8.848   5.318   5.654
   78POPC   O3110357   8.971   5.149   5.676
   78POPC   C3110358   9.023   5.155   5.553
   78POPC   O3210359   9.012   5.250   5.477
   78POPC   C3210360   9.110   5.029   5.534
   78POPC   H2X10361   9.043   4.943   5.518
   78POPC   H2Y10362   9.163   5.014   5.631
   78POPC   C2310363   8.454   5.115   5.869
   78POPC   H3R10364   8.354   5.096   5.916
   78POPC   H3S10365   8.526   5.050   5.923
   78POPC   C2410366   8.441   5.072   5.722
   78POPC   H4R10367   8.381   5.146   5.665
   78POPC   H4S10368   8.385   4.976   5.721
   78POPC   C2510369   8.575   5.048   5.651
   78POPC   H5R10370   8.642   4.989   5.718
   78POPC   H5S10371   8.625   5.144   5.629
   78POPC   C2610372   8.557   4.969   5.521
   78POPC   H6R10373   8.500   5.030   5.447
   78POPC   H6S10374   8.497   4.878   5.542
   78POPC   C2710375   8.690   4.925   5.458
   78POPC   H7R10376   8.751   4.874   5.535
   78POPC   H7S10377   8.746   5.016   5.425
   78POPC   C2810378   8.666   4.831   5.339
   78POPC   H8R10379   8.602   4.885   5.265
   78POPC   H8S10380   8.609   4.743   5.374
   78POPC   C2910381   8.798   4.788   5.279
   78POPC   H9110382   8.862   4.728   5.346
   78POPC  C21010383   8.842   4.820   5.157
   78POPC  H10110384   8.942   4.785   5.125
   78POPC  C21110385   8.768   4.904   5.057
   78POPC  H11R10386   8.659   4.878   5.053
   78POPC  H11S10387   8.807   4.881   4.956
   78POPC  C21210388   8.780   5.056   5.085
   78POPC  H12R10389   8.885   5.081   5.112
   78POPC  H12S10390   8.717   5.081   5.173
   78POPC  C21310391   8.740   5.143   4.965
   78POPC  H13R10392   8.726   5.248   4.998
   78POPC  H13S10393   8.643   5.106   4.923
   78POPC  C21410394   8.848   5.138   4.857
   78POPC  H14R10395   8.875   5.031   4.841
   78POPC  H14S10396   8.940   5.190   4.895
   78POPC  C21510397   8.810   5.193   4.720
   78POPC  H15R10398   8.701   5.178   4.701
   78POPC  H15S10399   8.865   5.135   4.643
   78POPC  C21610400   8.849   5.340   4.705
   78POPC  H16R10401   8.956   5.353   4.734
   78POPC  H16S10402   8.789   5.395   4.780
   78POPC  C21710403   8.831   5.394   4.563
   78POPC  H17R10404   8.840   5.505   4.564
   78POPC  H17S10405   8.727   5.371   4.530
   78POPC  C21810406   8.933   5.338   4.463
   78POPC  H18R10407   8.909   5.371   4.360
   78POPC  H18S10408   8.935   5.227   4.464
   78POPC  H18T10409   9.034   5.373   4.489
   78POPC   C3310410   9.217   5.037   5.423
   78POPC   H3X10411   9.291   4.956   5.441
   78POPC   H3Y10412   9.273   5.133   5.425
   78POPC   C3410413   9.157   5.016   5.284
   78POPC   H4X10414   9.089   5.102   5.261
   78POPC   H4Y10415   9.094   4.924   5.285
   78POPC   C3510416   9.261   5.005   5.172
   78POPC   H5X10417   9.333   4.923   5.195
   78POPC   H5Y10418   9.319   5.100   5.166
   78POPC   C3610419   9.193   4.977   5.037
   78POPC   H6X10420   9.086   5.006   5.044
   78POPC   H6Y10421   9.196   4.867   5.020
   78POPC   C3710422   9.254   5.053   4.918
   78POPC   H7X10423   9.361   5.027   4.907
   78POPC   H7Y10424   9.247   5.163   4.939
   78POPC   C3810425   9.181   5.023   4.785
   78POPC   H8X10426   9.221   5.086   4.704
   78POPC   H8Y10427   9.075   5.051   4.796
   78POPC   C3910428   9.189   4.875   4.746
   78POPC   H9X10429   9.139   4.813   4.824
   78POPC   H9Y10430   9.296   4.850   4.745
   78POPC  C31010431   9.131   4.835   4.610
   78POPC  H10X10432   9.148   4.726   4.598
   78POPC  H10Y10433   9.185   4.887   4.528
   78POPC  C31110434   8.981   4.864   4.600
   78POPC  H11X10435   8.971   4.970   4.569
   78POPC  H11Y10436   8.935   4.854   4.701
   78POPC  C31210437   8.905   4.770   4.505
   78POPC  H12X10438   8.910   4.666   4.545
   78POPC  H12Y10439   8.954   4.769   4.405
   78POPC  C31310440   8.758   4.812   4.489
   78POPC  H13X10441   8.715   4.827   4.591
   78POPC  H13Y10442   8.700   4.731   4.440
   78POPC  C31410443   8.746   4.940   4.407
   78POPC  H14X10444   8.752   4.915   4.298
   78POPC  H14Y10445   8.832   5.006   4.428
   78POPC  C31510446   8.621   5.024   4.434
   78POPC  H15X10447   8.610   5.043   4.543
   78POPC  H15Y10448   8.530   4.971   4.399
   78POPC  C31610449   8.636   5.157   4.362
   78POPC  H16X10450   8.659   5.138   4.255
   78POPC  H16Y10451   8.722   5.213   4.401
   78POPC  H16Z10452   8.546   5.221   4.370
   79POPC     N10453   2.408   1.378   6.018
   79POPC   C1210454   2.255   1.374   6.037
   79POPC  H12A10455   2.216   1.286   5.986
   79POPC  H12B10456   2.211   1.458   5.986
   79POPC   C1310457   2.474   1.459   6.126
   79POPC  H13A10458   2.464   1.410   6.222
   79POPC  H13B10459   2.577   1.480   6.104
   79POPC  H13C10460   2.423   1.554   6.136
   79POPC   C1410461   2.461   1.238   6.019
   79POPC  H14A10462   2.418   1.182   5.936
   79POPC  H14B10463   2.568   1.235   6.013
   79POPC  H14C10464   2.428   1.185   6.108
   79POPC   C1510465   2.442   1.435   5.885
   79POPC  H15A10466   2.413   1.540   5.877
   79POPC  H15B10467   2.394   1.382   5.803
   79POPC  H15C10468   2.548   1.434   5.868
   79POPC   C1110469   2.196   1.365   6.179
   79POPC  H11A10470   2.107   1.432   6.182
   79POPC  H11B10471   2.263   1.402   6.260
   79POPC     P10472   2.227   1.126   6.288
   79POPC   O1310473   2.134   1.023   6.339
   79POPC   O1410474   2.312   1.195   6.388
   79POPC   O1210475   2.150   1.233   6.202
   79POPC   O1110476   2.323   1.057   6.181
   79POPC    C110477   2.422   0.969   6.235
   79POPC    HA10478   2.379   0.906   6.317
   79POPC    HB10479   2.508   1.028   6.274
   79POPC    C210480   2.478   0.866   6.133
   79POPC    HS10481   2.544   0.800   6.193
   79POPC   O2110482   2.550   0.931   6.025
   79POPC   C2110483   2.682   0.924   6.028
   79POPC   O2210484   2.749   0.882   6.121
   79POPC   C2210485   2.735   0.962   5.892
   79POPC   H2R10486   2.837   1.002   5.903
   79POPC   H2S10487   2.669   1.041   5.851
   79POPC    C310488   2.369   0.774   6.069
   79POPC    HX10489   2.316   0.723   6.153
   79POPC    HY10490   2.420   0.694   6.010
   79POPC   O3110491   2.283   0.845   5.980
   79POPC   C3110492   2.152   0.828   5.995
   79POPC   O3210493   2.098   0.760   6.081
   79POPC   C3210494   2.079   0.894   5.878
   79POPC   H2X10495   1.993   0.950   5.919
   79POPC   H2Y10496   2.039   0.811   5.816
   79POPC   C2310497   2.735   0.840   5.798
   79POPC   H3R10498   2.643   0.778   5.811
   79POPC   H3S10499   2.823   0.775   5.816
   79POPC   C2410500   2.735   0.886   5.653
   79POPC   H4R10501   2.825   0.948   5.630
   79POPC   H4S10502   2.645   0.951   5.637
   79POPC   C2510503   2.726   0.771   5.553
   79POPC   H5R10504   2.650   0.697   5.587
   79POPC   H5S10505   2.824   0.718   5.547
   79POPC   C2610506   2.684   0.826   5.418
   79POPC   H6R10507   2.754   0.908   5.389
   79POPC   H6S10508   2.582   0.871   5.428
   79POPC   C2710509   2.679   0.722   5.307
   79POPC   H7R10510   2.623   0.633   5.344
   79POPC   H7S10511   2.782   0.688   5.281
   79POPC   C2810512   2.607   0.775   5.182
   79POPC   H8R10513   2.503   0.801   5.212
   79POPC   H8S10514   2.599   0.690   5.111
   79POPC   C2910515   2.671   0.895   5.117
   79POPC   H9110516   2.705   0.975   5.185
   79POPC  C21010517   2.682   0.912   4.985
   79POPC  H10110518   2.724   1.005   4.943
   79POPC  C21110519   2.632   0.811   4.885
   79POPC  H11R10520   2.656   0.708   4.917
   79POPC  H11S10521   2.685   0.822   4.788
   79POPC  C21210522   2.479   0.822   4.867
   79POPC  H12R10523   2.429   0.805   4.965
   79POPC  H12S10524   2.439   0.743   4.802
   79POPC  C21310525   2.429   0.956   4.811
   79POPC  H13R10526   2.431   1.027   4.896
   79POPC  H13S10527   2.324   0.941   4.780
   79POPC  C21410528   2.510   1.020   4.696
   79POPC  H14R10529   2.606   0.968   4.679
   79POPC  H14S10530   2.534   1.125   4.724
   79POPC  C21510531   2.439   1.023   4.561
   79POPC  H15R10532   2.347   1.084   4.563
   79POPC  H15S10533   2.406   0.920   4.536
   79POPC  C21610534   2.528   1.083   4.453
   79POPC  H16R10535   2.590   1.004   4.405
   79POPC  H16S10536   2.598   1.156   4.500
   79POPC  C21710537   2.447   1.159   4.348
   79POPC  H17R10538   2.413   1.256   4.391
   79POPC  H17S10539   2.354   1.101   4.325
   79POPC  C21810540   2.525   1.183   4.220
   79POPC  H18R10541   2.538   1.089   4.163
   79POPC  H18S10542   2.625   1.225   4.242
   79POPC  H18T10543   2.469   1.254   4.157
   79POPC   C3310544   2.170   0.986   5.793
   79POPC   H3X10545   2.260   0.930   5.758
   79POPC   H3Y10546   2.204   1.071   5.855
   79POPC   C3410547   2.097   1.037   5.668
   79POPC   H4X10548   1.999   1.080   5.700
   79POPC   H4Y10549   2.075   0.950   5.602
   79POPC   C3510550   2.176   1.142   5.589
   79POPC   H5X10551   2.178   1.238   5.644
   79POPC   H5Y10552   2.115   1.157   5.497
   79POPC   C3610553   2.320   1.102   5.554
   79POPC   H6X10554   2.325   0.992   5.538
   79POPC   H6Y10555   2.386   1.122   5.641
   79POPC   C3710556   2.381   1.170   5.429
   79POPC   H7X10557   2.477   1.118   5.405
   79POPC   H7Y10558   2.405   1.275   5.454
   79POPC   C3810559   2.291   1.168   5.304
   79POPC   H8X10560   2.195   1.219   5.328
   79POPC   H8Y10561   2.268   1.064   5.273
   79POPC   C3910562   2.347   1.247   5.184
   79POPC   H9X10563   2.428   1.188   5.133
   79POPC   H9Y10564   2.394   1.340   5.222
   79POPC  C31010565   2.237   1.287   5.083
   79POPC  H10X10566   2.260   1.388   5.045
   79POPC  H10Y10567   2.138   1.292   5.134
   79POPC  C31110568   2.230   1.193   4.962
   79POPC  H11X10569   2.218   1.089   4.999
   79POPC  H11Y10570   2.328   1.201   4.910
   79POPC  C31210571   2.121   1.222   4.858
   79POPC  H12X10572   2.137   1.321   4.812
   79POPC  H12Y10573   2.021   1.223   4.905
   79POPC  C31310574   2.130   1.113   4.749
   79POPC  H13X10575   2.122   1.013   4.798
   79POPC  H13Y10576   2.233   1.122   4.711
   79POPC  C31410577   2.033   1.115   4.630
   79POPC  H14X10578   1.927   1.109   4.663
   79POPC  H14Y10579   2.054   1.024   4.568
   79POPC  C31510580   2.048   1.235   4.539
   79POPC  H15X10581   2.155   1.240   4.508
   79POPC  H15Y10582   2.024   1.328   4.595
   79POPC  C31610583   1.960   1.226   4.413
   79POPC  H16X10584   1.996   1.146   4.345
   79POPC  H16Y10585   1.961   1.322   4.357
   79POPC  H16Z10586   1.854   1.205   4.442
   80POPC     N10587   3.393   8.657   6.291
   80POPC   C1210588   3.388   8.654   6.138
   80POPC  H12A10589   3.385   8.756   6.101
   80POPC  H12B10590   3.297   8.608   6.104
   80POPC   C1310591   3.488   8.767   6.328
   80POPC  H13A10592   3.496   8.781   6.434
   80POPC  H13B10593   3.585   8.748   6.282
   80POPC  H13C10594   3.455   8.861   6.284
   80POPC   C1410595   3.264   8.692   6.356
   80POPC  H14A10596   3.279   8.706   6.464
   80POPC  H14B10597   3.229   8.790   6.323
   80POPC  H14C10598   3.187   8.619   6.341
   80POPC   C1510599   3.455   8.529   6.341
   80POPC  H15A10600   3.502   8.543   6.437
   80POPC  H15B10601   3.536   8.508   6.270
   80POPC  H15C10602   3.387   8.446   6.340
   80POPC   C1110603   3.509   8.584   6.069
   80POPC  H11A10604   3.498   8.596   5.958
   80POPC  H11B10605   3.502   8.474   6.087
   80POPC     P10606   3.741   8.697   6.024
   80POPC   O1310607   3.768   8.600   5.916
   80POPC   O1410608   3.856   8.746   6.105
   80POPC   O1210609   3.634   8.632   6.122
   80POPC   O1110610   3.656   8.821   5.973
   80POPC    C110611   3.649   8.845   5.833
   80POPC    HA10612   3.612   8.755   5.777
   80POPC    HB10613   3.749   8.872   5.793
   80POPC    C210614   3.551   8.961   5.807
   80POPC    HS10615   3.501   8.988   5.903
   80POPC   O2110616   3.455   8.921   5.708
   80POPC   C2110617   3.343   8.870   5.750
   80POPC   O2210618   3.314   8.838   5.864
   80POPC   C2210619   3.242   8.883   5.637
   80POPC   H2R10620   3.221   8.992   5.626
   80POPC   H2S10621   3.149   8.832   5.666
   80POPC    C310622   3.626   9.087   5.756
   80POPC    HX10623   3.712   9.103   5.825
   80POPC    HY10624   3.564   9.178   5.765
   80POPC   O3110625   3.677   9.067   5.623
   80POPC   C3110626   3.594   9.073   5.520
   80POPC   O3210627   3.483   9.121   5.518
   80POPC   C3210628   3.660   9.007   5.401
   80POPC   H2X10629   3.645   8.898   5.411
   80POPC   H2Y10630   3.769   9.028   5.404
   80POPC   C2310631   3.293   8.832   5.501
   80POPC   H3R10632   3.280   8.722   5.498
   80POPC   H3S10633   3.402   8.853   5.488
   80POPC   C2410634   3.222   8.903   5.385
   80POPC   H4R10635   3.253   9.011   5.386
   80POPC   H4S10636   3.112   8.899   5.400
   80POPC   C2510637   3.258   8.845   5.249
   80POPC   H5R10638   3.367   8.862   5.235
   80POPC   H5S10639   3.206   8.902   5.168
   80POPC   C2610640   3.231   8.694   5.232
   80POPC   H6R10641   3.150   8.680   5.158
   80POPC   H6S10642   3.197   8.647   5.327
   80POPC   C2710643   3.359   8.626   5.182
   80POPC   H7R10644   3.436   8.625   5.263
   80POPC   H7S10645   3.398   8.693   5.101
   80POPC   C2810646   3.341   8.485   5.125
   80POPC   H8R10647   3.246   8.482   5.067
   80POPC   H8S10648   3.332   8.410   5.207
   80POPC   C2910649   3.461   8.459   5.037
   80POPC   H9110650   3.550   8.420   5.089
   80POPC  C21010651   3.463   8.473   4.904
   80POPC  H10110652   3.556   8.451   4.849
   80POPC  C21110653   3.346   8.518   4.819
   80POPC  H11R10654   3.314   8.621   4.849
   80POPC  H11S10655   3.259   8.451   4.834
   80POPC  C21210656   3.382   8.519   4.668
   80POPC  H12R10657   3.474   8.460   4.648
   80POPC  H12S10658   3.405   8.624   4.642
   80POPC  C21310659   3.273   8.470   4.571
   80POPC  H13R10660   3.184   8.536   4.578
   80POPC  H13S10661   3.238   8.368   4.598
   80POPC  C21410662   3.324   8.464   4.427
   80POPC  H14R10663   3.320   8.360   4.388
   80POPC  H14S10664   3.432   8.493   4.425
   80POPC  C21510665   3.245   8.557   4.334
   80POPC  H15R10666   3.218   8.649   4.391
   80POPC  H15S10667   3.151   8.506   4.304
   80POPC  C21610668   3.324   8.601   4.210
   80POPC  H16R10669   3.368   8.513   4.161
   80POPC  H16S10670   3.408   8.668   4.241
   80POPC  C21710671   3.235   8.676   4.111
   80POPC  H17R10672   3.184   8.760   4.165
   80POPC  H17S10673   3.155   8.607   4.075
   80POPC  C21810674   3.312   8.732   3.993
   80POPC  H18R10675   3.381   8.813   4.026
   80POPC  H18S10676   3.242   8.774   3.917
   80POPC  H18T10677   3.373   8.653   3.944
   80POPC   C3310678   3.601   9.056   5.268
   80POPC   H3X10679   3.605   9.167   5.260
   80POPC   H3Y10680   3.493   9.030   5.264
   80POPC   C3410681   3.676   8.992   5.151
   80POPC   H4X10682   3.668   8.881   5.159
   80POPC   H4Y10683   3.784   9.019   5.159
   80POPC   C3510684   3.624   9.038   5.016
   80POPC   H5X10685   3.691   9.004   4.934
   80POPC   H5Y10686   3.620   9.149   5.016
   80POPC   C3610687   3.482   8.989   4.988
   80POPC   H6X10688   3.413   9.017   5.070
   80POPC   H6Y10689   3.485   8.878   4.981
   80POPC   C3710690   3.426   9.047   4.860
   80POPC   H7X10691   3.504   9.039   4.781
   80POPC   H7Y10692   3.402   9.155   4.870
   80POPC   C3810693   3.302   8.967   4.822
   80POPC   H8X10694   3.218   9.004   4.885
   80POPC   H8Y10695   3.315   8.858   4.843
   80POPC   C3910696   3.266   8.983   4.676
   80POPC   H9X10697   3.289   9.088   4.646
   80POPC   H9Y10698   3.156   8.964   4.670
   80POPC  C31010699   3.331   8.887   4.576
   80POPC  H10X10700   3.313   8.925   4.473
   80POPC  H10Y10701   3.278   8.789   4.583
   80POPC  C31110702   3.481   8.863   4.595
   80POPC  H11X10703   3.498   8.810   4.691
   80POPC  H11Y10704   3.537   8.958   4.598
   80POPC  C31210705   3.535   8.780   4.479
   80POPC  H12X10706   3.560   8.847   4.394
   80POPC  H12Y10707   3.455   8.711   4.445
   80POPC  C31310708   3.658   8.696   4.512
   80POPC  H13X10709   3.629   8.613   4.579
   80POPC  H13Y10710   3.732   8.757   4.567
   80POPC  C31410711   3.716   8.641   4.381
   80POPC  H14X10712   3.798   8.705   4.344
   80POPC  H14Y10713   3.635   8.644   4.304
   80POPC  C31510714   3.762   8.496   4.392
   80POPC  H15X10715   3.746   8.449   4.293
   80POPC  H15Y10716   3.699   8.440   4.465
   80POPC  C31610717   3.909   8.485   4.430
   80POPC  H16X10718   3.942   8.379   4.437
   80POPC  H16Y10719   3.927   8.535   4.527
   80POPC  H16Z10720   3.972   8.536   4.352
   81POPC     N10721   8.503   2.856   6.259
   81POPC   C1210722   8.518   2.715   6.316
   81POPC  H12A10723   8.500   2.718   6.423
   81POPC  H12B10724   8.620   2.683   6.303
   81POPC   C1310725   8.529   2.855   6.111
   81POPC  H13A10726   8.633   2.841   6.088
   81POPC  H13B10727   8.477   2.770   6.065
   81POPC  H13C10728   8.492   2.945   6.063
   81POPC   C1410729   8.363   2.908   6.278
   81POPC  H14A10730   8.338   2.921   6.382
   81POPC  H14B10731   8.349   3.006   6.231
   81POPC  H14C10732   8.292   2.840   6.231
   81POPC   C1510733   8.601   2.946   6.328
   81POPC  H15A10734   8.598   3.047   6.291
   81POPC  H15B10735   8.703   2.911   6.319
   81POPC  H15C10736   8.581   2.949   6.435
   81POPC   C1110737   8.429   2.604   6.256
   81POPC  H11A10738   8.322   2.635   6.262
   81POPC  H11B10739   8.442   2.512   6.318
   81POPC     P10740   8.376   2.511   6.015
   81POPC   O1310741   8.357   2.369   6.052
   81POPC   O1410742   8.434   2.549   5.885
   81POPC   O1210743   8.472   2.576   6.124
   81POPC   O1110744   8.240   2.592   6.039
   81POPC    C110745   8.218   2.719   5.976
   81POPC    HA10746   8.304   2.753   5.913
   81POPC    HB10747   8.204   2.796   6.055
   81POPC    C210748   8.093   2.724   5.885
   81POPC    HS10749   8.008   2.677   5.941
   81POPC   O2110750   8.120   2.653   5.762
   81POPC   C2110751   8.012   2.626   5.690
   81POPC   O2210752   7.897   2.637   5.727
   81POPC   C2210753   8.055   2.564   5.557
   81POPC   H2R10754   7.994   2.473   5.553
   81POPC   H2S10755   8.163   2.540   5.557
   81POPC    C310756   8.055   2.872   5.854
   81POPC    HX10757   8.047   2.926   5.951
   81POPC    HY10758   7.954   2.878   5.808
   81POPC   O3110759   8.158   2.935   5.773
   81POPC   C3110760   8.135   2.922   5.643
   81POPC   O3210761   8.032   2.883   5.590
   81POPC   C3210762   8.257   2.964   5.563
   81POPC   H2X10763   8.346   2.910   5.599
   81POPC   H2Y10764   8.270   3.071   5.584
   81POPC   C2310765   8.008   2.619   5.421
   81POPC   H3R10766   8.069   2.707   5.393
   81POPC   H3S10767   7.901   2.651   5.426
   81POPC   C2410768   8.022   2.502   5.323
   81POPC   H4R10769   7.936   2.432   5.335
   81POPC   H4S10770   8.114   2.444   5.347
   81POPC   C2510771   8.032   2.542   5.178
   81POPC   H5R10772   7.937   2.593   5.148
   81POPC   H5S10773   8.042   2.450   5.115
   81POPC   C2610774   8.152   2.631   5.151
   81POPC   H6R10775   8.245   2.588   5.196
   81POPC   H6S10776   8.137   2.733   5.194
   81POPC   C2710777   8.173   2.643   5.001
   81POPC   H7R10778   8.204   2.542   4.965
   81POPC   H7S10779   8.257   2.712   4.984
   81POPC   C2810780   8.047   2.686   4.926
   81POPC   H8R10781   7.963   2.616   4.943
   81POPC   H8S10782   8.063   2.679   4.818
   81POPC   C2910783   8.009   2.826   4.968
   81POPC   H9110784   7.920   2.831   5.032
   81POPC  C21010785   8.075   2.939   4.938
   81POPC  H10110786   8.033   3.035   4.968
   81POPC  C21110787   8.200   2.958   4.857
   81POPC  H11R10788   8.266   2.868   4.858
   81POPC  H11S10789   8.260   3.042   4.897
   81POPC  C21210790   8.161   2.987   4.712
   81POPC  H12R10791   8.252   3.020   4.660
   81POPC  H12S10792   8.091   3.072   4.709
   81POPC  C21310793   8.105   2.860   4.647
   81POPC  H13R10794   8.001   2.840   4.680
   81POPC  H13S10795   8.168   2.779   4.689
   81POPC  C21410796   8.121   2.836   4.497
   81POPC  H14R10797   8.039   2.773   4.456
   81POPC  H14S10798   8.215   2.777   4.487
   81POPC  C21510799   8.145   2.955   4.408
   81POPC  H15R10800   8.228   3.012   4.454
   81POPC  H15S10801   8.063   3.028   4.407
   81POPC  C21610802   8.188   2.898   4.271
   81POPC  H16R10803   8.114   2.825   4.230
   81POPC  H16S10804   8.281   2.839   4.288
   81POPC  C21710805   8.218   3.003   4.167
   81POPC  H17R10806   8.126   3.034   4.114
   81POPC  H17S10807   8.284   2.955   4.091
   81POPC  C21810808   8.285   3.125   4.228
   81POPC  H18R10809   8.338   3.108   4.324
   81POPC  H18S10810   8.209   3.203   4.245
   81POPC  H18T10811   8.362   3.160   4.157
   81POPC   C3310812   8.237   2.944   5.411
   81POPC   H3X10813   8.133   2.967   5.379
   81POPC   H3Y10814   8.256   2.837   5.387
   81POPC   C3410815   8.331   3.034   5.332
   81POPC   H4X10816   8.421   3.054   5.395
   81POPC   H4Y10817   8.283   3.133   5.314
   81POPC   C3510818   8.381   2.975   5.199
   81POPC   H5X10819   8.296   2.964   5.128
   81POPC   H5Y10820   8.424   2.875   5.217
   81POPC   C3610821   8.488   3.069   5.142
   81POPC   H6X10822   8.566   3.085   5.219
   81POPC   H6Y10823   8.438   3.167   5.124
   81POPC   C3710824   8.555   3.030   5.010
   81POPC   H7X10825   8.647   3.092   5.000
   81POPC   H7Y10826   8.484   3.059   4.929
   81POPC   C3810827   8.599   2.887   4.986
   81POPC   H8X10828   8.527   2.815   5.030
   81POPC   H8Y10829   8.700   2.869   5.028
   81POPC   C3910830   8.607   2.865   4.834
   81POPC   H9X10831   8.656   2.953   4.786
   81POPC   H9Y10832   8.501   2.865   4.802
   81POPC  C31010833   8.677   2.736   4.789
   81POPC  H10X10834   8.786   2.748   4.799
   81POPC  H10Y10835   8.656   2.720   4.681
   81POPC  C31110836   8.633   2.613   4.869
   81POPC  H11X10837   8.658   2.630   4.976
   81POPC  H11Y10838   8.690   2.524   4.835
   81POPC  C31210839   8.483   2.587   4.855
   81POPC  H12X10840   8.427   2.682   4.874
   81POPC  H12Y10841   8.448   2.517   4.934
   81POPC  C31310842   8.440   2.532   4.719
   81POPC  H13X10843   8.492   2.435   4.701
   81POPC  H13Y10844   8.470   2.603   4.638
   81POPC  C31410845   8.289   2.513   4.716
   81POPC  H14X10846   8.238   2.608   4.734
   81POPC  H14Y10847   8.264   2.448   4.803
   81POPC  C31510848   8.232   2.443   4.592
   81POPC  H15X10849   8.137   2.393   4.622
   81POPC  H15Y10850   8.308   2.369   4.561
   81POPC  C31610851   8.194   2.524   4.472
   81POPC  H16X10852   8.171   2.456   4.386
   81POPC  H16Y10853   8.279   2.590   4.444
   81POPC  H16Z10854   8.102   2.582   4.494
   82POPC     N10855   5.803   8.557   6.058
   82POPC   C1210856   5.754   8.645   6.172
   82POPC  H12A10857   5.664   8.602   6.212
   82POPC  H12B10858   5.734   8.744   6.131
   82POPC   C1310859   5.691   8.496   5.981
   82POPC  H13A10860   5.624   8.570   5.940
   82POPC  H13B10861   5.731   8.436   5.899
   82POPC  H13C10862   5.634   8.427   6.041
   82POPC   C1410863   5.885   8.643   5.966
   82POPC  H14A10864   5.971   8.685   6.019
   82POPC  H14B10865   5.921   8.585   5.882
   82POPC  H14C10866   5.828   8.728   5.931
   82POPC   C1510867   5.891   8.449   6.114
   82POPC  H15A10868   5.839   8.389   6.188
   82POPC  H15B10869   5.977   8.496   6.162
   82POPC  H15C10870   5.925   8.382   6.036
   82POPC   C1110871   5.851   8.669   6.291
   82POPC  H11A10872   5.869   8.573   6.345
   82POPC  H11B10873   5.800   8.736   6.365
   82POPC     P10874   5.991   8.877   6.213
   82POPC   O1310875   6.058   8.887   6.082
   82POPC   O1410876   6.037   8.954   6.330
   82POPC   O1210877   5.976   8.723   6.249
   82POPC   O1110878   5.837   8.921   6.185
   82POPC    C110879   5.817   9.061   6.153
   82POPC    HA10880   5.912   9.114   6.127
   82POPC    HB10881   5.781   9.112   6.245
   82POPC    C210882   5.717   9.095   6.036
   82POPC    HS10883   5.642   9.166   6.077
   82POPC   O2110884   5.650   8.978   5.983
   82POPC   C2110885   5.557   9.010   5.890
   82POPC   O2210886   5.519   9.123   5.868
   82POPC   C2210887   5.522   8.887   5.807
   82POPC   H2R10888   5.435   8.835   5.853
   82POPC   H2S10889   5.611   8.819   5.804
   82POPC    C310890   5.797   9.172   5.923
   82POPC    HX10891   5.824   9.269   5.966
   82POPC    HY10892   5.734   9.199   5.835
   82POPC   O3110893   5.921   9.108   5.885
   82POPC   C3110894   5.913   9.029   5.778
   82POPC   O3210895   5.811   9.010   5.715
   82POPC   C3210896   6.052   8.975   5.738
   82POPC   H2X10897   6.086   8.906   5.817
   82POPC   H2Y10898   6.123   9.061   5.735
   82POPC   C2310899   5.489   8.933   5.663
   82POPC   H3R10900   5.563   9.011   5.634
   82POPC   H3S10901   5.389   8.981   5.662
   82POPC   C2410902   5.496   8.823   5.557
   82POPC   H4R10903   5.430   8.738   5.585
   82POPC   H4S10904   5.601   8.785   5.551
   82POPC   C2510905   5.456   8.874   5.417
   82POPC   H5R10906   5.348   8.902   5.418
   82POPC   H5S10907   5.471   8.793   5.343
   82POPC   C2610908   5.538   8.996   5.375
   82POPC   H6R10909   5.646   8.973   5.392
   82POPC   H6S10910   5.512   9.083   5.438
   82POPC   C2710911   5.519   9.036   5.228
   82POPC   H7R10912   5.414   9.071   5.217
   82POPC   H7S10913   5.535   8.949   5.160
   82POPC   C2810914   5.611   9.152   5.190
   82POPC   H8R10915   5.595   9.227   5.270
   82POPC   H8S10916   5.574   9.197   5.095
   82POPC   C2910917   5.758   9.120   5.187
   82POPC   H9110918   5.802   9.094   5.285
   82POPC  C21010919   5.838   9.124   5.079
   82POPC  H10110920   5.944   9.098   5.089
   82POPC  C21110921   5.791   9.160   4.940
   82POPC  H11R10922   5.876   9.194   4.877
   82POPC  H11S10923   5.716   9.242   4.941
   82POPC  C21210924   5.728   9.033   4.882
   82POPC  H12R10925   5.644   9.000   4.947
   82POPC  H12S10926   5.803   8.951   4.880
   82POPC  C21310927   5.672   9.050   4.741
   82POPC  H13R10928   5.753   9.074   4.669
   82POPC  H13S10929   5.600   9.136   4.741
   82POPC  C21410930   5.597   8.923   4.697
   82POPC  H14R10931   5.543   8.947   4.602
   82POPC  H14S10932   5.522   8.898   4.775
   82POPC  C21510933   5.683   8.799   4.675
   82POPC  H15R10934   5.737   8.774   4.769
   82POPC  H15S10935   5.758   8.822   4.596
   82POPC  C21610936   5.600   8.676   4.633
   82POPC  H16R10937   5.528   8.651   4.714
   82POPC  H16S10938   5.669   8.589   4.622
   82POPC  C21710939   5.522   8.694   4.502
   82POPC  H17R10940   5.437   8.761   4.522
   82POPC  H17S10941   5.479   8.596   4.471
   82POPC  C21810942   5.603   8.753   4.387
   82POPC  H18R10943   5.543   8.754   4.293
   82POPC  H18S10944   5.696   8.694   4.370
   82POPC  H18T10945   5.633   8.858   4.409
   82POPC   C3310946   6.053   8.905   5.599
   82POPC   H3X10947   6.159   8.884   5.571
   82POPC   H3Y10948   6.010   8.973   5.522
   82POPC   C3410949   5.976   8.771   5.597
   82POPC   H4X10950   5.871   8.789   5.630
   82POPC   H4Y10951   6.023   8.703   5.671
   82POPC   C3510952   5.970   8.699   5.461
   82POPC   H5X10953   5.913   8.604   5.476
   82POPC   H5Y10954   6.072   8.672   5.426
   82POPC   C3610955   5.898   8.778   5.349
   82POPC   H6X10956   5.968   8.850   5.303
   82POPC   H6Y10957   5.815   8.837   5.395
   82POPC   C3710958   5.834   8.689   5.240
   82POPC   H7X10959   5.784   8.753   5.165
   82POPC   H7Y10960   5.755   8.627   5.289
   82POPC   C3810961   5.931   8.593   5.168
   82POPC   H8X10962   5.873   8.529   5.098
   82POPC   H8Y10963   5.979   8.527   5.244
   82POPC   C3910964   6.043   8.663   5.089
   82POPC   H9X10965   6.121   8.588   5.063
   82POPC   H9Y10966   6.091   8.739   5.154
   82POPC  C31010967   5.998   8.731   4.958
   82POPC  H10X10968   5.913   8.799   4.979
   82POPC  H10Y10969   5.964   8.655   4.884
   82POPC  C31110970   6.116   8.812   4.902
   82POPC  H11X10971   6.201   8.743   4.882
   82POPC  H11Y10972   6.145   8.881   4.983
   82POPC  C31210973   6.090   8.896   4.776
   82POPC  H12X10974   6.183   8.954   4.755
   82POPC  H12Y10975   6.009   8.970   4.796
   82POPC  C31310976   6.056   8.813   4.652
   82POPC  H13X10977   5.950   8.783   4.660
   82POPC  H13Y10978   6.116   8.720   4.653
   82POPC  C31410979   6.080   8.885   4.517
   82POPC  H14X10980   6.021   8.833   4.439
   82POPC  H14Y10981   6.188   8.876   4.491
   82POPC  C31510982   6.044   9.035   4.516
   82POPC  H15X10983   6.113   9.089   4.585
   82POPC  H15Y10984   5.940   9.048   4.556
   82POPC  C31610985   6.052   9.099   4.377
   82POPC  H16X10986   5.971   9.060   4.311
   82POPC  H16Y10987   6.150   9.077   4.329
   82POPC  H16Z10988   6.041   9.209   4.384
   83POPC     N10989   6.456   0.616   6.215
   83POPC   C1210990   6.347   0.715   6.252
   83POPC  H12A10991   6.292   0.678   6.337
   83POPC  H12B10992   6.277   0.725   6.169
   83POPC   C1310993   6.563   0.622   6.320
   83POPC  H13A10994   6.643   0.551   6.302
   83POPC  H13B10995   6.599   0.724   6.327
   83POPC  H13C10996   6.522   0.594   6.417
   83POPC   C1410997   6.405   0.476   6.213
   83POPC  H14A10998   6.352   0.451   6.306
   83POPC  H14B10999   6.338   0.460   6.130
   83POPC  H14C11000   6.488   0.407   6.207
   83POPC   C1511001   6.510   0.656   6.081
   83POPC  H15A11002   6.588   0.593   6.044
   83POPC  H15B11003   6.544   0.760   6.087
   83POPC  H15C11004   6.429   0.663   6.008
   83POPC   C1111005   6.393   0.861   6.280
   83POPC  H11A11006   6.464   0.864   6.365
   83POPC  H11B11007   6.304   0.920   6.315
   83POPC     P11008   6.361   1.000   6.064
   83POPC   O1311009   6.434   1.017   5.936
   83POPC   O1411010   6.303   1.116   6.135
   83POPC   O1211011   6.455   0.919   6.164
   83POPC   O1111012   6.246   0.892   6.038
   83POPC    C111013   6.116   0.948   6.015
   83POPC    HA11014   6.117   1.053   5.975
   83POPC    HB11015   6.062   0.952   6.112
   83POPC    C211016   6.031   0.867   5.913
   83POPC    HS11017   5.925   0.899   5.928
   83POPC   O2111018   6.044   0.725   5.930
   83POPC   C2111019   6.017   0.669   6.044
   83POPC   O2211020   5.957   0.716   6.139
   83POPC   C2211021   6.080   0.528   6.044
   83POPC   H2R11022   6.001   0.456   6.018
   83POPC   H2S11023   6.110   0.510   6.150
   83POPC    C311024   6.066   0.903   5.765
   83POPC    HX11025   6.080   1.013   5.759
   83POPC    HY11026   5.981   0.876   5.699
   83POPC   O3111027   6.183   0.831   5.723
   83POPC   C3111028   6.264   0.888   5.636
   83POPC   O3211029   6.239   0.985   5.566
   83POPC   C3211030   6.393   0.805   5.640
   83POPC   H2X11031   6.368   0.705   5.598
   83POPC   H2Y11032   6.420   0.793   5.747
   83POPC   C2311033   6.203   0.504   5.952
   83POPC   H3R11034   6.259   0.417   5.991
   83POPC   H3S11035   6.269   0.594   5.952
   83POPC   C2411036   6.169   0.465   5.808
   83POPC   H4R11037   6.121   0.554   5.760
   83POPC   H4S11038   6.098   0.381   5.809
   83POPC   C2511039   6.294   0.426   5.726
   83POPC   H5R11040   6.350   0.345   5.779
   83POPC   H5S11041   6.360   0.515   5.720
   83POPC   C2611042   6.266   0.377   5.582
   83POPC   H6R11043   6.230   0.272   5.585
   83POPC   H6S11044   6.361   0.379   5.525
   83POPC   C2711045   6.161   0.461   5.509
   83POPC   H7R11046   6.180   0.569   5.530
   83POPC   H7S11047   6.063   0.433   5.551
   83POPC   C2811048   6.151   0.439   5.357
   83POPC   H8R11049   6.124   0.333   5.337
   83POPC   H8S11050   6.251   0.457   5.311
   83POPC   C2911051   6.045   0.532   5.305
   83POPC   H9111052   5.942   0.492   5.306
   83POPC  C21011053   6.065   0.659   5.266
   83POPC  H10111054   5.980   0.720   5.233
   83POPC  C21111055   6.199   0.731   5.267
   83POPC  H11R11056   6.279   0.667   5.310
   83POPC  H11S11057   6.194   0.821   5.332
   83POPC  C21211058   6.241   0.774   5.125
   83POPC  H12R11059   6.215   0.694   5.052
   83POPC  H12S11060   6.351   0.788   5.122
   83POPC  C21311061   6.174   0.907   5.087
   83POPC  H13R11062   6.215   0.985   5.155
   83POPC  H13S11063   6.066   0.894   5.108
   83POPC  C21411064   6.185   0.957   4.942
   83POPC  H14R11065   6.287   0.993   4.921
   83POPC  H14S11066   6.121   1.048   4.934
   83POPC  C21511067   6.139   0.855   4.836
   83POPC  H15R11068   6.073   0.782   4.885
   83POPC  H15S11069   6.227   0.798   4.799
   83POPC  C21611070   6.064   0.920   4.718
   83POPC  H16R11071   6.106   1.021   4.702
   83POPC  H16S11072   5.957   0.934   4.744
   83POPC  C21711073   6.074   0.841   4.586
   83POPC  H17R11074   6.031   0.739   4.598
   83POPC  H17S11075   6.181   0.825   4.562
   83POPC  C21811076   6.006   0.910   4.467
   83POPC  H18R11077   6.049   0.873   4.371
   83POPC  H18S11078   6.017   1.020   4.472
   83POPC  H18T11079   5.898   0.891   4.463
   83POPC   C3311080   6.515   0.863   5.565
   83POPC   H3X11081   6.534   0.967   5.601
   83POPC   H3Y11082   6.491   0.870   5.457
   83POPC   C3411083   6.643   0.780   5.586
   83POPC   H4X11084   6.676   0.795   5.692
   83POPC   H4Y11085   6.723   0.821   5.521
   83POPC   C3511086   6.631   0.628   5.561
   83POPC   H5X11087   6.571   0.583   5.643
   83POPC   H5Y11088   6.733   0.583   5.565
   83POPC   C3611089   6.567   0.589   5.427
   83POPC   H6X11090   6.458   0.611   5.429
   83POPC   H6Y11091   6.577   0.480   5.412
   83POPC   C3711092   6.628   0.661   5.305
   83POPC   H7X11093   6.738   0.647   5.306
   83POPC   H7Y11094   6.608   0.770   5.313
   83POPC   C3811095   6.569   0.610   5.173
   83POPC   H8X11096   6.459   0.606   5.181
   83POPC   H8Y11097   6.604   0.507   5.152
   83POPC   C3911098   6.608   0.703   5.057
   83POPC   H9X11099   6.718   0.713   5.051
   83POPC   H9Y11100   6.566   0.803   5.080
   83POPC  C31011101   6.555   0.654   4.922
   83POPC  H10X11102   6.445   0.641   4.929
   83POPC  H10Y11103   6.599   0.554   4.898
   83POPC  C31111104   6.587   0.751   4.806
   83POPC  H11X11105   6.535   0.710   4.717
   83POPC  H11Y11106   6.696   0.753   4.785
   83POPC  C31211107   6.537   0.894   4.833
   83POPC  H12X11108   6.599   0.944   4.910
   83POPC  H12Y11109   6.435   0.880   4.875
   83POPC  C31311110   6.527   0.984   4.709
   83POPC  H13X11111   6.627   0.990   4.659
   83POPC  H13Y11112   6.499   1.087   4.741
   83POPC  C31411113   6.421   0.936   4.609
   83POPC  H14X11114   6.324   0.940   4.663
   83POPC  H14Y11115   6.439   0.830   4.581
   83POPC  C31511116   6.411   1.018   4.480
   83POPC  H15X11117   6.438   0.951   4.397
   83POPC  H15Y11118   6.482   1.102   4.482
   83POPC  C31611119   6.270   1.062   4.442
   83POPC  H16X11120   6.266   1.150   4.375
   83POPC  H16Y11121   6.210   1.086   4.531
   83POPC  H16Z11122   6.225   0.979   4.384
   84POPC     N11123   4.727   0.595   6.211
   84POPC   C1211124   4.715   0.449   6.169
   84POPC  H12A11125   4.746   0.440   6.065
   84POPC  H12B11126   4.612   0.418   6.173
   84POPC   C1311127   4.867   0.650   6.193
   84POPC  H13A11128   4.941   0.590   6.247
   84POPC  H13B11129   4.903   0.637   6.090
   84POPC  H13C11130   4.876   0.754   6.218
   84POPC   C1411131   4.634   0.670   6.122
   84POPC  H14A11132   4.621   0.773   6.150
   84POPC  H14B11133   4.674   0.671   6.020
   84POPC  H14C11134   4.536   0.623   6.112
   84POPC   C1511135   4.698   0.603   6.356
   84POPC  H15A11136   4.604   0.555   6.382
   84POPC  H15B11137   4.702   0.704   6.393
   84POPC  H15C11138   4.776   0.546   6.407
   84POPC   C1111139   4.802   0.346   6.244
   84POPC  H11A11140   4.773   0.242   6.218
   84POPC  H11B11141   4.790   0.355   6.355
   84POPC     P11142   4.988   0.358   6.060
   84POPC   O1311143   5.091   0.254   6.067
   84POPC   O1411144   5.023   0.495   6.016
   84POPC   O1211145   4.936   0.371   6.210
   84POPC   O1111146   4.860   0.309   5.978
   84POPC    C111147   4.865   0.316   5.835
   84POPC    HA11148   4.888   0.419   5.798
   84POPC    HB11149   4.765   0.290   5.795
   84POPC    C211150   4.967   0.215   5.776
   84POPC    HS11151   4.972   0.130   5.848
   84POPC   O2111152   5.095   0.278   5.764
   84POPC   C2111153   5.195   0.190   5.762
   84POPC   O2211154   5.187   0.071   5.784
   84POPC   C2211155   5.309   0.257   5.692
   84POPC   H2R11156   5.402   0.237   5.751
   84POPC   H2S11157   5.288   0.365   5.692
   84POPC    C311158   4.924   0.161   5.638
   84POPC    HX11159   4.851   0.083   5.660
   84POPC    HY11160   5.010   0.110   5.591
   84POPC   O3111161   4.860   0.261   5.556
   84POPC   C3111162   4.870   0.242   5.425
   84POPC   O3211163   4.929   0.151   5.371
   84POPC   C3211164   4.795   0.351   5.352
   84POPC   H2X11165   4.852   0.445   5.367
   84POPC   H2Y11166   4.696   0.364   5.398
   84POPC   C2311167   5.327   0.203   5.548
   84POPC   H3R11168   5.336   0.092   5.550
   84POPC   H3S11169   5.425   0.243   5.518
   84POPC   C2411170   5.225   0.242   5.440
   84POPC   H4R11171   5.145   0.166   5.440
   84POPC   H4S11172   5.275   0.232   5.341
   84POPC   C2511173   5.162   0.383   5.448
   84POPC   H5R11174   5.232   0.450   5.501
   84POPC   H5S11175   5.071   0.383   5.511
   84POPC   C2611176   5.134   0.444   5.309
   84POPC   H6R11177   5.062   0.380   5.255
   84POPC   H6S11178   5.229   0.442   5.251
   84POPC   C2711179   5.082   0.590   5.312
   84POPC   H7R11180   5.168   0.658   5.333
   84POPC   H7S11181   5.011   0.601   5.396
   84POPC   C2811182   5.009   0.637   5.183
   84POPC   H8R11183   5.003   0.749   5.186
   84POPC   H8S11184   4.904   0.600   5.188
   84POPC   C2911185   5.071   0.592   5.053
   84POPC   H9111186   5.164   0.535   5.065
   84POPC  C21011187   5.024   0.609   4.929
   84POPC  H10111188   5.082   0.568   4.845
   84POPC  C21111189   4.896   0.677   4.887
   84POPC  H11R11190   4.852   0.740   4.967
   84POPC  H11S11191   4.820   0.599   4.863
   84POPC  C21211192   4.917   0.762   4.760
   84POPC  H12R11193   4.982   0.707   4.689
   84POPC  H12S11194   4.968   0.857   4.786
   84POPC  C21311195   4.784   0.791   4.689
   84POPC  H13R11196   4.723   0.858   4.754
   84POPC  H13S11197   4.726   0.697   4.676
   84POPC  C21411198   4.800   0.856   4.551
   84POPC  H14R11199   4.844   0.957   4.566
   84POPC  H14S11200   4.699   0.871   4.507
   84POPC  C21511201   4.889   0.781   4.450
   84POPC  H15R11202   4.918   0.679   4.482
   84POPC  H15S11203   4.987   0.830   4.446
   84POPC  C21611204   4.831   0.778   4.308
   84POPC  H16R11205   4.749   0.853   4.298
   84POPC  H16S11206   4.788   0.678   4.290
   84POPC  C21711207   4.936   0.801   4.201
   84POPC  H17R11208   5.034   0.779   4.249
   84POPC  H17S11209   4.933   0.909   4.171
   84POPC  C21811210   4.930   0.712   4.076
   84POPC  H18R11211   4.945   0.606   4.106
   84POPC  H18S11212   5.010   0.741   4.005
   84POPC  H18T11213   4.832   0.722   4.025
   84POPC   C3311214   4.784   0.322   5.200
   84POPC   H3X11215   4.878   0.282   5.157
   84POPC   H3Y11216   4.765   0.420   5.150
   84POPC   C3411217   4.666   0.230   5.167
   84POPC   H4X11218   4.581   0.257   5.234
   84POPC   H4Y11219   4.692   0.124   5.188
   84POPC   C3511220   4.617   0.246   5.022
   84POPC   H5X11221   4.605   0.355   5.000
   84POPC   H5Y11222   4.517   0.198   5.013
   84POPC   C3611223   4.710   0.184   4.917
   84POPC   H6X11224   4.724   0.076   4.941
   84POPC   H6Y11225   4.810   0.233   4.921
   84POPC   C3711226   4.652   0.196   4.776
   84POPC   H7X11227   4.639   0.304   4.750
   84POPC   H7Y11228   4.551   0.149   4.775
   84POPC   C3811229   4.739   0.129   4.669
   84POPC   H8X11230   4.771   0.029   4.706
   84POPC   H8Y11231   4.830   0.191   4.656
   84POPC   C3911232   4.663   0.111   4.537
   84POPC   H9X11233   4.584   0.190   4.531
   84POPC   H9Y11234   4.609   0.014   4.541
   84POPC  C31011235   4.743   0.118   4.406
   84POPC  H10X11236   4.704   0.204   4.348
   84POPC  H10Y11237   4.718   0.028   4.344
   84POPC  C31111238   4.896   0.137   4.409
   84POPC  H11X11239   4.946   0.059   4.471
   84POPC  H11Y11240   4.920   0.236   4.453
   84POPC  C31211241   4.949   0.131   4.266
   84POPC  H12X11242   4.863   0.155   4.200
   84POPC  H12Y11243   4.979   0.028   4.239
   84POPC  C31311244   5.060   0.231   4.228
   84POPC  H13X11245   5.022   0.335   4.238
   84POPC  H13Y11246   5.082   0.215   4.120
   84POPC  C31411247   5.191   0.215   4.305
   84POPC  H14X11248   5.199   0.112   4.348
   84POPC  H14Y11249   5.192   0.287   4.390
   84POPC  C31511250   5.312   0.239   4.214
   84POPC  H15X11251   5.399   0.274   4.274
   84POPC  H15Y11252   5.287   0.321   4.143
   84POPC  C31611253   5.352   0.113   4.136
   84POPC  H16X11254   5.418   0.139   4.051
   84POPC  H16Y11255   5.262   0.062   4.095
   84POPC  H16Z11256   5.406   0.040   4.200
   85POPC     N11257   5.124   8.959   6.366
   85POPC   C1211258   5.020   8.869   6.303
   85POPC  H12A11259   4.921   8.903   6.333
   85POPC  H12B11260   5.034   8.768   6.339
   85POPC   C1311261   5.081   9.102   6.347
   85POPC  H13A11262   5.148   9.171   6.395
   85POPC  H13B11263   5.080   9.123   6.239
   85POPC  H13C11264   4.980   9.113   6.383
   85POPC   C1411265   5.136   8.935   6.512
   85POPC  H14A11266   5.213   9.000   6.552
   85POPC  H14B11267   5.043   8.957   6.563
   85POPC  H14C11268   5.167   8.834   6.535
   85POPC   C1511269   5.256   8.946   6.296
   85POPC  H15A11270   5.332   9.008   6.343
   85POPC  H15B11271   5.246   8.980   6.192
   85POPC  H15C11272   5.290   8.844   6.294
   85POPC   C1111273   5.022   8.862   6.150
   85POPC  H11A11274   4.928   8.817   6.113
   85POPC  H11B11275   5.106   8.795   6.119
   85POPC     P11276   5.087   9.009   5.950
   85POPC   O1311277   5.083   8.876   5.887
   85POPC   O1411278   5.220   9.073   5.958
   85POPC   O1211279   5.037   8.993   6.098
   85POPC   O1111280   4.975   9.111   5.896
   85POPC    C111281   4.903   9.206   5.980
   85POPC    HA11282   4.944   9.308   5.964
   85POPC    HB11283   4.917   9.184   6.088
   85POPC    C211284   4.744   9.220   5.963
   85POPC    HS11285   4.707   9.264   6.058
   85POPC   O2111286   4.676   9.099   5.940
   85POPC   C2111287   4.692   9.006   6.027
   85POPC   O2211288   4.704   9.021   6.148
   85POPC   C2211289   4.698   8.876   5.948
   85POPC   H2R11290   4.594   8.837   5.944
   85POPC   H2S11291   4.760   8.804   6.004
   85POPC    C311292   4.692   9.310   5.849
   85POPC    HX11293   4.730   9.413   5.866
   85POPC    HY11294   4.580   9.311   5.860
   85POPC   O3111295   4.733   9.265   5.719
   85POPC   C3111296   4.648   9.278   5.620
   85POPC   O3211297   4.530   9.308   5.629
   85POPC   C3211298   4.721   9.260   5.487
   85POPC   H2X11299   4.796   9.340   5.478
   85POPC   H2Y11300   4.649   9.269   5.403
   85POPC   C2311301   4.752   8.901   5.804
   85POPC   H3R11302   4.808   8.997   5.796
   85POPC   H3S11303   4.662   8.921   5.742
   85POPC   C2411304   4.854   8.799   5.746
   85POPC   H4R11305   4.894   8.733   5.826
   85POPC   H4S11306   4.941   8.859   5.709
   85POPC   C2511307   4.812   8.721   5.623
   85POPC   H5R11308   4.742   8.637   5.644
   85POPC   H5S11309   4.903   8.675   5.576
   85POPC   C2611310   4.754   8.819   5.524
   85POPC   H6R11311   4.839   8.886   5.503
   85POPC   H6S11312   4.667   8.877   5.559
   85POPC   C2711313   4.710   8.754   5.398
   85POPC   H7R11314   4.600   8.738   5.407
   85POPC   H7S11315   4.762   8.656   5.391
   85POPC   C2811316   4.737   8.844   5.279
   85POPC   H8R11317   4.844   8.876   5.278
   85POPC   H8S11318   4.672   8.933   5.283
   85POPC   C2911319   4.707   8.754   5.166
   85POPC   H9111320   4.781   8.674   5.160
   85POPC  C21011321   4.610   8.764   5.075
   85POPC  H10111322   4.597   8.686   4.999
   85POPC  C21111323   4.512   8.876   5.074
   85POPC  H11R11324   4.465   8.877   5.174
   85POPC  H11S11325   4.433   8.855   4.999
   85POPC  C21211326   4.573   9.016   5.050
   85POPC  H12R11327   4.585   9.071   5.146
   85POPC  H12S11328   4.504   9.076   4.987
   85POPC  C21311329   4.708   9.009   4.980
   85POPC  H13R11330   4.711   8.918   4.916
   85POPC  H13S11331   4.790   8.996   5.054
   85POPC  C21411332   4.737   9.124   4.885
   85POPC  H14R11333   4.754   9.216   4.945
   85POPC  H14S11334   4.651   9.141   4.817
   85POPC  C21511335   4.858   9.085   4.803
   85POPC  H15R11336   4.923   9.030   4.874
   85POPC  H15S11337   4.915   9.173   4.767
   85POPC  C21611338   4.835   8.979   4.694
   85POPC  H16R11339   4.759   8.906   4.730
   85POPC  H16S11340   4.927   8.919   4.680
   85POPC  C21711341   4.786   9.033   4.559
   85POPC  H17R11342   4.681   9.063   4.574
   85POPC  H17S11343   4.789   8.950   4.485
   85POPC  C21811344   4.850   9.158   4.501
   85POPC  H18R11345   4.786   9.196   4.419
   85POPC  H18S11346   4.948   9.138   4.458
   85POPC  H18T11347   4.861   9.237   4.578
   85POPC   C3311348   4.794   9.125   5.484
   85POPC   H3X11349   4.726   9.057   5.431
   85POPC   H3Y11350   4.808   9.085   5.588
   85POPC   C3411351   4.935   9.122   5.422
   85POPC   H4X11352   4.973   9.017   5.427
   85POPC   H4Y11353   5.004   9.183   5.485
   85POPC   C3511354   4.946   9.167   5.276
   85POPC   H5X11355   4.934   9.277   5.273
   85POPC   H5Y11356   4.863   9.124   5.217
   85POPC   C3611357   5.082   9.128   5.215
   85POPC   H6X11358   5.154   9.103   5.296
   85POPC   H6Y11359   5.121   9.217   5.161
   85POPC   C3711360   5.073   9.009   5.117
   85POPC   H7X11361   4.997   9.039   5.044
   85POPC   H7Y11362   5.036   8.919   5.170
   85POPC   C3811363   5.202   8.973   5.040
   85POPC   H8X11364   5.186   8.882   4.980
   85POPC   H8Y11365   5.279   8.947   5.117
   85POPC   C3911366   5.259   9.084   4.949
   85POPC   H9X11367   5.370   9.074   4.944
   85POPC   H9Y11368   5.238   9.184   4.993
   85POPC  C31011369   5.206   9.082   4.804
   85POPC  H10X11370   5.214   9.184   4.760
   85POPC  H10Y11371   5.101   9.053   4.802
   85POPC  C31111372   5.282   8.984   4.714
   85POPC  H11X11373   5.299   8.889   4.770
   85POPC  H11Y11374   5.379   9.034   4.694
   85POPC  C31211375   5.217   8.950   4.579
   85POPC  H12X11376   5.120   8.897   4.595
   85POPC  H12Y11377   5.282   8.880   4.524
   85POPC  C31311378   5.198   9.069   4.486
   85POPC  H13X11379   5.296   9.121   4.472
   85POPC  H13Y11380   5.130   9.143   4.535
   85POPC  C31411381   5.144   9.028   4.348
   85POPC  H14X11382   5.043   8.983   4.359
   85POPC  H14Y11383   5.208   8.949   4.305
   85POPC  C31511384   5.139   9.151   4.257
   85POPC  H15X11385   5.242   9.179   4.228
   85POPC  H15Y11386   5.100   9.235   4.318
   85POPC  C31611387   5.052   9.136   4.131
   85POPC  H16X11388   4.945   9.133   4.159
   85POPC  H16Y11389   5.078   9.044   4.075
   85POPC  H16Z11390   5.068   9.224   4.064
   86POPC     N11391   8.941   4.281   6.004
   86POPC   C1211392   9.031   4.266   6.126
   86POPC  H12A11393   8.982   4.312   6.211
   86POPC  H12B11394   9.123   4.323   6.112
   86POPC   C1311395   8.822   4.194   6.024
   86POPC  H13A11396   8.857   4.091   6.021
   86POPC  H13B11397   8.781   4.207   6.124
   86POPC  H13C11398   8.747   4.211   5.948
   86POPC   C1411399   8.894   4.423   5.991
   86POPC  H14A11400   8.973   4.491   5.962
   86POPC  H14B11401   8.815   4.429   5.916
   86POPC  H14C11402   8.852   4.460   6.084
   86POPC   C1511403   9.014   4.237   5.881
   86POPC  H15A11404   9.044   4.133   5.891
   86POPC  H15B11405   9.106   4.296   5.867
   86POPC  H15C11406   8.953   4.248   5.793
   86POPC   C1111407   9.067   4.124   6.175
   86POPC  H11A11408   9.154   4.132   6.245
   86POPC  H11B11409   9.100   4.064   6.087
   86POPC     P11410   8.963   3.914   6.290
   86POPC   O1311411   8.826   3.861   6.314
   86POPC   O1411412   9.059   3.894   6.400
   86POPC   O1211413   8.955   4.066   6.244
   86POPC   O1111414   9.017   3.843   6.161
   86POPC    C111415   8.933   3.829   6.047
   86POPC    HA11416   8.883   3.924   6.018
   86POPC    HB11417   8.855   3.754   6.068
   86POPC    C211418   9.024   3.781   5.934
   86POPC    HS11419   9.095   3.710   5.983
   86POPC   O2111420   9.090   3.901   5.883
   86POPC   C2111421   9.201   3.862   5.825
   86POPC   O2211422   9.230   3.745   5.807
   86POPC   C2211423   9.288   3.982   5.792
   86POPC   H2R11424   9.392   3.953   5.818
   86POPC   H2S11425   9.261   4.068   5.856
   86POPC    C311426   8.948   3.705   5.822
   86POPC    HX11427   8.900   3.615   5.866
   86POPC    HY11428   9.018   3.662   5.746
   86POPC   O3111429   8.847   3.791   5.766
   86POPC   C3111430   8.893   3.861   5.663
   86POPC   O3211431   8.994   3.838   5.600
   86POPC   C3211432   8.806   3.984   5.641
   86POPC   H2X11433   8.873   4.072   5.632
   86POPC   H2Y11434   8.739   4.001   5.728
   86POPC   C2311435   9.281   4.017   5.642
   86POPC   H3R11436   9.263   3.924   5.584
   86POPC   H3S11437   9.380   4.055   5.609
   86POPC   C2411438   9.176   4.124   5.609
   86POPC   H4R11439   9.203   4.219   5.659
   86POPC   H4S11440   9.079   4.090   5.653
   86POPC   C2511441   9.155   4.152   5.459
   86POPC   H5R11442   9.252   4.175   5.411
   86POPC   H5S11443   9.090   4.243   5.449
   86POPC   C2611444   9.083   4.035   5.391
   86POPC   H6R11445   8.978   4.035   5.426
   86POPC   H6S11446   9.130   3.940   5.426
   86POPC   C2711447   9.084   4.032   5.238
   86POPC   H7R11448   9.182   3.997   5.202
   86POPC   H7S11449   9.067   4.133   5.197
   86POPC   C2811450   8.983   3.933   5.177
   86POPC   H8R11451   9.017   3.918   5.072
   86POPC   H8S11452   8.885   3.985   5.172
   86POPC   C2911453   8.968   3.801   5.250
   86POPC   H9111454   8.964   3.807   5.360
   86POPC  C21011455   8.962   3.679   5.194
   86POPC  H10111456   8.948   3.591   5.258
   86POPC  C21111457   8.970   3.653   5.046
   86POPC  H11R11458   8.965   3.543   5.027
   86POPC  H11S11459   9.070   3.685   5.010
   86POPC  C21211460   8.860   3.722   4.964
   86POPC  H12R11461   8.849   3.830   4.987
   86POPC  H12S11462   8.762   3.677   4.988
   86POPC  C21311463   8.892   3.712   4.815
   86POPC  H13R11464   8.800   3.731   4.755
   86POPC  H13S11465   8.926   3.609   4.794
   86POPC  C21411466   9.001   3.810   4.770
   86POPC  H14R11467   9.083   3.815   4.845
   86POPC  H14S11468   8.955   3.910   4.767
   86POPC  C21511469   9.060   3.772   4.635
   86POPC  H15R11470   8.984   3.713   4.579
   86POPC  H15S11471   9.148   3.709   4.659
   86POPC  C21611472   9.109   3.883   4.543
   86POPC  H16R11473   9.185   3.945   4.596
   86POPC  H16S11474   9.022   3.946   4.517
   86POPC  C21711475   9.162   3.834   4.408
   86POPC  H17R11476   9.236   3.753   4.422
   86POPC  H17S11477   9.216   3.920   4.361
   86POPC  C21811478   9.048   3.791   4.315
   86POPC  H18R11479   9.006   3.694   4.347
   86POPC  H18S11480   9.080   3.780   4.210
   86POPC  H18T11481   8.966   3.866   4.317
   86POPC   C3311482   8.729   3.967   5.510
   86POPC   H3X11483   8.637   3.909   5.529
   86POPC   H3Y11484   8.790   3.905   5.441
   86POPC   C3411485   8.699   4.096   5.432
   86POPC   H4X11486   8.794   4.152   5.416
   86POPC   H4Y11487   8.629   4.161   5.487
   86POPC   C3511488   8.642   4.053   5.297
   86POPC   H5X11489   8.539   4.015   5.310
   86POPC   H5Y11490   8.703   3.967   5.261
   86POPC   C3611491   8.643   4.152   5.182
   86POPC   H6X11492   8.746   4.191   5.164
   86POPC   H6Y11493   8.576   4.238   5.201
   86POPC   C3711494   8.597   4.071   5.061
   86POPC   H7X11495   8.509   4.008   5.089
   86POPC   H7Y11496   8.680   4.002   5.035
   86POPC   C3811497   8.558   4.153   4.939
   86POPC   H8X11498   8.621   4.243   4.932
   86POPC   H8Y11499   8.455   4.191   4.954
   86POPC   C3911500   8.571   4.067   4.813
   86POPC   H9X11501   8.477   4.054   4.757
   86POPC   H9Y11502   8.602   3.963   4.841
   86POPC  C31011503   8.677   4.124   4.719
   86POPC  H10X11504   8.643   4.222   4.678
   86POPC  H10Y11505   8.687   4.053   4.633
   86POPC  C31111506   8.811   4.140   4.790
   86POPC  H11X11507   8.824   4.051   4.856
   86POPC  H11Y11508   8.815   4.229   4.855
   86POPC  C31211509   8.926   4.141   4.691
   86POPC  H12X11510   8.907   4.051   4.629
   86POPC  H12Y11511   9.023   4.129   4.743
   86POPC  C31311512   8.933   4.257   4.592
   86POPC  H13X11513   8.974   4.347   4.642
   86POPC  H13Y11514   8.831   4.282   4.554
   86POPC  C31411515   9.020   4.214   4.474
   86POPC  H14X11516   8.958   4.165   4.396
   86POPC  H14Y11517   9.091   4.136   4.510
   86POPC  C31511518   9.111   4.322   4.418
   86POPC  H15X11519   9.058   4.420   4.413
   86POPC  H15Y11520   9.143   4.294   4.315
   86POPC  C31611521   9.235   4.332   4.504
   86POPC  H16X11522   9.306   4.402   4.457
   86POPC  H16Y11523   9.286   4.234   4.514
   86POPC  H16Z11524   9.207   4.367   4.606
   87POPC     N11525   6.863   8.560   6.316
   87POPC   C1211526   6.926   8.428   6.275
   87POPC  H12A11527   6.877   8.349   6.331
   87POPC  H12B11528   7.029   8.430   6.305
   87POPC   C1311529   6.865   8.566   6.466
   87POPC  H13A11530   6.962   8.543   6.508
   87POPC  H13B11531   6.838   8.666   6.498
   87POPC  H13C11532   6.790   8.500   6.508
   87POPC   C1411533   6.936   8.677   6.257
   87POPC  H14A11534   6.889   8.771   6.288
   87POPC  H14B11535   7.040   8.679   6.286
   87POPC  H14C11536   6.929   8.674   6.149
   87POPC   C1511537   6.721   8.573   6.271
   87POPC  H15A11538   6.715   8.571   6.161
   87POPC  H15B11539   6.674   8.663   6.307
   87POPC  H15C11540   6.661   8.488   6.302
   87POPC   C1111541   6.915   8.388   6.128
   87POPC  H11A11542   6.989   8.309   6.104
   87POPC  H11B11543   6.937   8.478   6.066
   87POPC     P11544   6.706   8.355   5.974
   87POPC   O1311545   6.645   8.490   5.981
   87POPC   O1411546   6.614   8.239   5.965
   87POPC   O1211547   6.784   8.336   6.109
   87POPC   O1111548   6.824   8.352   5.870
   87POPC    C111549   6.881   8.474   5.818
   87POPC    HA11550   6.984   8.487   5.855
   87POPC    HB11551   6.826   8.566   5.847
   87POPC    C211552   6.888   8.466   5.664
   87POPC    HS11553   6.934   8.559   5.624
   87POPC   O2111554   6.759   8.444   5.606
   87POPC   C2111555   6.675   8.544   5.619
   87POPC   O2211556   6.699   8.653   5.668
   87POPC   C2211557   6.544   8.506   5.549
   87POPC   H2R11558   6.460   8.546   5.609
   87POPC   H2S11559   6.537   8.395   5.546
   87POPC    C311560   6.978   8.347   5.623
   87POPC    HX11561   6.931   8.253   5.660
   87POPC    HY11562   7.074   8.359   5.677
   87POPC   O3111563   7.004   8.347   5.482
   87POPC   C3111564   6.919   8.277   5.407
   87POPC   O3211565   6.829   8.207   5.449
   87POPC   C3211566   6.953   8.296   5.258
   87POPC   H2X11567   7.062   8.312   5.248
   87POPC   H2Y11568   6.900   8.388   5.225
   87POPC   C2311569   6.540   8.562   5.405
   87POPC   H3R11570   6.535   8.673   5.408
   87POPC   H3S11571   6.449   8.525   5.354
   87POPC   C2411572   6.663   8.519   5.323
   87POPC   H4R11573   6.668   8.408   5.326
   87POPC   H4S11574   6.757   8.557   5.370
   87POPC   C2511575   6.658   8.565   5.178
   87POPC   H5R11576   6.557   8.539   5.139
   87POPC   H5S11577   6.734   8.509   5.120
   87POPC   C2611578   6.682   8.715   5.153
   87POPC   H6R11579   6.608   8.768   5.216
   87POPC   H6S11580   6.658   8.738   5.047
   87POPC   C2711581   6.823   8.767   5.187
   87POPC   H7R11582   6.858   8.719   5.281
   87POPC   H7S11583   6.817   8.876   5.208
   87POPC   C2811584   6.931   8.747   5.078
   87POPC   H8R11585   6.935   8.638   5.053
   87POPC   H8S11586   7.030   8.771   5.122
   87POPC   C2911587   6.911   8.834   4.957
   87POPC   H9111588   6.937   8.940   4.968
   87POPC  C21011589   6.860   8.791   4.840
   87POPC  H10111590   6.852   8.861   4.755
   87POPC  C21111591   6.816   8.650   4.814
   87POPC  H11R11592   6.719   8.654   4.761
   87POPC  H11S11593   6.797   8.592   4.907
   87POPC  C21211594   6.913   8.570   4.726
   87POPC  H12R11595   6.930   8.632   4.635
   87POPC  H12S11596   6.858   8.477   4.699
   87POPC  C21311597   7.049   8.521   4.779
   87POPC  H13R11598   7.034   8.465   4.873
   87POPC  H13S11599   7.111   8.611   4.802
   87POPC  C21411600   7.125   8.431   4.678
   87POPC  H14R11601   7.228   8.420   4.718
   87POPC  H14S11602   7.136   8.486   4.582
   87POPC  C21511603   7.064   8.290   4.651
   87POPC  H15R11604   6.954   8.296   4.654
   87POPC  H15S11605   7.092   8.225   4.737
   87POPC  C21611606   7.103   8.223   4.515
   87POPC  H16R11607   7.208   8.248   4.489
   87POPC  H16S11608   7.040   8.268   4.436
   87POPC  C21711609   7.084   8.070   4.497
   87POPC  H17R11610   7.049   8.024   4.592
   87POPC  H17S11611   7.184   8.027   4.474
   87POPC  C21811612   6.990   8.031   4.381
   87POPC  H18R11613   7.003   7.923   4.356
   87POPC  H18S11614   7.014   8.089   4.290
   87POPC  H18T11615   6.884   8.048   4.408
   87POPC   C3311616   6.910   8.175   5.171
   87POPC   H3X11617   6.809   8.138   5.200
   87POPC   H3Y11618   6.981   8.092   5.193
   87POPC   C3411619   6.913   8.201   5.018
   87POPC   H4X11620   6.910   8.102   4.968
   87POPC   H4Y11621   7.010   8.248   4.991
   87POPC   C3511622   6.798   8.283   4.958
   87POPC   H5X11623   6.802   8.275   4.846
   87POPC   H5Y11624   6.816   8.389   4.982
   87POPC   C3611625   6.656   8.243   5.003
   87POPC   H6X11626   6.654   8.245   5.114
   87POPC   H6Y11627   6.633   8.140   4.971
   87POPC   C3711628   6.548   8.343   4.957
   87POPC   H7X11629   6.597   8.443   4.959
   87POPC   H7Y11630   6.464   8.344   5.030
   87POPC   C3811631   6.490   8.325   4.815
   87POPC   H8X11632   6.405   8.253   4.817
   87POPC   H8Y11633   6.569   8.281   4.750
   87POPC   C3911634   6.444   8.460   4.756
   87POPC   H9X11635   6.501   8.543   4.804
   87POPC   H9Y11636   6.337   8.476   4.782
   87POPC  C31011637   6.463   8.472   4.604
   87POPC  H10X11638   6.407   8.561   4.565
   87POPC  H10Y11639   6.419   8.382   4.558
   87POPC  C31111640   6.611   8.484   4.563
   87POPC  H11X11641   6.670   8.436   4.644
   87POPC  H11Y11642   6.643   8.590   4.558
   87POPC  C31211643   6.644   8.408   4.433
   87POPC  H12X11644   6.607   8.464   4.344
   87POPC  H12Y11645   6.590   8.311   4.439
   87POPC  C31311646   6.792   8.368   4.417
   87POPC  H13X11647   6.805   8.303   4.328
   87POPC  H13Y11648   6.817   8.304   4.505
   87POPC  C31411649   6.888   8.486   4.411
   87POPC  H14X11650   6.942   8.488   4.506
   87POPC  H14Y11651   6.832   8.581   4.402
   87POPC  C31511652   7.003   8.483   4.310
   87POPC  H15X11653   6.978   8.418   4.224
   87POPC  H15Y11654   7.096   8.444   4.356
   87POPC  C31611655   7.026   8.626   4.266
   87POPC  H16X11656   6.933   8.661   4.217
   87POPC  H16Y11657   7.111   8.636   4.195
   87POPC  H16Z11658   7.044   8.691   4.354
   88POPC     N11659   0.696   3.901   6.171
   88POPC   C1211660   0.653   3.781   6.086
   88POPC  H12A11661   0.730   3.705   6.085
   88POPC  H12B11662   0.639   3.817   5.984
   88POPC   C1311663   0.656   3.874   6.314
   88POPC  H13A11664   0.674   3.959   6.379
   88POPC  H13B11665   0.548   3.856   6.313
   88POPC  H13C11666   0.703   3.785   6.354
   88POPC   C1411667   0.841   3.935   6.162
   88POPC  H14A11668   0.871   3.958   6.059
   88POPC  H14B11669   0.861   4.027   6.217
   88POPC  H14C11670   0.905   3.856   6.200
   88POPC   C1511671   0.618   4.022   6.127
   88POPC  H15A11672   0.512   3.995   6.117
   88POPC  H15B11673   0.651   4.059   6.031
   88POPC  H15C11674   0.625   4.102   6.199
   88POPC   C1111675   0.519   3.714   6.127
   88POPC  H11A11676   0.530   3.656   6.222
   88POPC  H11B11677   0.489   3.639   6.049
   88POPC     P11678   0.303   3.844   6.048
   88POPC   O1311679   0.360   3.897   5.922
   88POPC   O1411680   0.215   3.930   6.129
   88POPC   O1211681   0.420   3.812   6.148
   88POPC   O1111682   0.238   3.699   6.031
   88POPC    C111683   0.128   3.673   5.944
   88POPC    HA11684   0.087   3.768   5.904
   88POPC    HB11685   0.047   3.619   5.999
   88POPC    C211686   0.173   3.588   5.824
   88POPC    HS11687   0.193   3.486   5.865
   88POPC   O2111688   0.289   3.653   5.776
   88POPC   C2111689   0.386   3.577   5.742
   88POPC   O2211690   0.388   3.454   5.747
   88POPC   C2211691   0.496   3.670   5.696
   88POPC   H2R11692   0.552   3.701   5.787
   88POPC   H2S11693   0.449   3.760   5.651
   88POPC    C311694   0.080   3.575   5.701
   88POPC    HX11695  -0.022   3.544   5.732
   88POPC    HY11696   0.127   3.491   5.643
   88POPC   O3111697   0.077   3.697   5.622
   88POPC   C3111698   0.090   3.678   5.492
   88POPC   O3211699   0.080   3.572   5.434
   88POPC   C3211700   0.133   3.806   5.424
   88POPC   H2X11701   0.244   3.808   5.421
   88POPC   H2Y11702   0.100   3.892   5.485
   88POPC   C2311703   0.589   3.602   5.596
   88POPC   H3R11704   0.633   3.509   5.640
   88POPC   H3S11705   0.671   3.673   5.572
   88POPC   C2411706   0.521   3.567   5.465
   88POPC   H4R11707   0.478   3.659   5.420
   88POPC   H4S11708   0.438   3.493   5.480
   88POPC   C2511709   0.624   3.505   5.372
   88POPC   H5R11710   0.663   3.413   5.421
   88POPC   H5S11711   0.711   3.573   5.363
   88POPC   C2611712   0.568   3.473   5.233
   88POPC   H6R11713   0.491   3.393   5.244
   88POPC   H6S11714   0.651   3.434   5.170
   88POPC   C2711715   0.504   3.591   5.161
   88POPC   H7R11716   0.417   3.628   5.220
   88POPC   H7S11717   0.463   3.555   5.065
   88POPC   C2811718   0.604   3.706   5.140
   88POPC   H8R11719   0.656   3.727   5.236
   88POPC   H8S11720   0.548   3.798   5.123
   88POPC   C2911721   0.707   3.683   5.033
   88POPC   H9111722   0.808   3.709   5.067
   88POPC  C21011723   0.691   3.657   4.902
   88POPC  H10111724   0.782   3.643   4.842
   88POPC  C21111725   0.563   3.644   4.826
   88POPC  H11R11726   0.564   3.724   4.748
   88POPC  H11S11727   0.476   3.662   4.891
   88POPC  C21211728   0.521   3.514   4.755
   88POPC  H12R11729   0.485   3.441   4.831
   88POPC  H12S11730   0.605   3.468   4.699
   88POPC  C21311731   0.407   3.553   4.659
   88POPC  H13R11732   0.448   3.620   4.580
   88POPC  H13S11733   0.332   3.612   4.716
   88POPC  C21411734   0.336   3.434   4.595
   88POPC  H14R11735   0.240   3.466   4.550
   88POPC  H14S11736   0.313   3.359   4.674
   88POPC  C21511737   0.422   3.368   4.486
   88POPC  H15R11738   0.386   3.265   4.470
   88POPC  H15S11739   0.527   3.363   4.523
   88POPC  C21611740   0.420   3.443   4.352
   88POPC  H16R11741   0.473   3.541   4.363
   88POPC  H16S11742   0.314   3.466   4.326
   88POPC  C21711743   0.482   3.361   4.239
   88POPC  H17R11744   0.474   3.418   4.144
   88POPC  H17S11745   0.422   3.268   4.228
   88POPC  C21811746   0.629   3.321   4.261
   88POPC  H18R11747   0.645   3.277   4.361
   88POPC  H18S11748   0.695   3.409   4.251
   88POPC  H18T11749   0.660   3.244   4.186
   88POPC   C3311750   0.078   3.821   5.280
   88POPC   H3X11751  -0.027   3.781   5.273
   88POPC   H3Y11752   0.140   3.762   5.209
   88POPC   C3411753   0.074   3.968   5.241
   88POPC   H4X11754   0.000   4.018   5.308
   88POPC   H4Y11755   0.040   3.980   5.136
   88POPC   C3511756   0.203   4.045   5.263
   88POPC   H5X11757   0.228   4.050   5.372
   88POPC   H5Y11758   0.184   4.149   5.230
   88POPC   C3611759   0.322   3.989   5.187
   88POPC   H6X11760   0.353   3.892   5.232
   88POPC   H6Y11761   0.407   4.059   5.201
   88POPC   C3711762   0.293   3.970   5.038
   88POPC   H7X11763   0.247   4.061   4.994
   88POPC   H7Y11764   0.222   3.886   5.023
   88POPC   C3811765   0.424   3.938   4.966
   88POPC   H8X11766   0.425   3.829   4.960
   88POPC   H8Y11767   0.509   3.970   5.031
   88POPC   C3911768   0.451   4.002   4.830
   88POPC   H9X11769   0.548   3.961   4.793
   88POPC   H9Y11770   0.465   4.112   4.846
   88POPC  C31011771   0.344   3.980   4.724
   88POPC  H10X11772   0.247   4.020   4.759
   88POPC  H10Y11773   0.332   3.871   4.703
   88POPC  C31111774   0.385   4.053   4.596
   88POPC  H11X11775   0.478   4.006   4.556
   88POPC  H11Y11776   0.411   4.159   4.621
   88POPC  C31211777   0.277   4.056   4.487
   88POPC  H12X11778   0.186   4.106   4.526
   88POPC  H12Y11779   0.247   3.951   4.468
   88POPC  C31311780   0.327   4.131   4.363
   88POPC  H13X11781   0.436   4.148   4.375
   88POPC  H13Y11782   0.281   4.232   4.363
   88POPC  C31411783   0.306   4.068   4.223
   88POPC  H14X11784   0.403   4.069   4.169
   88POPC  H14Y11785   0.241   4.137   4.164
   88POPC  C31511786   0.245   3.927   4.213
   88POPC  H15X11787   0.231   3.909   4.104
   88POPC  H15Y11788   0.144   3.931   4.259
   88POPC  C31611789   0.320   3.804   4.267
   88POPC  H16X11790   0.347   3.813   4.374
   88POPC  H16Y11791   0.415   3.789   4.211
   88POPC  H16Z11792   0.259   3.712   4.255
   89POPC     N11793   9.092   6.022   6.145
   89POPC   C1211794   8.962   5.962   6.199
   89POPC  H12A11795   8.984   5.875   6.260
   89POPC  H12B11796   8.900   5.927   6.117
   89POPC   C1311797   9.057   6.141   6.061
   89POPC  H13A11798   8.992   6.208   6.118
   89POPC  H13B11799   9.143   6.195   6.027
   89POPC  H13C11800   8.996   6.112   5.976
   89POPC   C1411801   9.178   6.064   6.261
   89POPC  H14A11802   9.117   6.123   6.328
   89POPC  H14B11803   9.214   5.976   6.314
   89POPC  H14C11804   9.264   6.122   6.231
   89POPC   C1511805   9.174   5.924   6.066
   89POPC  H15A11806   9.189   5.831   6.120
   89POPC  H15B11807   9.274   5.965   6.049
   89POPC  H15C11808   9.131   5.901   5.969
   89POPC   C1111809   8.871   6.057   6.284
   89POPC  H11A11810   8.930   6.096   6.369
   89POPC  H11B11811   8.791   5.995   6.332
   89POPC     P11812   8.675   6.152   6.142
   89POPC   O1311813   8.574   6.237   6.210
   89POPC   O1411814   8.645   6.008   6.127
   89POPC   O1211815   8.818   6.168   6.209
   89POPC   O1111816   8.700   6.213   5.999
   89POPC    C111817   8.631   6.154   5.889
   89POPC    HA11818   8.527   6.194   5.882
   89POPC    HB11819   8.626   6.043   5.896
   89POPC    C211820   8.706   6.181   5.758
   89POPC    HS11821   8.644   6.143   5.673
   89POPC   O2111822   8.835   6.116   5.768
   89POPC   C2111823   8.835   5.998   5.712
   89POPC   O2211824   8.744   5.948   5.649
   89POPC   C2211825   8.969   5.930   5.737
   89POPC   H2R11826   8.949   5.835   5.790
   89POPC   H2S11827   9.032   5.995   5.802
   89POPC    C311828   8.727   6.331   5.727
   89POPC    HX11829   8.762   6.384   5.819
   89POPC    HY11830   8.629   6.373   5.695
   89POPC   O3111831   8.824   6.340   5.623
   89POPC   C3111832   8.848   6.463   5.583
   89POPC   O3211833   8.787   6.562   5.617
   89POPC   C3211834   8.966   6.463   5.487
   89POPC   H2X11835   9.013   6.362   5.486
   89POPC   H2Y11836   9.040   6.537   5.523
   89POPC   C2311837   9.042   5.905   5.604
   89POPC   H3R11838   8.982   5.838   5.538
   89POPC   H3S11839   9.138   5.853   5.627
   89POPC   C2411840   9.073   6.036   5.530
   89POPC   H4R11841   9.119   6.109   5.600
   89POPC   H4S11842   8.979   6.081   5.490
   89POPC   C2511843   9.170   6.012   5.415
   89POPC   H5R11844   9.122   5.946   5.338
   89POPC   H5S11845   9.257   5.957   5.456
   89POPC   C2611846   9.223   6.139   5.349
   89POPC   H6R11847   9.328   6.116   5.321
   89POPC   H6S11848   9.226   6.223   5.421
   89POPC   C2711849   9.144   6.179   5.222
   89POPC   H7R11850   9.041   6.208   5.251
   89POPC   H7S11851   9.136   6.089   5.156
   89POPC   C2811852   9.208   6.293   5.140
   89POPC   H8R11853   9.206   6.387   5.199
   89POPC   H8S11854   9.149   6.310   5.047
   89POPC   C2911855   9.351   6.255   5.110
   89POPC   H9111856   9.419   6.273   5.194
   89POPC  C21011857   9.402   6.199   4.999
   89POPC  H10111858   9.509   6.172   5.000
   89POPC  C21111859   9.330   6.160   4.872
   89POPC  H11R11860   9.242   6.225   4.852
   89POPC  H11S11861   9.294   6.055   4.881
   89POPC  C21211862   9.429   6.171   4.754
   89POPC  H12R11863   9.519   6.108   4.775
   89POPC  H12S11864   9.463   6.276   4.745
   89POPC  C21311865   9.373   6.130   4.617
   89POPC  H13R11866   9.455   6.136   4.542
   89POPC  H13S11867   9.295   6.203   4.587
   89POPC  C21411868   9.311   5.989   4.612
   89POPC  H14R11869   9.229   5.981   4.686
   89POPC  H14S11870   9.390   5.916   4.639
   89POPC  C21511871   9.253   5.953   4.474
   89POPC  H15R11872   9.219   5.848   4.477
   89POPC  H15S11873   9.333   5.962   4.397
   89POPC  C21611874   9.129   6.034   4.434
   89POPC  H16R11875   9.112   6.113   4.509
   89POPC  H16S11876   9.040   5.967   4.436
   89POPC  C21711877   9.140   6.097   4.295
   89POPC  H17R11878   9.124   6.020   4.216
   89POPC  H17S11879   9.243   6.139   4.280
   89POPC  C21811880   9.039   6.210   4.278
   89POPC  H18R11881   9.054   6.264   4.184
   89POPC  H18S11882   9.053   6.283   4.360
   89POPC  H18T11883   8.935   6.171   4.283
   89POPC   C3311884   8.919   6.498   5.345
   89POPC   H3X11885   9.008   6.500   5.278
   89POPC   H3Y11886   8.870   6.598   5.343
   89POPC   C3411887   8.820   6.396   5.291
   89POPC   H4X11888   8.720   6.410   5.336
   89POPC   H4Y11889   8.855   6.294   5.318
   89POPC   C3511890   8.810   6.405   5.139
   89POPC   H5X11891   8.913   6.400   5.097
   89POPC   H5Y11892   8.766   6.502   5.107
   89POPC   C3611893   8.730   6.289   5.084
   89POPC   H6X11894   8.621   6.309   5.094
   89POPC   H6Y11895   8.752   6.197   5.143
   89POPC   C3711896   8.767   6.261   4.939
   89POPC   H7X11897   8.874   6.232   4.934
   89POPC   H7Y11898   8.753   6.352   4.876
   89POPC   C3811899   8.681   6.147   4.886
   89POPC   H8X11900   8.581   6.189   4.860
   89POPC   H8Y11901   8.664   6.070   4.965
   89POPC   C3911902   8.744   6.079   4.765
   89POPC   H9X11903   8.791   5.984   4.797
   89POPC   H9Y11904   8.825   6.141   4.723
   89POPC  C31011905   8.634   6.057   4.662
   89POPC  H10X11906   8.603   6.157   4.622
   89POPC  H10Y11907   8.545   6.015   4.712
   89POPC  C31111908   8.671   5.967   4.545
   89POPC  H11X11909   8.700   5.866   4.578
   89POPC  H11Y11910   8.759   6.003   4.488
   89POPC  C31211911   8.548   5.957   4.456
   89POPC  H12X11912   8.496   6.055   4.451
   89POPC  H12Y11913   8.477   5.886   4.504
   89POPC  C31311914   8.579   5.910   4.315
   89POPC  H13X11915   8.656   5.830   4.323
   89POPC  H13Y11916   8.624   5.992   4.255
   89POPC  C31411917   8.450   5.859   4.250
   89POPC  H14X11918   8.381   5.945   4.235
   89POPC  H14Y11919   8.401   5.790   4.322
   89POPC  C31511920   8.469   5.783   4.119
   89POPC  H15X11921   8.507   5.856   4.043
   89POPC  H15Y11922   8.369   5.749   4.086
   89POPC  C31611923   8.560   5.661   4.126
   89POPC  H16X11924   8.499   5.569   4.140
   89POPC  H16Y11925   8.632   5.666   4.210
   89POPC  H16Z11926   8.619   5.649   4.032
   90POPC     N11927   0.451   4.833   6.098
   90POPC   C1211928   0.447   4.681   6.106
   90POPC  H12A11929   0.542   4.637   6.076
   90POPC  H12B11930   0.374   4.643   6.034
   90POPC   C1311931   0.545   4.891   6.200
   90POPC  H13A11932   0.527   4.997   6.217
   90POPC  H13B11933   0.528   4.841   6.295
   90POPC  H13C11934   0.649   4.878   6.174
   90POPC   C1411935   0.491   4.873   5.958
   90POPC  H14A11936   0.489   4.981   5.950
   90POPC  H14B11937   0.592   4.842   5.933
   90POPC  H14C11938   0.421   4.835   5.884
   90POPC   C1511939   0.314   4.887   6.127
   90POPC  H15A11940   0.312   4.993   6.144
   90POPC  H15B11941   0.272   4.835   6.214
   90POPC  H15C11942   0.244   4.863   6.048
   90POPC   C1111943   0.402   4.619   6.241
   90POPC  H11A11944   0.452   4.670   6.326
   90POPC  H11B11945   0.435   4.512   6.245
   90POPC     P11946   0.167   4.523   6.189
   90POPC   O1311947   0.026   4.563   6.211
   90POPC   O1411948   0.207   4.387   6.232
   90POPC   O1211949   0.261   4.631   6.257
   90POPC   O1111950   0.205   4.546   6.038
   90POPC    C111951   0.143   4.646   5.955
   90POPC    HA11952   0.224   4.705   5.907
   90POPC    HB11953   0.079   4.718   6.011
   90POPC    C211954   0.060   4.583   5.840
   90POPC    HS11955  -0.041   4.560   5.879
   90POPC   O2111956   0.131   4.467   5.795
   90POPC   C2111957   0.074   4.350   5.813
   90POPC   O2211958  -0.043   4.332   5.842
   90POPC   C2211959   0.176   4.243   5.776
   90POPC   H2R11960   0.125   4.146   5.769
   90POPC   H2S11961   0.250   4.236   5.858
   90POPC    C311962   0.048   4.685   5.722
   90POPC    HX11963  -0.005   4.775   5.760
   90POPC    HY11964  -0.017   4.638   5.644
   90POPC   O3111965   0.180   4.722   5.676
   90POPC   C3111966   0.206   4.701   5.548
   90POPC   O3211967   0.124   4.681   5.461
   90POPC   C3211968   0.358   4.709   5.529
   90POPC   H2X11969   0.388   4.636   5.452
   90POPC   H2Y11970   0.405   4.680   5.625
   90POPC   C2311971   0.248   4.274   5.642
   90POPC   H3R11972   0.317   4.190   5.617
   90POPC   H3S11973   0.310   4.365   5.655
   90POPC   C2411974   0.155   4.297   5.521
   90POPC   H4R11975   0.073   4.367   5.548
   90POPC   H4S11976   0.109   4.202   5.488
   90POPC   C2511977   0.232   4.359   5.404
   90POPC   H5R11978   0.305   4.287   5.363
   90POPC   H5S11979   0.290   4.444   5.446
   90POPC   C2611980   0.143   4.416   5.293
   90POPC   H6R11981   0.064   4.478   5.340
   90POPC   H6S11982   0.091   4.337   5.235
   90POPC   C2711983   0.226   4.506   5.201
   90POPC   H7R11984   0.314   4.546   5.256
   90POPC   H7S11985   0.164   4.595   5.175
   90POPC   C2811986   0.274   4.439   5.071
   90POPC   H8R11987   0.327   4.515   5.011
   90POPC   H8S11988   0.183   4.411   5.013
   90POPC   C2911989   0.360   4.317   5.084
   90POPC   H9111990   0.301   4.225   5.086
   90POPC  C21011991   0.494   4.307   5.088
   90POPC  H10111992   0.539   4.207   5.097
   90POPC  C21111993   0.592   4.420   5.080
   90POPC  H11R11994   0.674   4.403   5.153
   90POPC  H11S11995   0.543   4.514   5.113
   90POPC  C21211996   0.653   4.439   4.939
   90POPC  H12R11997   0.716   4.351   4.914
   90POPC  H12S11998   0.719   4.529   4.942
   90POPC  C21311999   0.548   4.459   4.828
   90POPC  H13R12000   0.480   4.540   4.862
   90POPC  H13S12001   0.485   4.368   4.817
   90POPC  C21412002   0.601   4.499   4.689
   90POPC  H14R12003   0.639   4.407   4.638
   90POPC  H14S12004   0.686   4.570   4.701
   90POPC  C21512005   0.491   4.565   4.604
   90POPC  H15R12006   0.475   4.668   4.641
   90POPC  H15S12007   0.397   4.507   4.615
   90POPC  C21612008   0.523   4.578   4.455
   90POPC  H16R12009   0.557   4.480   4.417
   90POPC  H16S12010   0.602   4.656   4.443
   90POPC  C21712011   0.409   4.625   4.366
   90POPC  H17R12012   0.452   4.675   4.277
   90POPC  H17S12013   0.354   4.703   4.421
   90POPC  C21812014   0.318   4.513   4.317
   90POPC  H18R12015   0.376   4.437   4.260
   90POPC  H18S12016   0.240   4.554   4.248
   90POPC  H18T12017   0.269   4.463   4.402
   90POPC   C3312018   0.402   4.851   5.490
   90POPC   H3X12019   0.511   4.865   5.513
   90POPC   H3Y12020   0.345   4.924   5.551
   90POPC   C3412021   0.382   4.883   5.342
   90POPC   H4X12022   0.394   4.992   5.327
   90POPC   H4Y12023   0.279   4.856   5.309
   90POPC   C3512024   0.485   4.812   5.253
   90POPC   H5X12025   0.460   4.704   5.245
   90POPC   H5Y12026   0.587   4.820   5.299
   90POPC   C3612027   0.489   4.875   5.114
   90POPC   H6X12028   0.532   4.977   5.120
   90POPC   H6Y12029   0.383   4.884   5.082
   90POPC   C3712030   0.570   4.793   5.013
   90POPC   H7X12031   0.532   4.689   5.013
   90POPC   H7Y12032   0.676   4.784   5.044
   90POPC   C3812033   0.558   4.847   4.870
   90POPC   H8X12034   0.605   4.774   4.800
   90POPC   H8Y12035   0.615   4.942   4.862
   90POPC   C3912036   0.412   4.873   4.828
   90POPC   H9X12037   0.409   4.898   4.719
   90POPC   H9Y12038   0.375   4.962   4.883
   90POPC  C31012039   0.319   4.755   4.857
   90POPC  H10X12040   0.341   4.708   4.954
   90POPC  H10Y12041   0.337   4.680   4.778
   90POPC  C31112042   0.169   4.784   4.863
   90POPC  H11X12043   0.142   4.837   4.771
   90POPC  H11Y12044   0.148   4.853   4.948
   90POPC  C31212045   0.084   4.656   4.879
   90POPC  H12X12046  -0.024   4.679   4.868
   90POPC  H12Y12047   0.098   4.621   4.983
   90POPC  C31312048   0.119   4.538   4.787
   90POPC  H13X12049   0.074   4.446   4.830
   90POPC  H13Y12050   0.228   4.518   4.783
   90POPC  C31412051   0.062   4.547   4.646
   90POPC  H14X12052  -0.049   4.545   4.653
   90POPC  H14Y12053   0.099   4.455   4.593
   90POPC  C31512054   0.098   4.666   4.557
   90POPC  H15X12055   0.208   4.674   4.553
   90POPC  H15Y12056   0.059   4.760   4.599
   90POPC  C31612057   0.036   4.647   4.418
   90POPC  H16X12058   0.059   4.729   4.349
   90POPC  H16Y12059  -0.075   4.641   4.426
   90POPC  H16Z12060   0.071   4.553   4.372
   91POPC     N12061   1.551   1.695   6.328
   91POPC   C1212062   1.569   1.775   6.201
   91POPC  H12A12063   1.671   1.808   6.194
   91POPC  H12B12064   1.505   1.862   6.206
   91POPC   C1312065   1.623   1.563   6.316
   91POPC  H13A12066   1.576   1.503   6.237
   91POPC  H13B12067   1.728   1.572   6.296
   91POPC  H13C12068   1.609   1.504   6.407
   91POPC   C1412069   1.602   1.771   6.445
   91POPC  H14A12070   1.589   1.712   6.536
   91POPC  H14B12071   1.707   1.793   6.433
   91POPC  H14C12072   1.551   1.866   6.458
   91POPC   C1512073   1.405   1.663   6.349
   91POPC  H15A12074   1.387   1.610   6.441
   91POPC  H15B12075   1.370   1.600   6.266
   91POPC  H15C12076   1.343   1.752   6.345
   91POPC   C1112077   1.533   1.706   6.068
   91POPC  H11A12078   1.601   1.618   6.053
   91POPC  H11B12079   1.550   1.777   5.984
   91POPC     P12080   1.353   1.555   5.969
   91POPC   O1312081   1.206   1.551   5.953
   91POPC   O1412082   1.427   1.433   6.004
   91POPC   O1212083   1.394   1.669   6.070
   91POPC   O1112084   1.420   1.611   5.836
   91POPC    C112085   1.361   1.727   5.779
   91POPC    HA12086   1.439   1.778   5.717
   91POPC    HB12087   1.328   1.801   5.856
   91POPC    C212088   1.244   1.690   5.687
   91POPC    HS12089   1.165   1.636   5.745
   91POPC   O2112090   1.299   1.605   5.585
   91POPC   C2112091   1.214   1.538   5.513
   91POPC   O2212092   1.092   1.540   5.525
   91POPC   C2212093   1.296   1.465   5.408
   91POPC   H2R12094   1.375   1.408   5.460
   91POPC   H2S12095   1.346   1.543   5.346
   91POPC    C312096   1.184   1.819   5.629
   91POPC    HX12097   1.159   1.886   5.714
   91POPC    HY12098   1.090   1.800   5.573
   91POPC   O3112099   1.289   1.882   5.555
   91POPC   C3112100   1.283   1.870   5.426
   91POPC   O3212101   1.192   1.823   5.360
   91POPC   C3212102   1.403   1.946   5.375
   91POPC   H2X12103   1.491   1.900   5.422
   91POPC   H2Y12104   1.397   2.050   5.414
   91POPC   C2312105   1.212   1.371   5.319
   91POPC   H3R12106   1.163   1.292   5.380
   91POPC   H3S12107   1.282   1.320   5.248
   91POPC   C2412108   1.108   1.444   5.235
   91POPC   H4R12109   1.025   1.483   5.298
   91POPC   H4S12110   1.064   1.370   5.165
   91POPC   C2512111   1.167   1.558   5.152
   91POPC   H5R12112   1.257   1.522   5.101
   91POPC   H5S12113   1.198   1.642   5.216
   91POPC   C2612114   1.068   1.609   5.048
   91POPC   H6R12115   1.017   1.700   5.088
   91POPC   H6S12116   0.988   1.532   5.035
   91POPC   C2712117   1.128   1.634   4.909
   91POPC   H7R12118   1.040   1.661   4.848
   91POPC   H7S12119   1.169   1.539   4.869
   91POPC   C2812120   1.232   1.747   4.893
   91POPC   H8R12121   1.251   1.764   4.785
   91POPC   H8S12122   1.329   1.716   4.939
   91POPC   C2912123   1.180   1.869   4.962
   91POPC   H9112124   1.162   1.852   5.070
   91POPC  C21012125   1.157   1.992   4.916
   91POPC  H10112126   1.110   2.060   4.986
   91POPC  C21112127   1.175   2.056   4.781
   91POPC  H11R12128   1.077   2.093   4.743
   91POPC  H11S12129   1.213   1.986   4.704
   91POPC  C21212130   1.269   2.179   4.795
   91POPC  H12R12131   1.228   2.251   4.869
   91POPC  H12S12132   1.275   2.231   4.697
   91POPC  C21312133   1.411   2.141   4.838
   91POPC  H13R12134   1.402   2.100   4.940
   91POPC  H13S12135   1.475   2.232   4.842
   91POPC  C21412136   1.468   2.038   4.742
   91POPC  H14R12137   1.448   2.081   4.641
   91POPC  H14S12138   1.413   1.942   4.749
   91POPC  C21512139   1.617   2.004   4.754
   91POPC  H15R12140   1.634   1.949   4.849
   91POPC  H15S12141   1.676   2.099   4.758
   91POPC  C21612142   1.666   1.918   4.635
   91POPC  H16R12143   1.616   1.819   4.642
   91POPC  H16S12144   1.776   1.903   4.643
   91POPC  C21712145   1.632   1.980   4.498
   91POPC  H17R12146   1.667   2.086   4.497
   91POPC  H17S12147   1.521   1.981   4.485
   91POPC  C21812148   1.689   1.908   4.376
   91POPC  H18R12149   1.655   1.803   4.373
   91POPC  H18S12150   1.800   1.909   4.376
   91POPC  H18T12151   1.653   1.956   4.283
   91POPC   C3312152   1.406   1.950   5.222
   91POPC   H3X12153   1.309   1.986   5.180
   91POPC   H3Y12154   1.422   1.847   5.182
   91POPC   C3412155   1.516   2.044   5.171
   91POPC   H4X12156   1.483   2.149   5.184
   91POPC   H4Y12157   1.532   2.024   5.063
   91POPC   C3512158   1.650   2.023   5.240
   91POPC   H5X12159   1.646   2.063   5.344
   91POPC   H5Y12160   1.724   2.084   5.185
   91POPC   C3612161   1.694   1.875   5.245
   91POPC   H6X12162   1.625   1.817   5.308
   91POPC   H6Y12163   1.792   1.866   5.295
   91POPC   C3712164   1.701   1.806   5.108
   91POPC   H7X12165   1.783   1.851   5.048
   91POPC   H7Y12166   1.606   1.822   5.052
   91POPC   C3812167   1.722   1.655   5.120
   91POPC   H8X12168   1.819   1.633   5.168
   91POPC   H8Y12169   1.726   1.617   5.015
   91POPC   C3912170   1.609   1.584   5.197
   91POPC   H9X12171   1.512   1.629   5.169
   91POPC   H9Y12172   1.622   1.602   5.306
   91POPC  C31012173   1.601   1.432   5.172
   91POPC  H10X12174   1.511   1.393   5.225
   91POPC  H10Y12175   1.690   1.383   5.218
   91POPC  C31112176   1.591   1.391   5.024
   91POPC  H11X12177   1.582   1.281   5.018
   91POPC  H11Y12178   1.684   1.419   4.970
   91POPC  C31212179   1.470   1.453   4.954
   91POPC  H12X12180   1.464   1.562   4.972
   91POPC  H12Y12181   1.381   1.405   5.002
   91POPC  C31312182   1.457   1.428   4.803
   91POPC  H13X12183   1.347   1.425   4.783
   91POPC  H13Y12184   1.499   1.329   4.779
   91POPC  C31412185   1.516   1.535   4.709
   91POPC  H14X12186   1.625   1.543   4.725
   91POPC  H14Y12187   1.470   1.634   4.732
   91POPC  C31512188   1.486   1.500   4.562
   91POPC  H15X12189   1.376   1.495   4.550
   91POPC  H15Y12190   1.528   1.398   4.544
   91POPC  C31612191   1.540   1.592   4.453
   91POPC  H16X12192   1.492   1.692   4.459
   91POPC  H16Y12193   1.518   1.550   4.353
   91POPC  H16Z12194   1.650   1.604   4.462
   92POPC     N12195   0.442   2.869   6.139
   92POPC   C1212196   0.552   2.774   6.188
   92POPC  H12A12197   0.508   2.680   6.220
   92POPC  H12B12198   0.597   2.818   6.277
   92POPC   C1312199   0.332   2.881   6.240
   92POPC  H13A12200   0.301   2.782   6.276
   92POPC  H13B12201   0.365   2.937   6.326
   92POPC  H13C12202   0.244   2.930   6.199
   92POPC   C1412203   0.506   3.003   6.118
   92POPC  H14A12204   0.439   3.077   6.079
   92POPC  H14B12205   0.552   3.037   6.211
   92POPC  H14C12206   0.590   2.990   6.050
   92POPC   C1512207   0.386   2.819   6.010
   92POPC  H15A12208   0.304   2.881   5.976
   92POPC  H15B12209   0.351   2.717   6.022
   92POPC  H15C12210   0.464   2.818   5.933
   92POPC   C1112211   0.671   2.741   6.093
   92POPC  H11A12212   0.631   2.703   5.996
   92POPC  H11B12213   0.729   2.657   6.137
   92POPC     P12214   0.841   2.908   6.191
   92POPC   O1312215   0.917   2.799   6.255
   92POPC   O1412216   0.751   2.987   6.278
   92POPC   O1212217   0.756   2.854   6.067
   92POPC   O1112218   0.947   3.003   6.121
   92POPC    C112219   0.911   3.130   6.067
   92POPC    HA12220   1.006   3.185   6.049
   92POPC    HB12221   0.852   3.190   6.139
   92POPC    C212222   0.839   3.123   5.929
   92POPC    HS12223   0.735   3.086   5.948
   92POPC   O2112224   0.915   3.033   5.845
   92POPC   C2112225   0.845   2.955   5.767
   92POPC   O2212226   0.724   2.958   5.752
   92POPC   C2212227   0.937   2.851   5.700
   92POPC   H2R12228   0.873   2.804   5.623
   92POPC   H2S12229   0.960   2.778   5.780
   92POPC    C312230   0.831   3.264   5.865
   92POPC    HX12231   0.790   3.334   5.940
   92POPC    HY12232   0.759   3.265   5.780
   92POPC   O3112233   0.965   3.305   5.827
   92POPC   C3112234   1.002   3.255   5.709
   92POPC   O3212235   0.924   3.220   5.622
   92POPC   C3212236   1.155   3.238   5.706
   92POPC   H2X12237   1.178   3.147   5.764
   92POPC   H2Y12238   1.199   3.322   5.764
   92POPC   C2312239   1.071   2.894   5.629
   92POPC   H3R12240   1.123   2.967   5.694
   92POPC   H3S12241   1.040   2.943   5.535
   92POPC   C2412242   1.171   2.779   5.598
   92POPC   H4R12243   1.107   2.691   5.612
   92POPC   H4S12244   1.251   2.776   5.675
   92POPC   C2512245   1.233   2.757   5.457
   92POPC   H5R12246   1.332   2.807   5.450
   92POPC   H5S12247   1.165   2.811   5.393
   92POPC   C2612248   1.243   2.607   5.407
   92POPC   H6R12249   1.149   2.553   5.417
   92POPC   H6S12250   1.309   2.560   5.484
   92POPC   C2712251   1.307   2.566   5.267
   92POPC   H7R12252   1.350   2.466   5.288
   92POPC   H7S12253   1.392   2.636   5.253
   92POPC   C2812254   1.240   2.550   5.119
   92POPC   H8R12255   1.320   2.486   5.077
   92POPC   H8S12256   1.257   2.644   5.066
   92POPC   C2912257   1.114   2.492   5.054
   92POPC   H9112258   1.149   2.398   5.006
   92POPC  C21012259   0.991   2.525   5.006
   92POPC  H10112260   0.933   2.438   4.968
   92POPC  C21112261   0.896   2.643   5.010
   92POPC  H11R12262   0.943   2.714   5.075
   92POPC  H11S12263   0.803   2.613   5.061
   92POPC  C21212264   0.843   2.727   4.888
   92POPC  H12R12265   0.923   2.770   4.826
   92POPC  H12S12266   0.790   2.816   4.929
   92POPC  C21312267   0.740   2.647   4.808
   92POPC  H13R12268   0.652   2.625   4.870
   92POPC  H13S12269   0.789   2.549   4.789
   92POPC  C21412270   0.696   2.701   4.671
   92POPC  H14R12271   0.763   2.781   4.635
   92POPC  H14S12272   0.596   2.747   4.682
   92POPC  C21512273   0.693   2.585   4.571
   92POPC  H15R12274   0.630   2.505   4.617
   92POPC  H15S12275   0.795   2.543   4.564
   92POPC  C21612276   0.641   2.610   4.429
   92POPC  H16R12277   0.579   2.701   4.420
   92POPC  H16S12278   0.576   2.523   4.406
   92POPC  C21712279   0.743   2.598   4.317
   92POPC  H17R12280   0.829   2.665   4.337
   92POPC  H17S12281   0.696   2.633   4.222
   92POPC  C21812282   0.788   2.453   4.298
   92POPC  H18R12283   0.893   2.439   4.331
   92POPC  H18S12284   0.779   2.424   4.191
   92POPC  H18T12285   0.725   2.383   4.357
   92POPC   C3312286   1.227   3.233   5.567
   92POPC   H3X12287   1.334   3.204   5.584
   92POPC   H3Y12288   1.231   3.336   5.528
   92POPC   C3412289   1.169   3.143   5.455
   92POPC   H4X12290   1.060   3.133   5.467
   92POPC   H4Y12291   1.210   3.040   5.462
   92POPC   C3512292   1.190   3.196   5.313
   92POPC   H5X12293   1.273   3.141   5.264
   92POPC   H5Y12294   1.234   3.296   5.323
   92POPC   C3612295   1.066   3.199   5.218
   92POPC   H6X12296   1.064   3.110   5.154
   92POPC   H6Y12297   1.095   3.272   5.141
   92POPC   C3712298   0.921   3.229   5.270
   92POPC   H7X12299   0.887   3.324   5.225
   92POPC   H7Y12300   0.921   3.245   5.379
   92POPC   C3812301   0.812   3.123   5.238
   92POPC   H8X12302   0.824   3.041   5.312
   92POPC   H8Y12303   0.826   3.086   5.134
   92POPC   C3912304   0.663   3.161   5.247
   92POPC   H9X12305   0.656   3.252   5.308
   92POPC   H9Y12306   0.607   3.084   5.306
   92POPC  C31012307   0.592   3.175   5.111
   92POPC  H10X12308   0.646   3.248   5.047
   92POPC  H10Y12309   0.490   3.215   5.129
   92POPC  C31112310   0.575   3.041   5.035
   92POPC  H11X12311   0.537   2.967   5.110
   92POPC  H11Y12312   0.672   3.004   4.998
   92POPC  C31212313   0.471   3.047   4.922
   92POPC  H12X12314   0.379   3.093   4.963
   92POPC  H12Y12315   0.444   2.942   4.894
   92POPC  C31312316   0.511   3.120   4.792
   92POPC  H13X12317   0.537   3.226   4.813
   92POPC  H13Y12318   0.421   3.121   4.726
   92POPC  C31412319   0.627   3.052   4.718
   92POPC  H14X12320   0.627   2.945   4.745
   92POPC  H14Y12321   0.722   3.096   4.754
   92POPC  C31512322   0.620   3.064   4.565
   92POPC  H15X12323   0.718   3.032   4.522
   92POPC  H15Y12324   0.607   3.171   4.539
   92POPC  C31612325   0.510   2.983   4.495
   92POPC  H16X12326   0.410   3.003   4.540
   92POPC  H16Y12327   0.531   2.875   4.505
   92POPC  H16Z12328   0.505   3.008   4.387
   93POPC     N12329   1.592   7.699   6.189
   93POPC   C1212330   1.493   7.735   6.078
   93POPC  H12A12331   1.539   7.729   5.980
   93POPC  H12B12332   1.461   7.840   6.089
   93POPC   C1312333   1.530   7.736   6.318
   93POPC  H13A12334   1.432   7.687   6.323
   93POPC  H13B12335   1.588   7.709   6.403
   93POPC  H13C12336   1.502   7.841   6.322
   93POPC   C1412337   1.614   7.552   6.189
   93POPC  H14A12338   1.688   7.521   6.262
   93POPC  H14B12339   1.519   7.503   6.214
   93POPC  H14C12340   1.648   7.521   6.091
   93POPC   C1512341   1.724   7.768   6.174
   93POPC  H15A12342   1.794   7.737   6.251
   93POPC  H15B12343   1.711   7.875   6.176
   93POPC  H15C12344   1.772   7.740   6.080
   93POPC   C1112345   1.360   7.654   6.070
   93POPC  H11A12346   1.378   7.545   6.077
   93POPC  H11B12347   1.314   7.669   5.970
   93POPC     P12348   1.214   7.837   6.197
   93POPC   O1312349   1.299   7.897   6.303
   93POPC   O1412350   1.068   7.828   6.217
   93POPC   O1212351   1.268   7.689   6.171
   93POPC   O1112352   1.246   7.910   6.060
   93POPC    C112353   1.156   7.888   5.951
   93POPC    HA12354   1.075   7.965   5.956
   93POPC    HB12355   1.106   7.788   5.954
   93POPC    C212356   1.223   7.902   5.812
   93POPC    HS12357   1.144   7.945   5.746
   93POPC   O2112358   1.263   7.772   5.763
   93POPC   C2112359   1.278   7.762   5.632
   93POPC   O2212360   1.265   7.852   5.551
   93POPC   C2212361   1.329   7.622   5.602
   93POPC   H2R12362   1.272   7.549   5.664
   93POPC   H2S12363   1.435   7.620   5.634
   93POPC    C312364   1.346   8.000   5.814
   93POPC    HX12365   1.311   8.091   5.868
   93POPC    HY12366   1.365   8.027   5.707
   93POPC   O3112367   1.471   7.951   5.870
   93POPC   C3112368   1.566   8.048   5.852
   93POPC   O3212369   1.540   8.163   5.825
   93POPC   C3212370   1.703   7.986   5.843
   93POPC   H2X12371   1.730   7.942   5.941
   93POPC   H2Y12372   1.775   8.068   5.822
   93POPC   C2312373   1.317   7.585   5.454
   93POPC   H3R12374   1.341   7.673   5.390
   93POPC   H3S12375   1.212   7.555   5.433
   93POPC   C2412376   1.413   7.473   5.414
   93POPC   H4R12377   1.395   7.381   5.475
   93POPC   H4S12378   1.515   7.509   5.439
   93POPC   C2512379   1.405   7.440   5.265
   93POPC   H5R12380   1.422   7.536   5.212
   93POPC   H5S12381   1.305   7.406   5.234
   93POPC   C2612382   1.507   7.336   5.218
   93POPC   H6R12383   1.481   7.300   5.116
   93POPC   H6S12384   1.511   7.249   5.286
   93POPC   C2712385   1.638   7.412   5.212
   93POPC   H7R12386   1.662   7.446   5.315
   93POPC   H7S12387   1.613   7.502   5.150
   93POPC   C2812388   1.760   7.342   5.154
   93POPC   H8R12389   1.739   7.298   5.055
   93POPC   H8S12390   1.797   7.261   5.222
   93POPC   C2912391   1.851   7.463   5.153
   93POPC   H9112392   1.900   7.484   5.249
   93POPC  C21012393   1.870   7.545   5.048
   93POPC  H10112394   1.939   7.630   5.060
   93POPC  C21112395   1.807   7.530   4.913
   93POPC  H11R12396   1.755   7.432   4.901
   93POPC  H11S12397   1.889   7.528   4.840
   93POPC  C21212398   1.711   7.634   4.854
   93POPC  H12R12399   1.750   7.737   4.868
   93POPC  H12S12400   1.612   7.625   4.903
   93POPC  C21312401   1.699   7.600   4.705
   93POPC  H13R12402   1.654   7.499   4.697
   93POPC  H13S12403   1.802   7.595   4.662
   93POPC  C21412404   1.620   7.697   4.621
   93POPC  H14R12405   1.642   7.801   4.653
   93POPC  H14S12406   1.511   7.678   4.637
   93POPC  C21512407   1.649   7.679   4.472
   93POPC  H15R12408   1.643   7.570   4.449
   93POPC  H15S12409   1.753   7.712   4.449
   93POPC  C21612410   1.548   7.752   4.383
   93POPC  H16R12411   1.448   7.709   4.406
   93POPC  H16S12412   1.569   7.731   4.276
   93POPC  C21712413   1.545   7.904   4.408
   93POPC  H17R12414   1.640   7.950   4.374
   93POPC  H17S12415   1.536   7.923   4.517
   93POPC  C21812416   1.428   7.972   4.339
   93POPC  H18R12417   1.340   7.907   4.344
   93POPC  H18S12418   1.447   7.988   4.232
   93POPC  H18T12419   1.403   8.069   4.388
   93POPC   C3312420   1.706   7.882   5.730
   93POPC   H3X12421   1.606   7.837   5.712
   93POPC   H3Y12422   1.772   7.799   5.761
   93POPC   C3412423   1.758   7.939   5.597
   93POPC   H4X12424   1.868   7.949   5.600
   93POPC   H4Y12425   1.715   8.041   5.580
   93POPC   C3512426   1.715   7.850   5.479
   93POPC   H5X12427   1.604   7.859   5.471
   93POPC   H5Y12428   1.739   7.744   5.499
   93POPC   C3612429   1.780   7.894   5.348
   93POPC   H6X12430   1.890   7.880   5.355
   93POPC   H6Y12431   1.759   8.003   5.335
   93POPC   C3712432   1.727   7.822   5.223
   93POPC   H7X12433   1.761   7.717   5.224
   93POPC   H7Y12434   1.770   7.872   5.133
   93POPC   C3812435   1.575   7.827   5.218
   93POPC   H8X12436   1.544   7.931   5.247
   93POPC   H8Y12437   1.531   7.757   5.293
   93POPC   C3912438   1.514   7.797   5.082
   93POPC   H9X12439   1.501   7.688   5.070
   93POPC   H9Y12440   1.580   7.835   5.001
   93POPC  C31012441   1.379   7.866   5.073
   93POPC  H10X12442   1.395   7.976   5.072
   93POPC  H10Y12443   1.319   7.841   5.163
   93POPC  C31112444   1.301   7.826   4.949
   93POPC  H11X12445   1.202   7.877   4.950
   93POPC  H11Y12446   1.280   7.717   4.951
   93POPC  C31212447   1.376   7.856   4.819
   93POPC  H12X12448   1.442   7.769   4.802
   93POPC  H12Y12449   1.441   7.944   4.831
   93POPC  C31312450   1.281   7.873   4.700
   93POPC  H13X12451   1.343   7.873   4.607
   93POPC  H13Y12452   1.229   7.971   4.707
   93POPC  C31412453   1.177   7.761   4.694
   93POPC  H14X12454   1.123   7.757   4.790
   93POPC  H14Y12455   1.232   7.664   4.686
   93POPC  C31512456   1.077   7.773   4.580
   93POPC  H15X12457   1.017   7.866   4.588
   93POPC  H15Y12458   1.007   7.686   4.582
   93POPC  C31612459   1.153   7.776   4.450
   93POPC  H16X12460   1.248   7.719   4.459
   93POPC  H16Y12461   1.095   7.734   4.365
   93POPC  H16Z12462   1.176   7.882   4.429
   94POPC     N12463   8.562   7.083   6.211
   94POPC   C1212464   8.568   7.004   6.080
   94POPC  H12A12465   8.670   7.012   6.041
   94POPC  H12B12466   8.504   7.048   6.005
   94POPC   C1312467   8.670   7.026   6.299
   94POPC  H13A12468   8.768   7.036   6.254
   94POPC  H13B12469   8.669   7.069   6.399
   94POPC  H13C12470   8.654   6.918   6.308
   94POPC   C1412471   8.587   7.229   6.192
   94POPC  H14A12472   8.571   7.282   6.286
   94POPC  H14B12473   8.690   7.247   6.165
   94POPC  H14C12474   8.522   7.272   6.117
   94POPC   C1512475   8.432   7.061   6.281
   94POPC  H15A12476   8.352   7.105   6.226
   94POPC  H15B12477   8.436   7.105   6.380
   94POPC  H15C12478   8.413   6.954   6.291
   94POPC   C1112479   8.540   6.851   6.085
   94POPC  H11A12480   8.546   6.809   5.981
   94POPC  H11B12481   8.436   6.833   6.119
   94POPC     P12482   8.778   6.742   6.125
   94POPC   O1312483   8.771   6.632   6.027
   94POPC   O1412484   8.872   6.735   6.240
   94POPC   O1212485   8.630   6.781   6.172
   94POPC   O1112486   8.810   6.882   6.058
   94POPC    C112487   8.871   6.897   5.933
   94POPC    HA12488   8.813   6.845   5.853
   94POPC    HB12489   8.973   6.852   5.936
   94POPC    C212490   8.886   7.048   5.898
   94POPC    HS12491   8.920   7.102   5.988
   94POPC   O2112492   8.761   7.103   5.852
   94POPC   C2112493   8.761   7.226   5.798
   94POPC   O2212494   8.847   7.310   5.815
   94POPC   C2212495   8.628   7.243   5.722
   94POPC   H2R12496   8.569   7.317   5.780
   94POPC   H2S12497   8.573   7.147   5.722
   94POPC    C312498   8.995   7.052   5.790
   94POPC    HX12499   9.089   7.013   5.834
   94POPC    HY12500   9.014   7.156   5.757
   94POPC   O3112501   8.952   6.962   5.689
   94POPC   C3112502   8.973   7.003   5.567
   94POPC   O3212503   9.033   7.104   5.536
   94POPC   C3212504   8.925   6.896   5.471
   94POPC   H2X12505   8.814   6.895   5.468
   94POPC   H2Y12506   8.960   6.797   5.508
   94POPC   C2312507   8.641   7.293   5.576
   94POPC   H3R12508   8.722   7.369   5.568
   94POPC   H3S12509   8.545   7.345   5.550
   94POPC   C2412510   8.661   7.183   5.471
   94POPC   H4R12511   8.576   7.112   5.473
   94POPC   H4S12512   8.754   7.127   5.492
   94POPC   C2512513   8.673   7.246   5.331
   94POPC   H5R12514   8.771   7.298   5.329
   94POPC   H5S12515   8.591   7.319   5.314
   94POPC   C2612516   8.684   7.153   5.211
   94POPC   H6R12517   8.782   7.100   5.215
   94POPC   H6S12518   8.684   7.216   5.119
   94POPC   C2712519   8.575   7.048   5.196
   94POPC   H7R12520   8.474   7.094   5.199
   94POPC   H7S12521   8.583   6.973   5.278
   94POPC   C2812522   8.600   6.983   5.060
   94POPC   H8R12523   8.705   6.948   5.058
   94POPC   H8S12524   8.591   7.061   4.982
   94POPC   C2912525   8.513   6.865   5.035
   94POPC   H9112526   8.523   6.782   5.107
   94POPC  C21012527   8.428   6.853   4.933
   94POPC  H10112528   8.374   6.759   4.926
   94POPC  C21112529   8.399   6.950   4.822
   94POPC  H11R12530   8.457   7.044   4.828
   94POPC  H11S12531   8.292   6.978   4.830
   94POPC  C21212532   8.423   6.885   4.685
   94POPC  H12R12533   8.412   6.963   4.607
   94POPC  H12S12534   8.345   6.808   4.665
   94POPC  C21312535   8.562   6.820   4.670
   94POPC  H13R12536   8.569   6.730   4.734
   94POPC  H13S12537   8.638   6.892   4.705
   94POPC  C21412538   8.590   6.781   4.525
   94POPC  H14R12539   8.572   6.866   4.456
   94POPC  H14S12540   8.512   6.705   4.500
   94POPC  C21512541   8.726   6.716   4.497
   94POPC  H15R12542   8.706   6.657   4.405
   94POPC  H15S12543   8.756   6.649   4.580
   94POPC  C21612544   8.844   6.800   4.448
   94POPC  H16R12545   8.925   6.731   4.414
   94POPC  H16S12546   8.888   6.863   4.529
   94POPC  C21712547   8.799   6.886   4.331
   94POPC  H17R12548   8.738   6.966   4.373
   94POPC  H17S12549   8.729   6.831   4.265
   94POPC  C21812550   8.913   6.943   4.248
   94POPC  H18R12551   8.984   6.863   4.221
   94POPC  H18S12552   8.965   7.020   4.308
   94POPC  H18T12553   8.877   6.990   4.154
   94POPC   C3312554   8.988   6.931   5.337
   94POPC   H3X12555   9.099   6.935   5.350
   94POPC   H3Y12556   8.956   7.031   5.301
   94POPC   C3412557   8.966   6.826   5.231
   94POPC   H4X12558   8.858   6.814   5.207
   94POPC   H4Y12559   9.007   6.730   5.269
   94POPC   C3512560   9.046   6.865   5.107
   94POPC   H5X12561   9.080   6.772   5.060
   94POPC   H5Y12562   9.135   6.925   5.135
   94POPC   C3612563   8.960   6.942   5.009
   94POPC   H6X12564   8.920   7.032   5.061
   94POPC   H6Y12565   8.876   6.876   4.979
   94POPC   C3712566   9.035   6.986   4.885
   94POPC   H7X12567   9.050   6.899   4.818
   94POPC   H7Y12568   9.134   7.021   4.917
   94POPC   C3812569   8.961   7.096   4.810
   94POPC   H8X12570   9.018   7.122   4.718
   94POPC   H8Y12571   8.954   7.186   4.875
   94POPC   C3912572   8.820   7.055   4.766
   94POPC   H9X12573   8.767   7.005   4.849
   94POPC   H9Y12574   8.828   6.980   4.685
   94POPC  C31012575   8.734   7.174   4.722
   94POPC  H10X12576   8.717   7.239   4.810
   94POPC  H10Y12577   8.635   7.134   4.691
   94POPC  C31112578   8.796   7.261   4.610
   94POPC  H11X12579   8.895   7.298   4.645
   94POPC  H11Y12580   8.733   7.350   4.592
   94POPC  C31212581   8.815   7.192   4.475
   94POPC  H12X12582   8.842   7.086   4.493
   94POPC  H12Y12583   8.902   7.238   4.423
   94POPC  C31312584   8.694   7.206   4.381
   94POPC  H13X12585   8.710   7.148   4.288
   94POPC  H13Y12586   8.692   7.312   4.350
   94POPC  C31412587   8.557   7.163   4.438
   94POPC  H14X12588   8.532   7.229   4.523
   94POPC  H14Y12589   8.565   7.062   4.480
   94POPC  C31512590   8.443   7.171   4.335
   94POPC  H15X12591   8.466   7.251   4.261
   94POPC  H15Y12592   8.350   7.201   4.387
   94POPC  C31612593   8.418   7.039   4.261
   94POPC  H16X12594   8.341   7.053   4.181
   94POPC  H16Y12595   8.381   6.962   4.332
   94POPC  H16Z12596   8.511   7.002   4.214
   95POPC     N12597   2.084   8.442   6.363
   95POPC   C1212598   2.079   8.522   6.234
   95POPC  H12A12599   2.153   8.484   6.164
   95POPC  H12B12600   2.107   8.624   6.256
   95POPC   C1312601   2.206   8.483   6.438
   95POPC  H13A12602   2.216   8.425   6.530
   95POPC  H13B12603   2.298   8.469   6.383
   95POPC  H13C12604   2.200   8.587   6.469
   95POPC   C1412605   1.964   8.468   6.451
   95POPC  H14A12606   1.951   8.574   6.475
   95POPC  H14B12607   1.873   8.431   6.404
   95POPC  H14C12608   1.975   8.421   6.548
   95POPC   C1512609   2.089   8.296   6.328
   95POPC  H15A12610   2.182   8.269   6.281
   95POPC  H15B12611   2.010   8.276   6.255
   95POPC  H15C12612   2.072   8.235   6.416
   95POPC   C1112613   1.946   8.524   6.155
   95POPC  H11A12614   1.954   8.600   6.073
   95POPC  H11B12615   1.865   8.559   6.222
   95POPC     P12616   1.940   8.353   5.956
   95POPC   O1312617   1.843   8.428   5.873
   95POPC   O1412618   1.938   8.205   5.954
   95POPC   O1212619   1.914   8.394   6.107
   95POPC   O1112620   2.087   8.406   5.933
   95POPC    C112621   2.196   8.318   5.961
   95POPC    HA12622   2.171   8.236   6.033
   95POPC    HB12623   2.276   8.378   6.011
   95POPC    C212624   2.257   8.254   5.833
   95POPC    HS12625   2.351   8.205   5.865
   95POPC   O2112626   2.285   8.351   5.733
   95POPC   C2112627   2.370   8.445   5.761
   95POPC   O2212628   2.441   8.455   5.860
   95POPC   C2212629   2.379   8.534   5.640
   95POPC   H2R12630   2.406   8.470   5.553
   95POPC   H2S12631   2.461   8.606   5.655
   95POPC    C312632   2.173   8.144   5.764
   95POPC    HX12633   2.091   8.191   5.705
   95POPC    HY12634   2.128   8.077   5.840
   95POPC   O3112635   2.266   8.069   5.683
   95POPC   C3112636   2.234   8.037   5.561
   95POPC   O3212637   2.122   8.037   5.513
   95POPC   C3212638   2.362   8.002   5.485
   95POPC   H2X12639   2.416   7.924   5.544
   95POPC   H2Y12640   2.425   8.093   5.479
   95POPC   C2312641   2.245   8.605   5.611
   95POPC   H3R12642   2.248   8.707   5.658
   95POPC   H3S12643   2.158   8.553   5.657
   95POPC   C2412644   2.224   8.620   5.460
   95POPC   H4R12645   2.322   8.648   5.415
   95POPC   H4S12646   2.151   8.702   5.444
   95POPC   C2512647   2.167   8.500   5.387
   95POPC   H5R12648   2.244   8.420   5.380
   95POPC   H5S12649   2.141   8.532   5.283
   95POPC   C2612650   2.042   8.446   5.456
   95POPC   H6R12651   1.985   8.531   5.499
   95POPC   H6S12652   2.073   8.382   5.541
   95POPC   C2712653   1.951   8.367   5.363
   95POPC   H7R12654   1.899   8.434   5.292
   95POPC   H7S12655   1.874   8.315   5.425
   95POPC   C2812656   2.034   8.266   5.285
   95POPC   H8R12657   2.098   8.221   5.365
   95POPC   H8S12658   2.103   8.318   5.215
   95POPC   C2912659   1.961   8.155   5.216
   95POPC   H9112660   1.948   8.067   5.279
   95POPC  C21012661   1.925   8.150   5.086
   95POPC  H10112662   1.874   8.061   5.050
   95POPC  C21112663   1.952   8.257   4.984
   95POPC  H11R12664   2.008   8.213   4.898
   95POPC  H11S12665   2.016   8.339   5.025
   95POPC  C21212666   1.823   8.322   4.931
   95POPC  H12R12667   1.762   8.356   5.018
   95POPC  H12S12668   1.764   8.246   4.876
   95POPC  C21312669   1.850   8.444   4.842
   95POPC  H13R12670   1.914   8.515   4.899
   95POPC  H13S12671   1.754   8.495   4.820
   95POPC  C21412672   1.920   8.410   4.709
   95POPC  H14R12673   2.007   8.344   4.728
   95POPC  H14S12674   1.959   8.503   4.663
   95POPC  C21512675   1.825   8.343   4.608
   95POPC  H15R12676   1.748   8.419   4.580
   95POPC  H15S12677   1.771   8.259   4.657
   95POPC  C21612678   1.891   8.292   4.480
   95POPC  H16R12679   1.946   8.377   4.432
   95POPC  H16S12680   1.811   8.261   4.409
   95POPC  C21712681   1.987   8.174   4.499
   95POPC  H17R12682   2.068   8.203   4.570
   95POPC  H17S12683   2.037   8.153   4.402
   95POPC  C21812684   1.920   8.045   4.549
   95POPC  H18R12685   1.872   8.062   4.648
   95POPC  H18S12686   1.995   7.964   4.560
   95POPC  H18T12687   1.842   8.012   4.478
   95POPC   C3312688   2.337   7.948   5.345
   95POPC   H3X12689   2.249   7.879   5.344
   95POPC   H3Y12690   2.424   7.889   5.311
   95POPC   C3412691   2.319   8.060   5.243
   95POPC   H4X12692   2.412   8.120   5.233
   95POPC   H4Y12693   2.241   8.129   5.277
   95POPC   C3512694   2.278   7.999   5.111
   95POPC   H5X12695   2.187   7.937   5.125
   95POPC   H5Y12696   2.364   7.934   5.087
   95POPC   C3612697   2.261   8.094   4.994
   95POPC   H6X12698   2.205   8.185   5.023
   95POPC   H6Y12699   2.202   8.041   4.916
   95POPC   C3712700   2.396   8.132   4.935
   95POPC   H7X12701   2.463   8.043   4.939
   95POPC   H7Y12702   2.442   8.212   4.997
   95POPC   C3812703   2.386   8.175   4.789
   95POPC   H8X12704   2.305   8.119   4.738
   95POPC   H8Y12705   2.482   8.151   4.738
   95POPC   C3912706   2.363   8.325   4.777
   95POPC   H9X12707   2.447   8.377   4.828
   95POPC   H9Y12708   2.268   8.353   4.830
   95POPC  C31012709   2.355   8.367   4.631
   95POPC  H10X12710   2.258   8.331   4.590
   95POPC  H10Y12711   2.436   8.318   4.573
   95POPC  C31112712   2.370   8.519   4.618
   95POPC  H11X12713   2.479   8.539   4.630
   95POPC  H11Y12714   2.314   8.570   4.699
   95POPC  C31212715   2.330   8.578   4.483
   95POPC  H12X12716   2.397   8.529   4.409
   95POPC  H12Y12717   2.355   8.687   4.482
   95POPC  C31312718   2.182   8.560   4.447
   95POPC  H13X12719   2.121   8.636   4.501
   95POPC  H13Y12720   2.146   8.461   4.483
   95POPC  C31412721   2.153   8.569   4.297
   95POPC  H14X12722   2.171   8.673   4.262
   95POPC  H14Y12723   2.046   8.545   4.280
   95POPC  C31512724   2.237   8.472   4.211
   95POPC  H15X12725   2.345   8.492   4.222
   95POPC  H15Y12726   2.215   8.496   4.105
   95POPC  C31612727   2.208   8.324   4.236
   95POPC  H16X12728   2.101   8.302   4.219
   95POPC  H16Y12729   2.233   8.297   4.341
   95POPC  H16Z12730   2.269   8.260   4.169
   96POPC     N12731   7.499   8.328   6.127
   96POPC   C1212732   7.468   8.183   6.089
   96POPC  H12A12733   7.526   8.159   5.999
   96POPC  H12B12734   7.364   8.173   6.063
   96POPC   C1312735   7.459   8.355   6.268
   96POPC  H13A12736   7.508   8.281   6.331
   96POPC  H13B12737   7.496   8.452   6.300
   96POPC  H13C12738   7.352   8.352   6.286
   96POPC   C1412739   7.648   8.345   6.118
   96POPC  H14A12740   7.696   8.259   6.166
   96POPC  H14B12741   7.681   8.345   6.015
   96POPC  H14C12742   7.682   8.433   6.170
   96POPC   C1512743   7.432   8.426   6.036
   96POPC  H15A12744   7.324   8.417   6.036
   96POPC  H15B12745   7.468   8.417   5.933
   96POPC  H15C12746   7.455   8.528   6.065
   96POPC   C1112747   7.505   8.073   6.193
   96POPC  H11A12748   7.475   7.973   6.152
   96POPC  H11B12749   7.446   8.087   6.286
   96POPC     P12750   7.752   8.010   6.129
   96POPC   O1312751   7.762   7.866   6.163
   96POPC   O1412752   7.874   8.093   6.138
   96POPC   O1212753   7.644   8.074   6.227
   96POPC   O1112754   7.680   8.033   5.989
   96POPC    C112755   7.750   8.047   5.866
   96POPC    HA12756   7.726   7.960   5.801
   96POPC    HB12757   7.861   8.051   5.878
   96POPC    C212758   7.707   8.177   5.791
   96POPC    HS12759   7.728   8.262   5.859
   96POPC   O2112760   7.566   8.169   5.759
   96POPC   C2112761   7.512   8.283   5.718
   96POPC   O2212762   7.561   8.393   5.735
   96POPC   C2212763   7.374   8.256   5.661
   96POPC   H2R12764   7.301   8.288   5.738
   96POPC   H2S12765   7.361   8.147   5.642
   96POPC    C312766   7.791   8.197   5.662
   96POPC    HX12767   7.899   8.197   5.690
   96POPC    HY12768   7.767   8.296   5.616
   96POPC   O3112769   7.757   8.093   5.570
   96POPC   C3112770   7.853   8.041   5.498
   96POPC   O3212771   7.971   8.070   5.501
   96POPC   C3212772   7.788   7.938   5.406
   96POPC   H2X12773   7.703   7.990   5.355
   96POPC   H2Y12774   7.746   7.856   5.467
   96POPC   C2312775   7.349   8.336   5.532
   96POPC   H3R12776   7.395   8.437   5.536
   96POPC   H3S12777   7.239   8.351   5.519
   96POPC   C2412778   7.396   8.263   5.406
   96POPC   H4R12779   7.338   8.169   5.393
   96POPC   H4S12780   7.503   8.235   5.418
   96POPC   C2512781   7.377   8.350   5.281
   96POPC   H5R12782   7.451   8.434   5.285
   96POPC   H5S12783   7.276   8.397   5.283
   96POPC   C2612784   7.393   8.273   5.149
   96POPC   H6R12785   7.392   8.346   5.064
   96POPC   H6S12786   7.305   8.206   5.136
   96POPC   C2712787   7.521   8.188   5.141
   96POPC   H7R12788   7.531   8.149   5.037
   96POPC   H7S12789   7.510   8.100   5.208
   96POPC   C2812790   7.650   8.263   5.180
   96POPC   H8R12791   7.732   8.188   5.180
   96POPC   H8S12792   7.644   8.300   5.284
   96POPC   C2912793   7.678   8.379   5.088
   96POPC   H9112794   7.594   8.448   5.077
   96POPC  C21012795   7.792   8.407   5.024
   96POPC  H10112796   7.794   8.498   4.962
   96POPC  C21112797   7.924   8.333   5.022
   96POPC  H11R12798   7.989   8.378   5.100
   96POPC  H11S12799   7.970   8.358   4.924
   96POPC  C21212800   7.942   8.179   5.035
   96POPC  H12R12801   7.927   8.149   5.140
   96POPC  H12S12802   8.049   8.156   5.012
   96POPC  C21312803   7.854   8.095   4.942
   96POPC  H13R12804   7.749   8.099   4.978
   96POPC  H13S12805   7.887   7.989   4.947
   96POPC  C21412806   7.853   8.138   4.796
   96POPC  H14R12807   7.812   8.241   4.788
   96POPC  H14S12808   7.783   8.070   4.743
   96POPC  C21512809   7.990   8.137   4.729
   96POPC  H15R12810   8.038   8.037   4.742
   96POPC  H15S12811   8.055   8.212   4.777
   96POPC  C21612812   7.978   8.170   4.580
   96POPC  H16R12813   8.080   8.184   4.539
   96POPC  H16S12814   7.926   8.267   4.567
   96POPC  C21712815   7.905   8.060   4.503
   96POPC  H17R12816   7.799   8.051   4.536
   96POPC  H17S12817   7.955   7.962   4.522
   96POPC  C21812818   7.906   8.088   4.354
   96POPC  H18R12819   7.844   8.177   4.330
   96POPC  H18S12820   7.872   8.001   4.296
   96POPC  H18T12821   8.010   8.110   4.322
   96POPC   C3312822   7.882   7.881   5.298
   96POPC   H3X12823   7.935   7.792   5.338
   96POPC   H3Y12824   7.959   7.957   5.269
   96POPC   C3412825   7.807   7.844   5.170
   96POPC   H4X12826   7.879   7.815   5.091
   96POPC   H4Y12827   7.753   7.936   5.135
   96POPC   C3512828   7.705   7.731   5.190
   96POPC   H5X12829   7.638   7.755   5.276
   96POPC   H5Y12830   7.760   7.638   5.215
   96POPC   C3612831   7.617   7.708   5.067
   96POPC   H6X12832   7.557   7.616   5.084
   96POPC   H6Y12833   7.683   7.689   4.979
   96POPC   C3712834   7.521   7.824   5.037
   96POPC   H7X12835   7.580   7.911   5.002
   96POPC   H7Y12836   7.468   7.854   5.130
   96POPC   C3812837   7.418   7.787   4.930
   96POPC   H8X12838   7.353   7.705   4.967
   96POPC   H8Y12839   7.472   7.753   4.840
   96POPC   C3912840   7.334   7.904   4.882
   96POPC   H9X12841   7.299   7.964   4.969
   96POPC   H9Y12842   7.244   7.866   4.828
   96POPC  C31012843   7.413   7.991   4.785
   96POPC  H10X12844   7.425   7.937   4.688
   96POPC  H10Y12845   7.515   8.011   4.825
   96POPC  C31112846   7.342   8.123   4.762
   96POPC  H11X12847   7.320   8.172   4.859
   96POPC  H11Y12848   7.245   8.096   4.715
   96POPC  C31212849   7.421   8.218   4.672
   96POPC  H12X12850   7.353   8.291   4.625
   96POPC  H12Y12851   7.468   8.160   4.590
   96POPC  C31312852   7.525   8.296   4.752
   96POPC  H13X12853   7.604   8.225   4.783
   96POPC  H13Y12854   7.479   8.336   4.845
   96POPC  C31412855   7.587   8.413   4.673
   96POPC  H14X12856   7.667   8.459   4.734
   96POPC  H14Y12857   7.508   8.490   4.655
   96POPC  C31512858   7.645   8.369   4.538
   96POPC  H15X12859   7.561   8.337   4.472
   96POPC  H15Y12860   7.710   8.280   4.555
   96POPC  C31612861   7.726   8.478   4.467
   96POPC  H16X12862   7.766   8.441   4.371
   96POPC  H16Y12863   7.811   8.510   4.531
   96POPC  H16Z12864   7.662   8.567   4.446
   97POPC     N12865   0.465   5.560   6.183
   97POPC   C1212866   0.395   5.477   6.077
   97POPC  H12A12867   0.398   5.374   6.107
   97POPC  H12B12868   0.448   5.486   5.983
   97POPC   C1312869   0.417   5.702   6.165
   97POPC  H13A12870   0.438   5.739   6.065
   97POPC  H13B12871   0.308   5.704   6.175
   97POPC  H13C12872   0.454   5.770   6.239
   97POPC   C1412873   0.422   5.512   6.320
   97POPC  H14A12874   0.314   5.527   6.330
   97POPC  H14B12875   0.442   5.407   6.336
   97POPC  H14C12876   0.472   5.566   6.398
   97POPC   C1512877   0.612   5.550   6.181
   97POPC  H15A12878   0.653   5.616   6.257
   97POPC  H15B12879   0.654   5.572   6.085
   97POPC  H15C12880   0.643   5.450   6.211
   97POPC   C1112881   0.246   5.514   6.057
   97POPC  H11A12882   0.196   5.434   5.998
   97POPC  H11B12883   0.238   5.608   5.996
   97POPC     P12884   0.040   5.576   6.209
   97POPC   O1312885   0.033   5.725   6.208
   97POPC   O1412886  -0.010   5.505   6.329
   97POPC   O1212887   0.186   5.531   6.185
   97POPC   O1112888  -0.025   5.513   6.077
   97POPC    C112889  -0.106   5.392   6.082
   97POPC    HA12890  -0.207   5.417   6.042
   97POPC    HB12891  -0.123   5.361   6.186
   97POPC    C212892  -0.062   5.255   6.010
   97POPC    HS12893  -0.110   5.173   6.069
   97POPC   O2112894   0.081   5.231   6.002
   97POPC   C2112895   0.112   5.108   5.955
   97POPC   O2212896   0.043   5.009   5.961
   97POPC   C2212897   0.237   5.114   5.868
   97POPC   H2R12898   0.271   5.009   5.854
   97POPC   H2S12899   0.315   5.174   5.917
   97POPC    C312900  -0.121   5.247   5.866
   97POPC    HX12901  -0.224   5.209   5.875
   97POPC    HY12902  -0.073   5.169   5.804
   97POPC   O3112903  -0.126   5.377   5.802
   97POPC   C3112904  -0.096   5.382   5.674
   97POPC   O3212905  -0.058   5.290   5.605
   97POPC   C3212906  -0.117   5.525   5.627
   97POPC   H2X12907  -0.058   5.593   5.693
   97POPC   H2Y12908  -0.225   5.549   5.635
   97POPC   C2312909   0.195   5.170   5.731
   97POPC   H3R12910   0.141   5.267   5.747
   97POPC   H3S12911   0.124   5.101   5.681
   97POPC   C2412912   0.309   5.203   5.634
   97POPC   H4R12913   0.370   5.114   5.613
   97POPC   H4S12914   0.375   5.279   5.680
   97POPC   C2512915   0.250   5.259   5.502
   97POPC   H5R12916   0.190   5.349   5.525
   97POPC   H5S12917   0.180   5.183   5.460
   97POPC   C2612918   0.355   5.294   5.396
   97POPC   H6R12919   0.416   5.204   5.376
   97POPC   H6S12920   0.423   5.372   5.437
   97POPC   C2712921   0.295   5.346   5.264
   97POPC   H7R12922   0.239   5.439   5.286
   97POPC   H7S12923   0.221   5.272   5.224
   97POPC   C2812924   0.401   5.377   5.156
   97POPC   H8R12925   0.478   5.442   5.202
   97POPC   H8S12926   0.353   5.437   5.075
   97POPC   C2912927   0.466   5.252   5.101
   97POPC   H9112928   0.494   5.179   5.178
   97POPC  C21012929   0.495   5.223   4.973
   97POPC  H10112930   0.543   5.126   4.952
   97POPC  C21112931   0.470   5.307   4.850
   97POPC  H11R12932   0.568   5.339   4.807
   97POPC  H11S12933   0.412   5.399   4.872
   97POPC  C21212934   0.396   5.227   4.742
   97POPC  H12R12935   0.449   5.132   4.720
   97POPC  H12S12936   0.398   5.287   4.649
   97POPC  C21312937   0.248   5.200   4.776
   97POPC  H13R12938   0.206   5.290   4.827
   97POPC  H13S12939   0.238   5.115   4.846
   97POPC  C21412940   0.166   5.173   4.650
   97POPC  H14R12941   0.176   5.264   4.587
   97POPC  H14S12942   0.059   5.162   4.674
   97POPC  C21512943   0.216   5.050   4.575
   97POPC  H15R12944   0.216   4.962   4.641
   97POPC  H15S12945   0.322   5.067   4.547
   97POPC  C21612946   0.138   5.015   4.448
   97POPC  H16R12947   0.107   5.108   4.397
   97POPC  H16S12948   0.045   4.959   4.473
   97POPC  C21712949   0.226   4.936   4.351
   97POPC  H17R12950   0.218   4.829   4.374
   97POPC  H17S12951   0.333   4.960   4.367
   97POPC  C21812952   0.190   4.963   4.206
   97POPC  H18R12953   0.081   4.952   4.189
   97POPC  H18S12954   0.244   4.892   4.140
   97POPC  H18T12955   0.220   5.066   4.179
   97POPC   C3312956  -0.069   5.537   5.482
   97POPC   H3X12957  -0.130   5.470   5.417
   97POPC   H3Y12958   0.037   5.502   5.475
   97POPC   C3412959  -0.073   5.679   5.424
   97POPC   H4X12960  -0.023   5.750   5.493
   97POPC   H4Y12961  -0.179   5.711   5.409
   97POPC   C3512962   0.002   5.675   5.291
   97POPC   H5X12963  -0.033   5.583   5.240
   97POPC   H5Y12964   0.111   5.664   5.312
   97POPC   C3612965  -0.020   5.793   5.196
   97POPC   H6X12966  -0.005   5.890   5.249
   97POPC   H6Y12967  -0.124   5.790   5.159
   97POPC   C3712968   0.078   5.788   5.078
   97POPC   H7X12969   0.174   5.836   5.107
   97POPC   H7Y12970   0.035   5.850   4.996
   97POPC   C3812971   0.108   5.645   5.030
   97POPC   H8X12972   0.017   5.582   5.039
   97POPC   H8Y12973   0.185   5.600   5.096
   97POPC   C3912974   0.155   5.636   4.885
   97POPC   H9X12975   0.191   5.533   4.863
   97POPC   H9Y12976   0.240   5.707   4.870
   97POPC  C31012977   0.043   5.670   4.785
   97POPC  H10X12978   0.094   5.683   4.687
   97POPC  H10Y12979  -0.005   5.767   4.810
   97POPC  C31112980  -0.066   5.562   4.774
   97POPC  H11X12981  -0.115   5.553   4.874
   97POPC  H11Y12982  -0.022   5.464   4.749
   97POPC  C31212983  -0.176   5.598   4.673
   97POPC  H12X12984  -0.200   5.706   4.681
   97POPC  H12Y12985  -0.268   5.542   4.703
   97POPC  C31312986  -0.146   5.558   4.528
   97POPC  H13X12987  -0.235   5.588   4.468
   97POPC  H13Y12988  -0.135   5.448   4.522
   97POPC  C31412989  -0.020   5.616   4.462
   97POPC  H14X12990   0.064   5.545   4.475
   97POPC  H14Y12991   0.010   5.711   4.510
   97POPC  C31512992  -0.043   5.646   4.313
   97POPC  H15X12993  -0.130   5.714   4.302
   97POPC  H15Y12994  -0.069   5.552   4.261
   97POPC  C31612995   0.077   5.712   4.245
   97POPC  H16X12996   0.060   5.720   4.135
   97POPC  H16Y12997   0.169   5.651   4.261
   97POPC  H16Z12998   0.096   5.813   4.286
   98POPC     N12999   5.871   0.170   6.261
   98POPC   C1213000   5.766   0.209   6.364
   98POPC  H12A13001   5.818   0.255   6.448
   98POPC  H12B13002   5.713   0.122   6.398
   98POPC   C1313003   5.953   0.291   6.231
   98POPC  H13A13004   6.023   0.313   6.311
   98POPC  H13B13005   6.006   0.279   6.138
   98POPC  H13C13006   5.885   0.375   6.220
   98POPC   C1413007   5.962   0.063   6.314
   98POPC  H14A13008   5.908  -0.030   6.332
   98POPC  H14B13009   6.042   0.039   6.244
   98POPC  H14C13010   6.009   0.094   6.407
   98POPC   C1513011   5.808   0.123   6.134
   98POPC  H15A13012   5.742   0.201   6.091
   98POPC  H15B13013   5.741   0.040   6.155
   98POPC  H15C13014   5.881   0.092   6.060
   98POPC   C1113015   5.659   0.311   6.320
   98POPC  H11A13016   5.710   0.407   6.292
   98POPC  H11B13017   5.595   0.333   6.409
   98POPC     P13018   5.505   0.363   6.115
   98POPC   O1313019   5.411   0.445   6.197
   98POPC   O1413020   5.459   0.291   5.996
   98POPC   O1213021   5.578   0.259   6.214
   98POPC   O1113022   5.623   0.458   6.067
   98POPC    C113023   5.619   0.602   6.080
   98POPC    HA13024   5.722   0.637   6.103
   98POPC    HB13025   5.555   0.634   6.165
   98POPC    C213026   5.571   0.688   5.957
   98POPC    HS13027   5.495   0.759   5.998
   98POPC   O2113028   5.515   0.609   5.850
   98POPC   C2113029   5.424   0.673   5.778
   98POPC   O2213030   5.374   0.781   5.805
   98POPC   C2213031   5.394   0.592   5.654
   98POPC   H2R13032   5.284   0.588   5.640
   98POPC   H2S13033   5.431   0.491   5.680
   98POPC    C313034   5.688   0.771   5.899
   98POPC    HX13035   5.733   0.835   5.978
   98POPC    HY13036   5.650   0.842   5.825
   98POPC   O3113037   5.787   0.682   5.845
   98POPC   C3113038   5.793   0.673   5.714
   98POPC   O3213039   5.764   0.760   5.634
   98POPC   C3213040   5.836   0.531   5.675
   98POPC   H2X13041   5.944   0.539   5.660
   98POPC   H2Y13042   5.787   0.509   5.578
   98POPC   C2313043   5.468   0.631   5.523
   98POPC   H3R13044   5.566   0.676   5.548
   98POPC   H3S13045   5.410   0.704   5.463
   98POPC   C2413046   5.493   0.502   5.445
   98POPC   H4R13047   5.399   0.466   5.400
   98POPC   H4S13048   5.524   0.425   5.519
   98POPC   C2513049   5.596   0.497   5.333
   98POPC   H5R13050   5.569   0.406   5.276
   98POPC   H5S13051   5.699   0.486   5.375
   98POPC   C2613052   5.595   0.606   5.228
   98POPC   H6R13053   5.665   0.578   5.146
   98POPC   H6S13054   5.637   0.697   5.278
   98POPC   C2713055   5.456   0.642   5.171
   98POPC   H7R13056   5.456   0.752   5.174
   98POPC   H7S13057   5.377   0.614   5.243
   98POPC   C2813058   5.409   0.597   5.028
   98POPC   H8R13059   5.329   0.668   4.999
   98POPC   H8S13060   5.360   0.499   5.047
   98POPC   C2913061   5.496   0.570   4.907
   98POPC   H9113062   5.575   0.497   4.931
   98POPC  C21013063   5.496   0.618   4.779
   98POPC  H10113064   5.566   0.565   4.713
   98POPC  C21113065   5.410   0.714   4.696
   98POPC  H11R13066   5.315   0.730   4.750
   98POPC  H11S13067   5.382   0.653   4.607
   98POPC  C21213068   5.443   0.855   4.625
   98POPC  H12R13069   5.374   0.927   4.675
   98POPC  H12S13070   5.401   0.844   4.522
   98POPC  C21313071   5.581   0.933   4.606
   98POPC  H13R13072   5.668   0.894   4.654
   98POPC  H13S13073   5.576   1.025   4.665
   98POPC  C21413074   5.626   0.957   4.458
   98POPC  H14R13075   5.538   0.954   4.391
   98POPC  H14S13076   5.688   0.868   4.437
   98POPC  C21513077   5.717   1.076   4.411
   98POPC  H15R13078   5.798   1.095   4.483
   98POPC  H15S13079   5.654   1.167   4.402
   98POPC  C21613080   5.775   1.039   4.271
   98POPC  H16R13081   5.689   1.037   4.203
   98POPC  H16S13082   5.812   0.936   4.279
   98POPC  C21713083   5.892   1.110   4.198
   98POPC  H17R13084   5.985   1.104   4.257
   98POPC  H17S13085   5.871   1.216   4.182
   98POPC  C21813086   5.918   1.049   4.059
   98POPC  H18R13087   5.959   0.946   4.068
   98POPC  H18S13088   5.988   1.111   4.000
   98POPC  H18T13089   5.825   1.040   3.999
   98POPC   C3313090   5.804   0.415   5.776
   98POPC   H3X13091   5.695   0.403   5.791
   98POPC   H3Y13092   5.845   0.446   5.875
   98POPC   C3413093   5.870   0.280   5.739
   98POPC   H4X13094   5.911   0.236   5.833
   98POPC   H4Y13095   5.956   0.297   5.672
   98POPC   C3513096   5.780   0.171   5.675
   98POPC   H5X13097   5.692   0.151   5.741
   98POPC   H5Y13098   5.838   0.077   5.667
   98POPC   C3613099   5.731   0.207   5.535
   98POPC   H6X13100   5.819   0.240   5.474
   98POPC   H6Y13101   5.664   0.294   5.545
   98POPC   C3713102   5.655   0.095   5.462
   98POPC   H7X13103   5.574   0.058   5.529
   98POPC   H7Y13104   5.724   0.010   5.443
   98POPC   C3813105   5.593   0.142   5.330
   98POPC   H8X13106   5.516   0.219   5.349
   98POPC   H8Y13107   5.539   0.061   5.277
   98POPC   C3913108   5.694   0.205   5.235
   98POPC   H9X13109   5.745   0.292   5.281
   98POPC   H9Y13110   5.634   0.243   5.149
   98POPC  C31013111   5.804   0.113   5.186
   98POPC  H10X13112   5.754   0.023   5.144
   98POPC  H10Y13113   5.870   0.082   5.270
   98POPC  C31113114   5.883   0.178   5.075
   98POPC  H11X13115   5.962   0.106   5.042
   98POPC  H11Y13116   5.935   0.270   5.111
   98POPC  C31213117   5.792   0.212   4.957
   98POPC  H12X13118   5.727   0.300   4.977
   98POPC  H12Y13119   5.726   0.124   4.938
   98POPC  C31313120   5.875   0.239   4.835
   98POPC  H13X13121   5.960   0.166   4.838
   98POPC  H13Y13122   5.917   0.341   4.838
   98POPC  C31413123   5.801   0.214   4.704
   98POPC  H14X13124   5.729   0.296   4.683
   98POPC  H14Y13125   5.745   0.118   4.707
   98POPC  C31513126   5.909   0.205   4.598
   98POPC  H15X13127   5.924   0.101   4.562
   98POPC  H15Y13128   6.001   0.236   4.652
   98POPC  C31613129   5.904   0.307   4.488
   98POPC  H16X13130   5.800   0.322   4.455
   98POPC  H16Y13131   5.969   0.278   4.403
   98POPC  H16Z13132   5.945   0.400   4.531
   99POPC     N13133   4.220   9.370   6.266
   99POPC   C1213134   4.325   9.338   6.158
   99POPC  H12A13135   4.385   9.252   6.190
   99POPC  H12B13136   4.392   9.421   6.146
   99POPC   C1313137   4.130   9.250   6.283
   99POPC  H13A13138   4.048   9.267   6.351
   99POPC  H13B13139   4.092   9.222   6.185
   99POPC  H13C13140   4.185   9.161   6.312
   99POPC   C1413141   4.286   9.399   6.397
   99POPC  H14A13142   4.346   9.489   6.396
   99POPC  H14B13143   4.211   9.413   6.475
   99POPC  H14C13144   4.348   9.315   6.429
   99POPC   C1513145   4.134   9.485   6.220
   99POPC  H15A13146   4.078   9.457   6.132
   99POPC  H15B13147   4.190   9.572   6.191
   99POPC  H15C13148   4.063   9.513   6.298
   99POPC   C1113149   4.271   9.301   6.017
   99POPC  H11A13150   4.356   9.285   5.946
   99POPC  H11B13151   4.213   9.386   5.975
   99POPC     P13152   4.241   9.038   6.014
   99POPC   O1313153   4.189   8.964   6.133
   99POPC   O1413154   4.387   9.042   5.996
   99POPC   O1213155   4.187   9.187   6.022
   99POPC   O1113156   4.170   8.986   5.882
   99POPC    C113157   4.027   8.999   5.866
   99POPC    HA13158   3.982   9.075   5.934
   99POPC    HB13159   3.982   8.900   5.891
   99POPC    C213160   3.981   9.035   5.721
   99POPC    HS13161   3.872   9.023   5.715
   99POPC   O2113162   4.047   8.951   5.626
   99POPC   C2113163   3.983   8.879   5.537
   99POPC   O2213164   3.870   8.834   5.543
   99POPC   C2213165   4.083   8.865   5.422
   99POPC   H2R13166   4.027   8.870   5.327
   99POPC   H2S13167   4.131   8.766   5.431
   99POPC    C313168   4.015   9.183   5.684
   99POPC    HX13169   4.126   9.187   5.675
   99POPC    HY13170   3.987   9.251   5.768
   99POPC   O3113171   3.957   9.222   5.558
   99POPC   C3113172   3.852   9.302   5.557
   99POPC   O3213173   3.792   9.344   5.655
   99POPC   C3213174   3.818   9.337   5.411
   99POPC   H2X13175   3.730   9.405   5.411
   99POPC   H2Y13176   3.788   9.242   5.363
   99POPC   C2313177   4.192   8.977   5.429
   99POPC   H3R13178   4.254   8.961   5.520
   99POPC   H3S13179   4.147   9.078   5.435
   99POPC   C2413180   4.287   8.972   5.310
   99POPC   H4R13181   4.317   8.865   5.304
   99POPC   H4S13182   4.378   9.032   5.330
   99POPC   C2513183   4.223   9.014   5.177
   99POPC   H5R13184   4.112   9.009   5.182
   99POPC   H5S13185   4.254   8.938   5.102
   99POPC   C2613186   4.266   9.152   5.125
   99POPC   H6R13187   4.376   9.165   5.126
   99POPC   H6S13188   4.225   9.230   5.194
   99POPC   C2713189   4.210   9.180   4.984
   99POPC   H7R13190   4.231   9.285   4.954
   99POPC   H7S13191   4.102   9.171   5.001
   99POPC   C2813192   4.241   9.080   4.869
   99POPC   H8R13193   4.143   9.059   4.819
   99POPC   H8S13194   4.277   8.983   4.908
   99POPC   C2913195   4.334   9.135   4.766
   99POPC   H9113196   4.315   9.241   4.740
   99POPC  C21013197   4.433   9.072   4.701
   99POPC  H10113198   4.493   9.134   4.633
   99POPC  C21113199   4.486   8.929   4.707
   99POPC  H11R13200   4.530   8.912   4.806
   99POPC  H11S13201   4.568   8.920   4.635
   99POPC  C21213202   4.400   8.806   4.672
   99POPC  H12R13203   4.296   8.839   4.685
   99POPC  H12S13204   4.421   8.729   4.750
   99POPC  C21313205   4.435   8.739   4.536
   99POPC  H13R13206   4.503   8.653   4.559
   99POPC  H13S13207   4.496   8.807   4.473
   99POPC  C21413208   4.321   8.686   4.447
   99POPC  H14R13209   4.339   8.580   4.423
   99POPC  H14S13210   4.327   8.735   4.347
   99POPC  C21513211   4.177   8.698   4.499
   99POPC  H15R13212   4.168   8.726   4.605
   99POPC  H15S13213   4.129   8.598   4.496
   99POPC  C21613214   4.098   8.798   4.416
   99POPC  H16R13215   4.056   8.748   4.325
   99POPC  H16S13216   4.170   8.875   4.381
   99POPC  C21713217   3.990   8.869   4.497
   99POPC  H17R13218   4.040   8.926   4.579
   99POPC  H17S13219   3.930   8.789   4.545
   99POPC  C21813220   3.901   8.962   4.416
   99POPC  H18R13221   3.809   8.987   4.474
   99POPC  H18S13222   3.870   8.915   4.320
   99POPC  H18T13223   3.954   9.057   4.393
   99POPC   C3313224   3.934   9.400   5.330
   99POPC   H3X13225   4.026   9.336   5.339
   99POPC   H3Y13226   3.959   9.501   5.369
   99POPC   C3413227   3.905   9.415   5.179
   99POPC   H4X13228   4.000   9.444   5.129
   99POPC   H4Y13229   3.831   9.497   5.162
   99POPC   C3513230   3.853   9.286   5.116
   99POPC   H5X13231   3.745   9.272   5.137
   99POPC   H5Y13232   3.908   9.204   5.167
   99POPC   C3613233   3.884   9.269   4.967
   99POPC   H6X13234   3.901   9.159   4.951
   99POPC   H6Y13235   3.979   9.322   4.943
   99POPC   C3713236   3.784   9.310   4.860
   99POPC   H7X13237   3.784   9.421   4.852
   99POPC   H7Y13238   3.680   9.281   4.882
   99POPC   C3813239   3.827   9.242   4.728
   99POPC   H8X13240   3.792   9.136   4.730
   99POPC   H8Y13241   3.938   9.240   4.724
   99POPC   C3913242   3.776   9.309   4.601
   99POPC   H9X13243   3.666   9.319   4.610
   99POPC   H9Y13244   3.796   9.244   4.513
   99POPC  C31013245   3.838   9.448   4.577
   99POPC  H10X13246   3.847   9.503   4.672
   99POPC  H10Y13247   3.770   9.504   4.509
   99POPC  C31113248   3.972   9.449   4.506
   99POPC  H11X13249   4.028   9.358   4.538
   99POPC  H11Y13250   4.032   9.537   4.538
   99POPC  C31213251   3.954   9.455   4.353
   99POPC  H12X13252   3.938   9.560   4.320
   99POPC  H12Y13253   3.865   9.395   4.325
   99POPC  C31313254   4.075   9.394   4.284
   99POPC  H13X13255   4.047   9.336   4.194
   99POPC  H13Y13256   4.114   9.323   4.359
   99POPC  C31413257   4.183   9.498   4.250
   99POPC  H14X13258   4.185   9.574   4.331
   99POPC  H14Y13259   4.156   9.549   4.155
   99POPC  C31513260   4.324   9.439   4.241
   99POPC  H15X13261   4.328   9.362   4.161
   99POPC  H15Y13262   4.349   9.393   4.339
   99POPC  C31613263   4.430   9.543   4.218
   99POPC  H16X13264   4.433   9.610   4.307
   99POPC  H16Y13265   4.408   9.604   4.128
   99POPC  H16Z13266   4.530   9.496   4.207
  100POPC     N13267   9.027   3.421   6.207
  100POPC   C1213268   8.943   3.332   6.117
  100POPC  H12A13269   8.953   3.368   6.014
  100POPC  H12B13270   8.839   3.341   6.144
  100POPC   C1313271   9.159   3.443   6.138
  100POPC  H13A13272   9.234   3.475   6.209
  100POPC  H13B13273   9.191   3.346   6.099
  100POPC  H13C13274   9.152   3.513   6.057
  100POPC   C1413275   8.965   3.554   6.233
  100POPC  H14A13276   9.037   3.624   6.274
  100POPC  H14B13277   8.930   3.602   6.143
  100POPC  H14C13278   8.883   3.548   6.304
  100POPC   C1513279   9.057   3.354   6.336
  100POPC  H15A13280   9.118   3.266   6.316
  100POPC  H15B13281   8.968   3.323   6.388
  100POPC  H15C13282   9.114   3.421   6.399
  100POPC   C1113283   8.985   3.182   6.112
  100POPC  H11A13284   8.913   3.127   6.047
  100POPC  H11B13285   8.979   3.137   6.213
  100POPC     P13286   9.199   3.035   6.058
  100POPC   O1313287   9.115   2.924   6.108
  100POPC   O1413288   9.326   3.058   6.131
  100POPC   O1213289   9.116   3.170   6.059
  100POPC   O1113290   9.234   3.010   5.906
  100POPC    C113291   9.321   3.093   5.829
  100POPC    HA13292   9.362   3.030   5.747
  100POPC    HB13293   9.407   3.131   5.888
  100POPC    C213294   9.247   3.212   5.761
  100POPC    HS13295   9.232   3.289   5.840
  100POPC   O2113296   9.123   3.164   5.708
  100POPC   C2113297   9.017   3.237   5.729
  100POPC   O2213298   9.011   3.345   5.787
  100POPC   C2213299   8.898   3.158   5.675
  100POPC   H2R13300   8.844   3.120   5.764
  100POPC   H2S13301   8.936   3.071   5.619
  100POPC    C313302   9.330   3.272   5.645
  100POPC    HX13303   9.426   3.304   5.690
  100POPC    HY13304   9.278   3.362   5.603
  100POPC   O3113305   9.359   3.174   5.544
  100POPC   C3113306   9.270   3.165   5.446
  100POPC   O3213307   9.186   3.248   5.417
  100POPC   C3213308   9.281   3.026   5.384
  100POPC   H2X13309   9.183   2.978   5.405
  100POPC   H2Y13310   9.359   2.967   5.436
  100POPC   C2313311   8.804   3.240   5.584
  100POPC   H3R13312   8.859   3.278   5.495
  100POPC   H3S13313   8.766   3.329   5.638
  100POPC   C2413314   8.684   3.155   5.537
  100POPC   H4R13315   8.618   3.218   5.474
  100POPC   H4S13316   8.624   3.123   5.625
  100POPC   C2513317   8.720   3.028   5.461
  100POPC   H5R13318   8.628   2.984   5.416
  100POPC   H5S13319   8.761   2.951   5.531
  100POPC   C2613320   8.822   3.054   5.351
  100POPC   H6R13321   8.920   3.083   5.395
  100POPC   H6S13322   8.786   3.138   5.288
  100POPC   C2713323   8.841   2.930   5.266
  100POPC   H7R13324   8.744   2.907   5.218
  100POPC   H7S13325   8.865   2.843   5.331
  100POPC   C2813326   8.952   2.945   5.163
  100POPC   H8R13327   8.944   2.855   5.098
  100POPC   H8S13328   9.048   2.938   5.218
  100POPC   C2913329   8.962   3.072   5.083
  100POPC   H9113330   8.976   3.164   5.142
  100POPC  C21013331   8.964   3.079   4.950
  100POPC  H10113332   8.979   3.179   4.904
  100POPC  C21113333   8.955   2.964   4.852
  100POPC  H11R13334   8.884   2.987   4.769
  100POPC  H11S13335   8.913   2.874   4.901
  100POPC  C21213336   9.090   2.928   4.790
  100POPC  H12R13337   9.078   2.837   4.727
  100POPC  H12S13338   9.163   2.905   4.871
  100POPC  C21313339   9.144   3.042   4.703
  100POPC  H13R13340   9.144   3.133   4.767
  100POPC  H13S13341   9.074   3.060   4.617
  100POPC  C21413342   9.286   3.025   4.651
  100POPC  H14R13343   9.358   3.012   4.735
  100POPC  H14S13344   9.313   3.120   4.599
  100POPC  C21513345   9.299   2.913   4.548
  100POPC  H15R13346   9.202   2.903   4.497
  100POPC  H15S13347   9.317   2.816   4.598
  100POPC  C21613348   9.409   2.944   4.444
  100POPC  H16R13349   9.500   2.973   4.501
  100POPC  H16S13350   9.374   3.032   4.387
  100POPC  C21713351   9.442   2.830   4.338
  100POPC  H17R13352   9.332   2.818   4.354
  100POPC  H17S13353   9.528   2.901   4.323
  100POPC  C21813354   9.414   2.839   4.183
  100POPC  H18R13355   9.323   2.782   4.155
  100POPC  H18S13356   9.498   2.796   4.126
  100POPC  H18T13357   9.401   2.945   4.153
  100POPC   C3313358   9.308   3.027   5.232
  100POPC   H3X13359   9.255   3.111   5.183
  100POPC   H3Y13360   9.264   2.934   5.188
  100POPC   C3413361   9.457   3.024   5.199
  100POPC   H4X13362   9.470   2.989   5.094
  100POPC   H4Y13363   9.508   2.949   5.263
  100POPC   C3513364   9.527   3.160   5.215
  100POPC   H5X13365   9.634   3.148   5.187
  100POPC   H5Y13366   9.523   3.193   5.321
  100POPC   C3613367   9.466   3.270   5.126
  100POPC   H6X13368   9.528   3.362   5.134
  100POPC   H6Y13369   9.365   3.296   5.163
  100POPC   C3713370   9.458   3.227   4.979
  100POPC   H7X13371   9.385   3.144   4.967
  100POPC   H7Y13372   9.557   3.190   4.946
  100POPC   C3813373   9.417   3.341   4.887
  100POPC   H8X13374   9.429   3.304   4.783
  100POPC   H8Y13375   9.486   3.427   4.901
  100POPC   C3913376   9.273   3.383   4.913
  100POPC   H9X13377   9.269   3.443   5.007
  100POPC   H9Y13378   9.208   3.294   4.927
  100POPC  C31013379   9.220   3.466   4.797
  100POPC  H10X13380   9.291   3.549   4.777
  100POPC  H10Y13381   9.123   3.512   4.827
  100POPC  C31113382   9.199   3.385   4.667
  100POPC  H11X13383   9.122   3.308   4.683
  100POPC  H11Y13384   9.292   3.336   4.632
  100POPC  C31213385   9.147   3.480   4.561
  100POPC  H12X13386   9.225   3.559   4.546
  100POPC  H12Y13387   9.058   3.525   4.610
  100POPC  C31313388   9.099   3.436   4.424
  100POPC  H13X13389   9.177   3.462   4.349
  100POPC  H13Y13390   9.011   3.502   4.404
  100POPC  C31413391   9.050   3.294   4.395
  100POPC  H14X13392   8.980   3.253   4.470
  100POPC  H14Y13393   9.135   3.223   4.394
  100POPC  C31513394   8.980   3.301   4.258
  100POPC  H15X13395   9.042   3.246   4.187
  100POPC  H15Y13396   8.981   3.407   4.221
  100POPC  C31613397   8.835   3.254   4.254
  100POPC  H16X13398   8.827   3.148   4.286
  100POPC  H16Y13399   8.795   3.262   4.150
  100POPC  H16Z13400   8.770   3.315   4.320
  101POPC     N13401   0.735   7.002   6.334
  101POPC   C1213402   0.821   7.125   6.308
  101POPC  H12A13403   0.889   7.139   6.390
  101POPC  H12B13404   0.758   7.214   6.307
  101POPC   C1313405   0.818   6.881   6.304
  101POPC  H13A13406   0.910   6.882   6.362
  101POPC  H13B13407   0.766   6.790   6.327
  101POPC  H13C13408   0.846   6.885   6.199
  101POPC   C1413409   0.694   7.002   6.477
  101POPC  H14A13410   0.781   6.987   6.541
  101POPC  H14B13411   0.651   7.097   6.504
  101POPC  H14C13412   0.623   6.923   6.496
  101POPC   C1513413   0.618   7.010   6.242
  101POPC  H15A13414   0.657   7.027   6.141
  101POPC  H15B13415   0.558   7.097   6.263
  101POPC  H15C13416   0.558   6.921   6.240
  101POPC   C1113417   0.900   7.126   6.177
  101POPC  H11A13418   0.966   7.039   6.166
  101POPC  H11B13419   0.969   7.215   6.177
  101POPC     P13420   0.765   7.266   6.013
  101POPC   O1313421   0.736   7.353   6.130
  101POPC   O1413422   0.657   7.243   5.916
  101POPC   O1213423   0.809   7.124   6.067
  101POPC   O1113424   0.899   7.313   5.940
  101POPC    C113425   0.994   7.213   5.895
  101POPC    HA13426   0.950   7.110   5.893
  101POPC    HB13427   1.081   7.211   5.963
  101POPC    C213428   1.040   7.236   5.750
  101POPC    HS13429   1.123   7.310   5.753
  101POPC   O2113430   0.927   7.280   5.674
  101POPC   C2113431   0.936   7.401   5.627
  101POPC   O2213432   1.027   7.480   5.645
  101POPC   C2213433   0.817   7.422   5.534
  101POPC   H2R13434   0.729   7.431   5.601
  101POPC   H2S13435   0.805   7.331   5.471
  101POPC    C313436   1.093   7.107   5.681
  101POPC    HX13437   1.025   7.022   5.708
  101POPC    HY13438   1.193   7.084   5.723
  101POPC   O3113439   1.089   7.123   5.537
  101POPC   C3113440   1.206   7.140   5.478
  101POPC   O3213441   1.314   7.112   5.527
  101POPC   C3213442   1.192   7.220   5.348
  101POPC   H2X13443   1.281   7.200   5.286
  101POPC   H2Y13444   1.198   7.324   5.388
  101POPC   C2313445   0.837   7.548   5.446
  101POPC   H3R13446   0.872   7.631   5.511
  101POPC   H3S13447   0.742   7.580   5.401
  101POPC   C2413448   0.939   7.523   5.336
  101POPC   H4R13449   0.891   7.455   5.262
  101POPC   H4S13450   1.025   7.471   5.384
  101POPC   C2513451   0.997   7.647   5.265
  101POPC   H5R13452   1.037   7.716   5.343
  101POPC   H5S13453   0.914   7.697   5.213
  101POPC   C2613454   1.111   7.616   5.165
  101POPC   H6R13455   1.194   7.569   5.217
  101POPC   H6S13456   1.146   7.714   5.127
  101POPC   C2713457   1.062   7.531   5.047
  101POPC   H7R13458   0.998   7.606   4.999
  101POPC   H7S13459   0.996   7.451   5.082
  101POPC   C2813460   1.149   7.477   4.930
  101POPC   H8R13461   1.134   7.543   4.842
  101POPC   H8S13462   1.102   7.381   4.899
  101POPC   C2913463   1.296   7.457   4.949
  101POPC   H9113464   1.342   7.517   5.028
  101POPC  C21013465   1.375   7.381   4.870
  101POPC  H10113466   1.481   7.368   4.899
  101POPC  C21113467   1.330   7.302   4.750
  101POPC  H11R13468   1.225   7.326   4.720
  101POPC  H11S13469   1.330   7.194   4.778
  101POPC  C21213470   1.421   7.317   4.626
  101POPC  H12R13471   1.422   7.218   4.576
  101POPC  H12S13472   1.526   7.336   4.655
  101POPC  C21313473   1.377   7.419   4.518
  101POPC  H13R13474   1.444   7.400   4.431
  101POPC  H13S13475   1.396   7.523   4.551
  101POPC  C21413476   1.232   7.408   4.467
  101POPC  H14R13477   1.161   7.461   4.534
  101POPC  H14S13478   1.202   7.301   4.467
  101POPC  C21513479   1.219   7.456   4.322
  101POPC  H15R13480   1.301   7.406   4.264
  101POPC  H15S13481   1.237   7.564   4.314
  101POPC  C21613482   1.086   7.416   4.254
  101POPC  H16R13483   1.077   7.306   4.262
  101POPC  H16S13484   1.094   7.440   4.146
  101POPC  C21713485   0.960   7.485   4.309
  101POPC  H17R13486   0.973   7.595   4.301
  101POPC  H17S13487   0.948   7.465   4.417
  101POPC  C21813488   0.832   7.449   4.232
  101POPC  H18R13489   0.778   7.362   4.275
  101POPC  H18S13490   0.857   7.423   4.127
  101POPC  H18T13491   0.759   7.533   4.232
  101POPC   C3313492   1.063   7.218   5.261
  101POPC   H3X13493   1.046   7.326   5.250
  101POPC   H3Y13494   0.974   7.180   5.313
  101POPC   C3413495   1.076   7.187   5.110
  101POPC   H4X13496   1.177   7.218   5.074
  101POPC   H4Y13497   1.001   7.251   5.058
  101POPC   C3513498   1.041   7.048   5.061
  101POPC   H5X13499   1.121   6.978   5.085
  101POPC   H5Y13500   1.034   7.051   4.949
  101POPC   C3613501   0.909   6.995   5.116
  101POPC   H6X13502   0.827   7.047   5.061
  101POPC   H6Y13503   0.896   7.018   5.224
  101POPC   C3713504   0.902   6.843   5.103
  101POPC   H7X13505   0.969   6.798   5.179
  101POPC   H7Y13506   0.941   6.814   5.003
  101POPC   C3813507   0.760   6.787   5.121
  101POPC   H8X13508   0.728   6.800   5.227
  101POPC   H8Y13509   0.762   6.678   5.098
  101POPC   C3913510   0.655   6.855   5.031
  101POPC   H9X13511   0.637   6.958   5.070
  101POPC   H9Y13512   0.558   6.801   5.039
  101POPC  C31013513   0.694   6.866   4.883
  101POPC  H10X13514   0.691   6.765   4.836
  101POPC  H10Y13515   0.796   6.906   4.870
  101POPC  C31113516   0.597   6.961   4.812
  101POPC  H11X13517   0.612   7.065   4.850
  101POPC  H11Y13518   0.493   6.931   4.836
  101POPC  C31213519   0.612   6.958   4.660
  101POPC  H12X13520   0.532   7.020   4.614
  101POPC  H12Y13521   0.602   6.852   4.627
  101POPC  C31313522   0.743   7.011   4.604
  101POPC  H13X13523   0.728   7.004   4.493
  101POPC  H13Y13524   0.826   6.943   4.631
  101POPC  C31413525   0.776   7.156   4.643
  101POPC  H14X13526   0.863   7.157   4.712
  101POPC  H14Y13527   0.691   7.202   4.697
  101POPC  C31513528   0.807   7.242   4.520
  101POPC  H15X13529   0.848   7.339   4.555
  101POPC  H15Y13530   0.711   7.264   4.468
  101POPC  C31613531   0.906   7.179   4.421
  101POPC  H16X13532   0.900   7.068   4.417
  101POPC  H16Y13533   1.009   7.206   4.449
  101POPC  H16Z13534   0.890   7.210   4.316
  102POPC     N13535   2.743   8.755   6.095
  102POPC   C1213536   2.708   8.878   6.015
  102POPC  H12A13537   2.600   8.894   6.021
  102POPC  H12B13538   2.733   8.863   5.912
  102POPC   C1313539   2.890   8.727   6.086
  102POPC  H13A13540   2.944   8.819   6.111
  102POPC  H13B13541   2.922   8.654   6.158
  102POPC  H13C13542   2.918   8.696   5.986
  102POPC   C1413543   2.710   8.788   6.238
  102POPC  H14A13544   2.734   8.710   6.309
  102POPC  H14B13545   2.762   8.880   6.266
  102POPC  H14C13546   2.605   8.813   6.248
  102POPC   C1513547   2.659   8.640   6.048
  102POPC  H15A13548   2.692   8.602   5.952
  102POPC  H15B13549   2.555   8.669   6.033
  102POPC  H15C13550   2.657   8.560   6.120
  102POPC   C1113551   2.767   9.015   6.056
  102POPC  H11A13552   2.743   9.092   5.979
  102POPC  H11B13553   2.876   8.999   6.054
  102POPC     P13554   2.587   9.120   6.219
  102POPC   O1313555   2.567   9.257   6.168
  102POPC   O1413556   2.556   9.094   6.361
  102POPC   O1213557   2.730   9.061   6.187
  102POPC   O1113558   2.500   9.018   6.129
  102POPC    C113559   2.425   9.071   6.019
  102POPC    HA13560   2.460   9.171   5.984
  102POPC    HB13561   2.320   9.083   6.055
  102POPC    C213562   2.422   8.987   5.886
  102POPC    HS13563   2.393   8.882   5.911
  102POPC   O2113564   2.552   8.992   5.821
  102POPC   C2113565   2.572   8.907   5.719
  102POPC   O2213566   2.488   8.831   5.675
  102POPC   C2213567   2.718   8.909   5.670
  102POPC   H2R13568   2.780   8.955   5.750
  102POPC   H2S13569   2.724   8.975   5.581
  102POPC    C313570   2.307   9.053   5.803
  102POPC    HX13571   2.333   9.160   5.785
  102POPC    HY13572   2.220   9.051   5.872
  102POPC   O3113573   2.266   8.980   5.687
  102POPC   C3113574   2.299   9.035   5.570
  102POPC   O3213575   2.348   9.145   5.555
  102POPC   C3213576   2.264   8.934   5.463
  102POPC   H2X13577   2.154   8.916   5.463
  102POPC   H2Y13578   2.318   8.843   5.495
  102POPC   C2313579   2.772   8.767   5.636
  102POPC   H3R13580   2.736   8.694   5.712
  102POPC   H3S13581   2.883   8.768   5.642
  102POPC   C2413582   2.732   8.717   5.496
  102POPC   H4R13583   2.639   8.769   5.464
  102POPC   H4S13584   2.709   8.608   5.500
  102POPC   C2513585   2.841   8.737   5.389
  102POPC   H5R13586   2.924   8.664   5.402
  102POPC   H5S13587   2.886   8.838   5.404
  102POPC   C2613588   2.788   8.728   5.244
  102POPC   H6R13589   2.680   8.752   5.241
  102POPC   H6S13590   2.798   8.622   5.210
  102POPC   C2713591   2.861   8.822   5.146
  102POPC   H7R13592   2.881   8.768   5.051
  102POPC   H7S13593   2.961   8.848   5.189
  102POPC   C2813594   2.785   8.953   5.113
  102POPC   H8R13595   2.702   8.933   5.043
  102POPC   H8S13596   2.856   9.018   5.059
  102POPC   C2913597   2.734   9.022   5.238
  102POPC   H9113598   2.791   8.994   5.327
  102POPC  C21013599   2.636   9.111   5.256
  102POPC  H10113600   2.622   9.149   5.358
  102POPC  C21113601   2.540   9.175   5.159
  102POPC  H11R13602   2.451   9.210   5.217
  102POPC  H11S13603   2.501   9.107   5.081
  102POPC  C21213604   2.598   9.297   5.088
  102POPC  H12R13605   2.659   9.354   5.162
  102POPC  H12S13606   2.510   9.358   5.060
  102POPC  C21313607   2.681   9.268   4.962
  102POPC  H13R13608   2.764   9.200   4.988
  102POPC  H13S13609   2.726   9.364   4.927
  102POPC  C21413610   2.597   9.208   4.849
  102POPC  H14R13611   2.514   9.277   4.824
  102POPC  H14S13612   2.553   9.112   4.883
  102POPC  C21513613   2.675   9.177   4.720
  102POPC  H15R13614   2.765   9.116   4.744
  102POPC  H15S13615   2.709   9.272   4.673
  102POPC  C21613616   2.584   9.099   4.624
  102POPC  H16R13617   2.489   9.156   4.613
  102POPC  H16S13618   2.559   9.001   4.669
  102POPC  C21713619   2.642   9.077   4.484
  102POPC  H17R13620   2.727   9.005   4.492
  102POPC  H17S13621   2.682   9.175   4.447
  102POPC  C21813622   2.541   9.026   4.382
  102POPC  H18R13623   2.513   8.921   4.404
  102POPC  H18S13624   2.584   9.030   4.280
  102POPC  H18T13625   2.450   9.089   4.384
  102POPC   C3313626   2.314   8.966   5.321
  102POPC   H3X13627   2.420   8.999   5.331
  102POPC   H3Y13628   2.256   9.049   5.275
  102POPC   C3413629   2.316   8.842   5.231
  102POPC   H4X13630   2.218   8.790   5.231
  102POPC   H4Y13631   2.392   8.771   5.271
  102POPC   C3513632   2.358   8.875   5.089
  102POPC   H5X13633   2.457   8.924   5.103
  102POPC   H5Y13634   2.289   8.947   5.041
  102POPC   C3613635   2.387   8.755   4.998
  102POPC   H6X13636   2.313   8.752   4.916
  102POPC   H6Y13637   2.379   8.660   5.055
  102POPC   C3713638   2.529   8.770   4.941
  102POPC   H7X13639   2.601   8.745   5.022
  102POPC   H7Y13640   2.545   8.876   4.911
  102POPC   C3813641   2.556   8.684   4.819
  102POPC   H8X13642   2.495   8.723   4.734
  102POPC   H8Y13643   2.522   8.581   4.845
  102POPC   C3913644   2.704   8.675   4.778
  102POPC   H9X13645   2.720   8.569   4.746
  102POPC   H9Y13646   2.769   8.692   4.866
  102POPC  C31013647   2.748   8.764   4.660
  102POPC  H10X13648   2.792   8.859   4.700
  102POPC  H10Y13649   2.660   8.792   4.598
  102POPC  C31113650   2.850   8.689   4.573
  102POPC  H11X13651   2.799   8.600   4.529
  102POPC  H11Y13652   2.929   8.651   4.642
  102POPC  C31213653   2.922   8.769   4.463
  102POPC  H12X13654   3.031   8.747   4.470
  102POPC  H12Y13655   2.910   8.877   4.485
  102POPC  C31313656   2.881   8.740   4.316
  102POPC  H13X13657   2.918   8.641   4.284
  102POPC  H13Y13658   2.932   8.814   4.251
  102POPC  C31413659   2.730   8.748   4.289
  102POPC  H14X13660   2.704   8.855   4.299
  102POPC  H14Y13661   2.672   8.691   4.365
  102POPC  C31513662   2.688   8.701   4.149
  102POPC  H15X13663   2.687   8.590   4.146
  102POPC  H15Y13664   2.763   8.736   4.075
  102POPC  C31613665   2.550   8.754   4.108
  102POPC  H16X13666   2.548   8.865   4.115
  102POPC  H16Y13667   2.471   8.714   4.176
  102POPC  H16Z13668   2.524   8.725   4.004
  103POPC     N13669   3.425   0.268   5.958
  103POPC   C1213670   3.391   0.340   6.088
  103POPC  H12A13671   3.380   0.445   6.066
  103POPC  H12B13672   3.474   0.328   6.157
  103POPC   C1313673   3.296   0.244   5.887
  103POPC  H13A13674   3.241   0.336   5.875
  103POPC  H13B13675   3.310   0.197   5.791
  103POPC  H13C13676   3.234   0.178   5.949
  103POPC   C1413677   3.516   0.346   5.868
  103POPC  H14A13678   3.473   0.440   5.834
  103POPC  H14B13679   3.611   0.370   5.913
  103POPC  H14C13680   3.537   0.290   5.776
  103POPC   C1513681   3.496   0.140   5.993
  103POPC  H15A13682   3.576   0.158   6.063
  103POPC  H15B13683   3.537   0.094   5.904
  103POPC  H15C13684   3.425   0.073   6.043
  103POPC   C1113685   3.260   0.295   6.160
  103POPC  H11A13686   3.173   0.334   6.103
  103POPC  H11B13687   3.260   0.346   6.259
  103POPC     P13688   3.174   0.087   6.296
  103POPC   O1313689   3.214   0.158   6.418
  103POPC   O1413690   3.203  -0.058   6.302
  103POPC   O1213691   3.249   0.153   6.172
  103POPC   O1113692   3.022   0.123   6.272
  103POPC    C113693   2.913   0.032   6.269
  103POPC    HA13694   2.826   0.078   6.321
  103POPC    HB13695   2.935  -0.063   6.321
  103POPC    C213696   2.869  -0.003   6.124
  103POPC    HS13697   2.792  -0.080   6.127
  103POPC   O2113698   2.976  -0.050   6.044
  103POPC   C2113699   3.035  -0.162   6.080
  103POPC   O2213700   3.019  -0.228   6.180
  103POPC   C2213701   3.122  -0.210   5.965
  103POPC   H2R13702   3.054  -0.253   5.889
  103POPC   H2S13703   3.189  -0.289   6.004
  103POPC    C313704   2.805   0.120   6.056
  103POPC    HX13705   2.880   0.198   6.081
  103POPC    HY13706   2.708   0.138   6.107
  103POPC   O3113707   2.785   0.111   5.914
  103POPC   C3113708   2.863   0.184   5.835
  103POPC   O3213709   2.937   0.275   5.870
  103POPC   C3213710   2.855   0.126   5.695
  103POPC   H2X13711   2.922   0.186   5.628
  103POPC   H2Y13712   2.751   0.134   5.658
  103POPC   C2313713   3.203  -0.094   5.906
  103POPC   H3R13714   3.286  -0.068   5.975
  103POPC   H3S13715   3.140  -0.003   5.893
  103POPC   C2413716   3.256  -0.132   5.768
  103POPC   H4R13717   3.174  -0.154   5.697
  103POPC   H4S13718   3.315  -0.225   5.781
  103POPC   C2513719   3.348  -0.026   5.712
  103POPC   H5R13720   3.435  -0.074   5.665
  103POPC   H5S13721   3.393   0.032   5.793
  103POPC   C2613722   3.292   0.062   5.601
  103POPC   H6R13723   3.218   0.135   5.639
  103POPC   H6S13724   3.242  -0.002   5.525
  103POPC   C2713725   3.414   0.129   5.537
  103POPC   H7R13726   3.481   0.048   5.499
  103POPC   H7S13727   3.470   0.185   5.615
  103POPC   C2813728   3.378   0.222   5.422
  103POPC   H8R13729   3.316   0.305   5.462
  103POPC   H8S13730   3.313   0.166   5.351
  103POPC   C2913731   3.507   0.272   5.364
  103POPC   H9113732   3.575   0.320   5.436
  103POPC  C21013733   3.542   0.266   5.234
  103POPC  H10113734   3.639   0.308   5.203
  103POPC  C21113735   3.457   0.208   5.124
  103POPC  H11R13736   3.382   0.136   5.163
  103POPC  H11S13737   3.518   0.151   5.051
  103POPC  C21213738   3.381   0.324   5.057
  103POPC  H12R13739   3.333   0.389   5.133
  103POPC  H12S13740   3.301   0.281   4.995
  103POPC  C21313741   3.466   0.407   4.960
  103POPC  H13R13742   3.563   0.434   5.005
  103POPC  H13S13743   3.411   0.500   4.934
  103POPC  C21413744   3.486   0.325   4.833
  103POPC  H14R13745   3.388   0.282   4.800
  103POPC  H14S13746   3.552   0.239   4.858
  103POPC  C21513747   3.546   0.402   4.716
  103POPC  H15R13748   3.629   0.464   4.757
  103POPC  H15S13749   3.473   0.469   4.667
  103POPC  C21613750   3.606   0.302   4.617
  103POPC  H16R13751   3.643   0.215   4.675
  103POPC  H16S13752   3.694   0.350   4.569
  103POPC  C21713753   3.514   0.249   4.507
  103POPC  H17R13754   3.575   0.212   4.422
  103POPC  H17S13755   3.459   0.336   4.468
  103POPC  C21813756   3.420   0.137   4.551
  103POPC  H18R13757   3.344   0.173   4.624
  103POPC  H18S13758   3.475   0.053   4.597
  103POPC  H18T13759   3.365   0.097   4.462
  103POPC   C3313760   2.900  -0.021   5.700
  103POPC   H3X13761   2.854  -0.074   5.787
  103POPC   H3Y13762   3.010  -0.023   5.715
  103POPC   C3413763   2.863  -0.104   5.577
  103POPC   H4X13764   2.752  -0.107   5.566
  103POPC   H4Y13765   2.897  -0.208   5.595
  103POPC   C3513766   2.926  -0.053   5.447
  103POPC   H5X13767   2.993   0.034   5.468
  103POPC   H5Y13768   2.844  -0.017   5.381
  103POPC   C3613769   3.008  -0.160   5.375
  103POPC   H6X13770   2.966  -0.261   5.397
  103POPC   H6Y13771   3.113  -0.160   5.410
  103POPC   C3713772   3.004  -0.140   5.223
  103POPC   H7X13773   2.897  -0.133   5.192
  103POPC   H7Y13774   3.047  -0.229   5.171
  103POPC   C3813775   3.072  -0.012   5.177
  103POPC   H8X13776   3.182  -0.021   5.188
  103POPC   H8Y13777   3.038   0.073   5.241
  103POPC   C3913778   3.034   0.019   5.033
  103POPC   H9X13779   2.926  -0.005   5.018
  103POPC   H9Y13780   3.092  -0.048   4.965
  103POPC  C31013781   3.052   0.165   4.993
  103POPC  H10X13782   3.133   0.207   5.056
  103POPC  H10Y13783   2.960   0.222   5.018
  103POPC  C31113784   3.084   0.179   4.843
  103POPC  H11X13785   3.180   0.129   4.822
  103POPC  H11Y13786   3.097   0.287   4.816
  103POPC  C31213787   2.972   0.119   4.755
  103POPC  H12X13788   2.888   0.191   4.754
  103POPC  H12Y13789   2.934   0.025   4.800
  103POPC  C31313790   3.011   0.084   4.610
  103POPC  H13X13791   3.060   0.173   4.565
  103POPC  H13Y13792   2.918   0.065   4.553
  103POPC  C31413793   3.102  -0.039   4.597
  103POPC  H14X13794   3.158  -0.054   4.692
  103POPC  H14Y13795   3.179  -0.020   4.520
  103POPC  C31513796   3.033  -0.171   4.559
  103POPC  H15X13797   2.971  -0.207   4.644
  103POPC  H15Y13798   3.114  -0.244   4.542
  103POPC  C31613799   2.956  -0.183   4.427
  103POPC  H16X13800   2.909  -0.282   4.420
  103POPC  H16Y13801   3.025  -0.179   4.341
  103POPC  H16Z13802   2.878  -0.106   4.418
  104POPC     N13803   2.752   0.522   6.108
  104POPC   C1213804   2.607   0.558   6.126
  104POPC  H12A13805   2.548   0.505   6.050
  104POPC  H12B13806   2.595   0.663   6.106
  104POPC   C1313807   2.763   0.389   6.171
  104POPC  H13A13808   2.739   0.393   6.277
  104POPC  H13B13809   2.685   0.325   6.131
  104POPC  H13C13810   2.860   0.343   6.161
  104POPC   C1413811   2.784   0.518   5.962
  104POPC  H14A13812   2.868   0.452   5.940
  104POPC  H14B13813   2.700   0.481   5.903
  104POPC  H14C13814   2.807   0.616   5.923
  104POPC   C1513815   2.849   0.608   6.181
  104POPC  H15A13816   2.834   0.712   6.159
  104POPC  H15B13817   2.951   0.579   6.158
  104POPC  H15C13818   2.841   0.591   6.289
  104POPC   C1113819   2.538   0.518   6.259
  104POPC  H11A13820   2.449   0.583   6.276
  104POPC  H11B13821   2.608   0.539   6.344
  104POPC     P13822   2.366   0.337   6.185
  104POPC   O1313823   2.258   0.427   6.229
  104POPC   O1413824   2.341   0.192   6.204
  104POPC   O1213825   2.500   0.379   6.260
  104POPC   O1113826   2.400   0.372   6.034
  104POPC    C113827   2.478   0.290   5.948
  104POPC    HA13828   2.501   0.189   5.990
  104POPC    HB13829   2.576   0.339   5.930
  104POPC    C213830   2.413   0.271   5.806
  104POPC    HS13831   2.496   0.260   5.733
  104POPC   O2113832   2.325   0.377   5.763
  104POPC   C2113833   2.378   0.497   5.748
  104POPC   O2213834   2.495   0.528   5.767
  104POPC   C2213835   2.270   0.594   5.696
  104POPC   H2R13836   2.294   0.695   5.732
  104POPC   H2S13837   2.172   0.564   5.740
  104POPC    C313838   2.333   0.137   5.803
  104POPC    HX13839   2.261   0.144   5.888
  104POPC    HY13840   2.402   0.052   5.825
  104POPC   O3113841   2.258   0.117   5.681
  104POPC   C3113842   2.339   0.089   5.578
  104POPC   O3213843   2.459   0.073   5.587
  104POPC   C3213844   2.258   0.081   5.448
  104POPC   H2X13845   2.152   0.059   5.473
  104POPC   H2Y13846   2.299  -0.004   5.389
  104POPC   C2313847   2.258   0.597   5.540
  104POPC   H3R13848   2.247   0.492   5.504
  104POPC   H3S13849   2.352   0.637   5.496
  104POPC   C2413850   2.137   0.676   5.488
  104POPC   H4R13851   2.088   0.729   5.573
  104POPC   H4S13852   2.061   0.605   5.448
  104POPC   C2513853   2.168   0.782   5.379
  104POPC   H5R13854   2.237   0.858   5.419
  104POPC   H5S13855   2.072   0.834   5.355
  104POPC   C2613856   2.226   0.728   5.246
  104POPC   H6R13857   2.329   0.689   5.263
  104POPC   H6S13858   2.232   0.813   5.174
  104POPC   C2713859   2.138   0.618   5.188
  104POPC   H7R13860   2.033   0.656   5.197
  104POPC   H7S13861   2.148   0.530   5.255
  104POPC   C2813862   2.164   0.574   5.042
  104POPC   H8R13863   2.266   0.530   5.033
  104POPC   H8S13864   2.156   0.660   4.973
  104POPC   C2913865   2.055   0.472   5.018
  104POPC   H9113866   2.010   0.437   5.111
  104POPC  C21013867   2.013   0.411   4.906
  104POPC  H10113868   1.932   0.338   4.916
  104POPC  C21113869   2.065   0.426   4.766
  104POPC  H11R13870   2.141   0.507   4.756
  104POPC  H11S13871   1.982   0.447   4.694
  104POPC  C21213872   2.126   0.288   4.739
  104POPC  H12R13873   2.044   0.212   4.737
  104POPC  H12S13874   2.195   0.261   4.823
  104POPC  C21313875   2.209   0.269   4.612
  104POPC  H13R13876   2.292   0.342   4.608
  104POPC  H13S13877   2.144   0.285   4.523
  104POPC  C21413878   2.264   0.125   4.616
  104POPC  H14R13879   2.180   0.057   4.642
  104POPC  H14S13880   2.338   0.118   4.700
  104POPC  C21513881   2.330   0.069   4.489
  104POPC  H15R13882   2.354  -0.039   4.508
  104POPC  H15S13883   2.426   0.121   4.470
  104POPC  C21613884   2.240   0.077   4.365
  104POPC  H16R13885   2.215   0.184   4.345
  104POPC  H16S13886   2.144   0.024   4.385
  104POPC  C21713887   2.304   0.019   4.239
  104POPC  H17R13888   2.330  -0.088   4.255
  104POPC  H17S13889   2.400   0.072   4.220
  104POPC  C21813890   2.213   0.032   4.116
  104POPC  H18R13891   2.126  -0.036   4.125
  104POPC  H18S13892   2.269   0.008   4.023
  104POPC  H18T13893   2.175   0.136   4.108
  104POPC   C3313894   2.269   0.212   5.368
  104POPC   H3X13895   2.240   0.297   5.433
  104POPC   H3Y13896   2.197   0.209   5.283
  104POPC   C3413897   2.410   0.236   5.311
  104POPC   H4X13898   2.432   0.154   5.239
  104POPC   H4Y13899   2.486   0.229   5.392
  104POPC   C3513900   2.424   0.372   5.242
  104POPC   H5X13901   2.401   0.453   5.316
  104POPC   H5Y13902   2.349   0.378   5.161
  104POPC   C3613903   2.564   0.398   5.184
  104POPC   H6X13904   2.637   0.412   5.267
  104POPC   H6Y13905   2.561   0.493   5.127
  104POPC   C3713906   2.616   0.289   5.091
  104POPC   H7X13907   2.638   0.201   5.155
  104POPC   H7Y13908   2.713   0.319   5.047
  104POPC   C3813909   2.517   0.250   4.980
  104POPC   H8X13910   2.417   0.225   5.022
  104POPC   H8Y13911   2.554   0.158   4.929
  104POPC   C3913912   2.502   0.354   4.871
  104POPC   H9X13913   2.471   0.452   4.912
  104POPC   H9Y13914   2.422   0.319   4.802
  104POPC  C31013915   2.633   0.365   4.791
  104POPC  H10X13916   2.673   0.262   4.777
  104POPC  H10Y13917   2.709   0.423   4.848
  104POPC  C31113918   2.610   0.424   4.653
  104POPC  H11X13919   2.519   0.379   4.609
  104POPC  H11Y13920   2.694   0.392   4.590
  104POPC  C31213921   2.596   0.577   4.656
  104POPC  H12X13922   2.693   0.630   4.657
  104POPC  H12Y13923   2.552   0.594   4.756
  104POPC  C31313924   2.498   0.635   4.552
  104POPC  H13X13925   2.429   0.707   4.601
  104POPC  H13Y13926   2.435   0.552   4.515
  104POPC  C31413927   2.563   0.707   4.433
  104POPC  H14X13928   2.635   0.637   4.388
  104POPC  H14Y13929   2.620   0.795   4.468
  104POPC  C31513930   2.461   0.749   4.325
  104POPC  H15X13931   2.402   0.836   4.359
  104POPC  H15Y13932   2.389   0.667   4.308
  104POPC  C31613933   2.528   0.786   4.193
  104POPC  H16X13934   2.604   0.866   4.210
  104POPC  H16Y13935   2.455   0.822   4.118
  104POPC  H16Z13936   2.579   0.697   4.150
  105POPC     N13937   7.695   1.068   6.067
  105POPC   C1213938   7.807   1.001   6.145
  105POPC  H12A13939   7.803   0.894   6.129
  105POPC  H12B13940   7.791   1.019   6.251
  105POPC   C1313941   7.688   1.214   6.098
  105POPC  H13A13942   7.669   1.230   6.203
  105POPC  H13B13943   7.785   1.260   6.078
  105POPC  H13C13944   7.609   1.263   6.041
  105POPC   C1413945   7.716   1.053   5.921
  105POPC  H14A13946   7.649   1.114   5.862
  105POPC  H14B13947   7.818   1.081   5.893
  105POPC  H14C13948   7.697   0.952   5.887
  105POPC   C1513949   7.562   1.009   6.105
  105POPC  H15A13950   7.484   1.063   6.052
  105POPC  H15B13951   7.544   1.022   6.212
  105POPC  H15C13952   7.555   0.903   6.084
  105POPC   C1113953   7.952   1.046   6.118
  105POPC  H11A13954   7.975   1.040   6.009
  105POPC  H11B13955   8.020   0.974   6.170
  105POPC     P13956   8.095   1.222   6.248
  105POPC   O1313957   8.086   1.157   6.381
  105POPC   O1413958   8.107   1.369   6.253
  105POPC   O1213959   7.970   1.180   6.162
  105POPC   O1113960   8.218   1.157   6.176
  105POPC    C113961   8.297   1.230   6.083
  105POPC    HA13962   8.404   1.215   6.107
  105POPC    HB13963   8.280   1.341   6.086
  105POPC    C213964   8.273   1.180   5.938
  105POPC    HS13965   8.335   1.242   5.869
  105POPC   O2113966   8.134   1.183   5.899
  105POPC   C2113967   8.090   1.304   5.871
  105POPC   O2213968   8.155   1.407   5.879
  105POPC   C2213969   7.951   1.302   5.809
  105POPC   H2R13970   7.925   1.408   5.786
  105POPC   H2S13971   7.880   1.265   5.885
  105POPC    C313972   8.328   1.036   5.921
  105POPC    HX13973   8.266   0.966   5.981
  105POPC    HY13974   8.431   1.034   5.963
  105POPC   O3113975   8.335   1.004   5.780
  105POPC   C3113976   8.223   0.952   5.733
  105POPC   O3213977   8.133   0.906   5.801
  105POPC   C3213978   8.217   0.969   5.581
  105POPC   H2X13979   8.306   0.921   5.537
  105POPC   H2Y13980   8.219   1.078   5.558
  105POPC   C2313981   7.947   1.220   5.679
  105POPC   H3R13982   7.974   1.115   5.704
  105POPC   H3S13983   8.023   1.257   5.607
  105POPC   C2413984   7.810   1.217   5.609
  105POPC   H4R13985   7.730   1.202   5.685
  105POPC   H4S13986   7.806   1.128   5.542
  105POPC   C2513987   7.774   1.341   5.527
  105POPC   H5R13988   7.784   1.433   5.590
  105POPC   H5S13989   7.667   1.333   5.498
  105POPC   C2613990   7.853   1.360   5.396
  105POPC   H6R13991   7.961   1.374   5.418
  105POPC   H6S13992   7.818   1.455   5.350
  105POPC   C2713993   7.834   1.247   5.293
  105POPC   H7R13994   7.725   1.230   5.278
  105POPC   H7S13995   7.875   1.152   5.333
  105POPC   C2813996   7.898   1.278   5.156
  105POPC   H8R13997   7.855   1.373   5.120
  105POPC   H8S13998   7.866   1.199   5.084
  105POPC   C2913999   8.049   1.281   5.161
  105POPC   H9114000   8.096   1.193   5.207
  105POPC  C21014001   8.131   1.377   5.113
  105POPC  H10114002   8.240   1.362   5.122
  105POPC  C21114003   8.090   1.504   5.044
  105POPC  H11R14004   8.147   1.590   5.085
  105POPC  H11S14005   7.982   1.528   5.061
  105POPC  C21214006   8.113   1.495   4.892
  105POPC  H12R14007   8.220   1.475   4.870
  105POPC  H12S14008   8.089   1.596   4.851
  105POPC  C21314009   8.025   1.389   4.822
  105POPC  H13R14010   7.919   1.402   4.852
  105POPC  H13S14011   8.057   1.288   4.857
  105POPC  C21414012   8.036   1.393   4.669
  105POPC  H14R14013   7.988   1.305   4.622
  105POPC  H14S14014   8.144   1.390   4.643
  105POPC  C21514015   7.971   1.516   4.608
  105POPC  H15R14016   7.968   1.597   4.684
  105POPC  H15S14017   7.866   1.495   4.577
  105POPC  C21614018   8.050   1.570   4.490
  105POPC  H16R14019   8.157   1.574   4.518
  105POPC  H16S14020   8.015   1.674   4.472
  105POPC  C21714021   8.037   1.492   4.359
  105POPC  H17R14022   8.053   1.570   4.281
  105POPC  H17S14023   7.933   1.453   4.348
  105POPC  C21814024   8.139   1.382   4.331
  105POPC  H18R14025   8.122   1.339   4.229
  105POPC  H18S14026   8.132   1.300   4.405
  105POPC  H18T14027   8.243   1.422   4.333
  105POPC   C3314028   8.088   0.908   5.522
  105POPC   H3X14029   7.998   0.951   5.572
  105POPC   H3Y14030   8.085   0.798   5.541
  105POPC   C3414031   8.070   0.933   5.372
  105POPC   H4X14032   8.060   1.042   5.353
  105POPC   H4Y14033   7.974   0.885   5.341
  105POPC   C3514034   8.184   0.878   5.286
  105POPC   H5X14035   8.220   0.783   5.333
  105POPC   H5Y14036   8.270   0.949   5.283
  105POPC   C3614037   8.136   0.842   5.145
  105POPC   H6X14038   8.057   0.766   5.161
  105POPC   H6Y14039   8.218   0.797   5.086
  105POPC   C3714040   8.064   0.950   5.065
  105POPC   H7X14041   8.134   1.029   5.031
  105POPC   H7Y14042   7.985   0.997   5.127
  105POPC   C3814043   7.997   0.882   4.945
  105POPC   H8X14044   7.949   0.786   4.976
  105POPC   H8Y14045   8.077   0.854   4.873
  105POPC   C3914046   7.889   0.968   4.877
  105POPC   H9X14047   7.910   1.076   4.895
  105POPC   H9Y14048   7.790   0.945   4.923
  105POPC  C31014049   7.887   0.942   4.727
  105POPC  H10X14050   7.794   0.984   4.682
  105POPC  H10Y14051   7.889   0.833   4.707
  105POPC  C31114052   8.010   1.009   4.663
  105POPC  H11X14053   8.103   0.977   4.712
  105POPC  H11Y14054   8.000   1.118   4.683
  105POPC  C31214055   8.024   0.987   4.513
  105POPC  H12X14056   8.103   1.055   4.474
  105POPC  H12Y14057   7.928   1.022   4.472
  105POPC  C31314058   8.058   0.840   4.475
  105POPC  H13X14059   7.965   0.785   4.451
  105POPC  H13Y14060   8.099   0.793   4.567
  105POPC  C31414061   8.171   0.825   4.369
  105POPC  H14X14062   8.259   0.782   4.421
  105POPC  H14Y14063   8.201   0.926   4.334
  105POPC  C31514064   8.151   0.738   4.242
  105POPC  H15X14065   8.239   0.670   4.236
  105POPC  H15Y14066   8.157   0.803   4.152
  105POPC  C31614067   8.024   0.655   4.237
  105POPC  H16X14068   8.006   0.609   4.336
  105POPC  H16Y14069   8.028   0.578   4.158
  105POPC  H16Z14070   7.933   0.714   4.220
  106POPC     N14071   7.032   0.685   6.197
  106POPC   C1214072   7.155   0.777   6.190
  106POPC  H12A14073   7.184   0.805   6.290
  106POPC  H12B14074   7.126   0.867   6.136
  106POPC   C1314075   6.994   0.645   6.057
  106POPC  H13A14076   7.072   0.577   6.020
  106POPC  H13B14077   6.901   0.591   6.056
  106POPC  H13C14078   6.987   0.731   5.992
  106POPC   C1414079   7.057   0.557   6.271
  106POPC  H14A14080   7.139   0.502   6.222
  106POPC  H14B14081   7.089   0.572   6.373
  106POPC  H14C14082   6.972   0.491   6.268
  106POPC   C1514083   6.919   0.757   6.260
  106POPC  H15A14084   6.901   0.850   6.209
  106POPC  H15B14085   6.935   0.775   6.366
  106POPC  H15C14086   6.831   0.695   6.251
  106POPC   C1114087   7.283   0.725   6.121
  106POPC  H11A14088   7.355   0.809   6.112
  106POPC  H11B14089   7.260   0.694   6.016
  106POPC     P14090   7.380   0.484   6.134
  106POPC   O1314091   7.254   0.415   6.097
  106POPC   O1414092   7.475   0.417   6.227
  106POPC   O1214093   7.343   0.624   6.200
  106POPC   O1114094   7.447   0.531   6.001
  106POPC    C114095   7.584   0.562   5.979
  106POPC    HA14096   7.629   0.477   5.923
  106POPC    HB14097   7.641   0.571   6.074
  106POPC    C214098   7.607   0.693   5.895
  106POPC    HS14099   7.662   0.764   5.960
  106POPC   O2114100   7.480   0.752   5.855
  106POPC   C2114101   7.478   0.853   5.769
  106POPC   O2214102   7.576   0.909   5.722
  106POPC   C2214103   7.335   0.898   5.744
  106POPC   H2R14104   7.301   0.956   5.832
  106POPC   H2S14105   7.271   0.809   5.733
  106POPC    C314106   7.698   0.661   5.770
  106POPC    HX14107   7.781   0.596   5.806
  106POPC    HY14108   7.746   0.753   5.732
  106POPC   O3114109   7.623   0.589   5.671
  106POPC   C3114110   7.614   0.639   5.548
  106POPC   O3214111   7.673   0.736   5.504
  106POPC   C3214112   7.511   0.557   5.472
  106POPC   H2X14113   7.506   0.456   5.519
  106POPC   H2Y14114   7.548   0.545   5.368
  106POPC   C2314115   7.325   0.988   5.619
  106POPC   H3R14116   7.377   0.938   5.534
  106POPC   H3S14117   7.377   1.085   5.637
  106POPC   C2414118   7.180   1.015   5.577
  106POPC   H4R14119   7.133   1.084   5.651
  106POPC   H4S14120   7.124   0.919   5.579
  106POPC   C2514121   7.163   1.074   5.436
  106POPC   H5R14122   7.210   1.174   5.430
  106POPC   H5S14123   7.054   1.089   5.419
  106POPC   C2614124   7.219   0.985   5.324
  106POPC   H6R14125   7.200   0.879   5.350
  106POPC   H6S14126   7.329   0.997   5.317
  106POPC   C2714127   7.154   1.011   5.186
  106POPC   H7R14128   7.176   1.115   5.156
  106POPC   H7S14129   7.044   1.002   5.197
  106POPC   C2814130   7.200   0.914   5.075
  106POPC   H8R14131   7.149   0.943   4.980
  106POPC   H8S14132   7.158   0.814   5.100
  106POPC   C2914133   7.349   0.909   5.053
  106POPC   H9114134   7.395   1.003   5.020
  106POPC  C21014135   7.430   0.804   5.075
  106POPC  H10114136   7.538   0.815   5.056
  106POPC  C21114137   7.388   0.669   5.127
  106POPC  H11R14138   7.285   0.673   5.170
  106POPC  H11S14139   7.454   0.641   5.211
  106POPC  C21214140   7.391   0.557   5.022
  106POPC  H12R14141   7.356   0.592   4.923
  106POPC  H12S14142   7.320   0.478   5.055
  106POPC  C21314143   7.529   0.491   5.013
  106POPC  H13R14144   7.568   0.477   5.116
  106POPC  H13S14145   7.601   0.558   4.960
  106POPC  C21414146   7.523   0.353   4.946
  106POPC  H14R14147   7.419   0.316   4.945
  106POPC  H14S14148   7.583   0.282   5.007
  106POPC  C21514149   7.580   0.354   4.805
  106POPC  H15R14150   7.579   0.251   4.763
  106POPC  H15S14151   7.686   0.385   4.817
  106POPC  C21614152   7.513   0.452   4.707
  106POPC  H16R14153   7.527   0.556   4.743
  106POPC  H16S14154   7.404   0.433   4.703
  106POPC  C21714155   7.572   0.441   4.566
  106POPC  H17R14156   7.545   0.340   4.528
  106POPC  H17S14157   7.682   0.445   4.569
  106POPC  C21814158   7.523   0.550   4.472
  106POPC  H18R14159   7.566   0.537   4.370
  106POPC  H18S14160   7.552   0.651   4.509
  106POPC  H18T14161   7.412   0.546   4.464
  106POPC   C3314162   7.372   0.623   5.476
  106POPC   H3X14163   7.372   0.715   5.412
  106POPC   H3Y14164   7.347   0.655   5.580
  106POPC   C3414165   7.261   0.528   5.430
  106POPC   H4X14166   7.257   0.442   5.501
  106POPC   H4Y14167   7.288   0.489   5.329
  106POPC   C3514168   7.123   0.593   5.424
  106POPC   H5X14169   7.132   0.694   5.377
  106POPC   H5Y14170   7.085   0.608   5.527
  106POPC   C3614171   7.022   0.513   5.341
  106POPC   H6X14172   6.920   0.541   5.375
  106POPC   H6Y14173   7.035   0.404   5.359
  106POPC   C3714174   7.033   0.544   5.191
  106POPC   H7X14175   7.126   0.499   5.151
  106POPC   H7Y14176   7.039   0.654   5.177
  106POPC   C3814177   6.913   0.493   5.111
  106POPC   H8X14178   6.825   0.553   5.139
  106POPC   H8Y14179   6.893   0.389   5.142
  106POPC   C3914180   6.928   0.494   4.958
  106POPC   H9X14181   6.830   0.467   4.912
  106POPC   H9Y14182   6.999   0.414   4.931
  106POPC  C31014183   6.978   0.624   4.891
  106POPC  H10X14184   7.070   0.659   4.943
  106POPC  H10Y14185   6.901   0.703   4.899
  106POPC  C31114186   7.012   0.596   4.744
  106POPC  H11X14187   6.919   0.562   4.692
  106POPC  H11Y14188   7.085   0.512   4.742
  106POPC  C31214189   7.074   0.711   4.664
  106POPC  H12X14190   7.166   0.746   4.717
  106POPC  H12Y14191   7.003   0.796   4.658
  106POPC  C31314192   7.112   0.664   4.523
  106POPC  H13X14193   7.019   0.650   4.463
  106POPC  H13Y14194   7.161   0.564   4.531
  106POPC  C31414195   7.209   0.755   4.445
  106POPC  H14X14196   7.305   0.761   4.501
  106POPC  H14Y14197   7.167   0.858   4.439
  106POPC  C31514198   7.235   0.703   4.303
  106POPC  H15X14199   7.142   0.720   4.243
  106POPC  H15Y14200   7.250   0.593   4.307
  106POPC  C31614201   7.355   0.766   4.232
  106POPC  H16X14202   7.359   0.875   4.250
  106POPC  H16Y14203   7.350   0.748   4.122
  106POPC  H16Z14204   7.450   0.722   4.269
  107POPC     N14205   0.468   1.945   6.122
  107POPC   C1214206   0.536   1.864   6.232
  107POPC  H12A14207   0.555   1.763   6.196
  107POPC  H12B14208   0.468   1.855   6.315
  107POPC   C1314209   0.554   1.943   6.000
  107POPC  H13A14210   0.656   1.975   6.025
  107POPC  H13B14211   0.567   1.843   5.962
  107POPC  H13C14212   0.513   2.004   5.922
  107POPC   C1414213   0.335   1.884   6.086
  107POPC  H14A14214   0.267   1.881   6.171
  107POPC  H14B14215   0.285   1.939   6.007
  107POPC  H14C14216   0.345   1.781   6.050
  107POPC   C1514217   0.450   2.086   6.169
  107POPC  H15A14218   0.384   2.093   6.256
  107POPC  H15B14219   0.406   2.147   6.092
  107POPC  H15C14220   0.546   2.130   6.197
  107POPC   C1114221   0.672   1.917   6.282
  107POPC  H11A14222   0.698   1.863   6.376
  107POPC  H11B14223   0.669   2.026   6.306
  107POPC     P14224   0.921   1.915   6.206
  107POPC   O1314225   0.970   1.810   6.298
  107POPC   O1414226   0.938   2.056   6.248
  107POPC   O1214227   0.766   1.890   6.181
  107POPC   O1114228   0.975   1.888   6.060
  107POPC    C114229   0.929   1.767   5.994
  107POPC    HA14230   0.839   1.719   6.041
  107POPC    HB14231   1.012   1.693   5.997
  107POPC    C214232   0.894   1.795   5.846
  107POPC    HS14233   0.988   1.833   5.801
  107POPC   O2114234   0.784   1.888   5.833
  107POPC   C2114235   0.813   2.002   5.770
  107POPC   O2214236   0.925   2.043   5.744
  107POPC   C2214237   0.678   2.070   5.737
  107POPC   H2R14238   0.663   2.146   5.816
  107POPC   H2S14239   0.598   1.993   5.743
  107POPC    C314240   0.855   1.667   5.767
  107POPC    HX14241   0.759   1.627   5.808
  107POPC    HY14242   0.935   1.590   5.780
  107POPC   O3114243   0.843   1.705   5.628
  107POPC   C3114244   0.792   1.620   5.542
  107POPC   O3214245   0.748   1.509   5.565
  107POPC   C3214246   0.793   1.691   5.406
  107POPC   H2X14247   0.899   1.708   5.377
  107POPC   H2Y14248   0.744   1.789   5.419
  107POPC   C2314249   0.658   2.141   5.599
  107POPC   H3R14250   0.736   2.217   5.581
  107POPC   H3S14251   0.562   2.197   5.607
  107POPC   C2414252   0.643   2.047   5.478
  107POPC   H4R14253   0.587   1.956   5.510
  107POPC   H4S14254   0.744   2.015   5.443
  107POPC   C2514255   0.565   2.111   5.361
  107POPC   H5R14256   0.628   2.187   5.309
  107POPC   H5S14257   0.477   2.165   5.403
  107POPC   C2614258   0.511   2.008   5.259
  107POPC   H6R14259   0.461   1.928   5.318
  107POPC   H6S14260   0.596   1.962   5.205
  107POPC   C2714261   0.404   2.062   5.161
  107POPC   H7R14262   0.339   2.134   5.215
  107POPC   H7S14263   0.339   1.977   5.130
  107POPC   C2814264   0.454   2.129   5.031
  107POPC   H8R14265   0.511   2.221   5.059
  107POPC   H8S14266   0.365   2.166   4.976
  107POPC   C2914267   0.538   2.038   4.945
  107POPC   H9114268   0.633   2.006   4.991
  107POPC  C21014269   0.512   1.993   4.821
  107POPC  H10114270   0.586   1.930   4.771
  107POPC  C21114271   0.392   2.022   4.736
  107POPC  H11R14272   0.316   2.083   4.789
  107POPC  H11S14273   0.341   1.926   4.710
  107POPC  C21214274   0.432   2.095   4.606
  107POPC  H12R14275   0.471   2.197   4.630
  107POPC  H12S14276   0.340   2.108   4.546
  107POPC  C21314277   0.534   2.019   4.518
  107POPC  H13R14278   0.634   2.016   4.566
  107POPC  H13S14279   0.545   2.075   4.423
  107POPC  C21414280   0.486   1.875   4.491
  107POPC  H14R14281   0.375   1.881   4.483
  107POPC  H14S14282   0.509   1.811   4.578
  107POPC  C21514283   0.533   1.809   4.362
  107POPC  H15R14284   0.491   1.706   4.357
  107POPC  H15S14285   0.644   1.801   4.361
  107POPC  C21614286   0.486   1.888   4.239
  107POPC  H16R14287   0.550   1.979   4.232
  107POPC  H16S14288   0.381   1.922   4.255
  107POPC  C21714289   0.494   1.812   4.106
  107POPC  H17R14290   0.399   1.760   4.085
  107POPC  H17S14291   0.571   1.733   4.115
  107POPC  C21814292   0.532   1.906   3.991
  107POPC  H18R14293   0.442   1.953   3.947
  107POPC  H18S14294   0.586   1.851   3.911
  107POPC  H18T14295   0.598   1.987   4.026
  107POPC   C3314296   0.719   1.609   5.298
  107POPC   H3X14297   0.615   1.590   5.331
  107POPC   H3Y14298   0.770   1.510   5.289
  107POPC   C3414299   0.716   1.676   5.161
  107POPC   H4X14300   0.819   1.705   5.132
  107POPC   H4Y14301   0.655   1.769   5.163
  107POPC   C3514302   0.659   1.581   5.055
  107POPC   H5X14303   0.549   1.599   5.046
  107POPC   H5Y14304   0.671   1.476   5.093
  107POPC   C3614305   0.725   1.587   4.917
  107POPC   H6X14306   0.653   1.539   4.846
  107POPC   H6Y14307   0.818   1.526   4.918
  107POPC   C3714308   0.762   1.726   4.862
  107POPC   H7X14309   0.857   1.762   4.908
  107POPC   H7Y14310   0.682   1.795   4.894
  107POPC   C3814311   0.772   1.729   4.708
  107POPC   H8X14312   0.785   1.833   4.672
  107POPC   H8Y14313   0.671   1.697   4.672
  107POPC   C3914314   0.872   1.632   4.640
  107POPC   H9X14315   0.819   1.590   4.551
  107POPC   H9Y14316   0.892   1.548   4.709
  107POPC  C31014317   1.011   1.679   4.590
  107POPC  H10X14318   1.034   1.623   4.496
  107POPC  H10Y14319   1.091   1.649   4.659
  107POPC  C31114320   1.024   1.829   4.561
  107POPC  H11X14321   1.132   1.853   4.546
  107POPC  H11Y14322   0.989   1.889   4.648
  107POPC  C31214323   0.948   1.861   4.434
  107POPC  H12X14324   0.840   1.837   4.448
  107POPC  H12Y14325   0.988   1.795   4.355
  107POPC  C31314326   0.962   2.005   4.387
  107POPC  H13X14327   1.070   2.033   4.385
  107POPC  H13Y14328   0.909   2.074   4.456
  107POPC  C31414329   0.902   2.013   4.247
  107POPC  H14X14330   0.795   1.987   4.257
  107POPC  H14Y14331   0.950   1.938   4.180
  107POPC  C31514332   0.914   2.149   4.180
  107POPC  H15X14333   1.009   2.154   4.122
  107POPC  H15Y14334   0.918   2.228   4.258
  107POPC  C31614335   0.794   2.170   4.090
  107POPC  H16X14336   0.702   2.168   4.151
  107POPC  H16Y14337   0.785   2.088   4.016
  107POPC  H16Z14338   0.799   2.267   4.035
  108POPC     N14339   8.716   1.823   6.331
  108POPC   C1214340   8.670   1.724   6.225
  108POPC  H12A14341   8.691   1.623   6.257
  108POPC  H12B14342   8.726   1.743   6.133
  108POPC   C1314343   8.600   1.858   6.418
  108POPC  H13A14344   8.624   1.934   6.491
  108POPC  H13B14345   8.518   1.894   6.354
  108POPC  H13C14346   8.567   1.769   6.471
  108POPC   C1414347   8.824   1.760   6.412
  108POPC  H14A14348   8.855   1.826   6.492
  108POPC  H14B14349   8.788   1.670   6.462
  108POPC  H14C14350   8.910   1.732   6.353
  108POPC   C1514351   8.764   1.950   6.268
  108POPC  H15A14352   8.788   2.026   6.341
  108POPC  H15B14353   8.687   1.989   6.201
  108POPC  H15C14354   8.850   1.931   6.207
  108POPC   C1114355   8.522   1.730   6.184
  108POPC  H11A14356   8.452   1.718   6.270
  108POPC  H11B14357   8.501   1.642   6.120
  108POPC     P14358   8.559   1.879   5.971
  108POPC   O1314359   8.707   1.884   5.981
  108POPC   O1414360   8.492   1.991   5.904
  108POPC   O1214361   8.499   1.854   6.117
  108POPC   O1114362   8.518   1.741   5.904
  108POPC    C114363   8.375   1.714   5.903
  108POPC    HA14364   8.312   1.803   5.927
  108POPC    HB14365   8.348   1.639   5.981
  108POPC    C214366   8.324   1.662   5.766
  108POPC    HS14367   8.214   1.652   5.775
  108POPC   O2114368   8.370   1.538   5.719
  108POPC   C2114369   8.449   1.467   5.789
  108POPC   O2214370   8.450   1.445   5.909
  108POPC   C2214371   8.544   1.404   5.689
  108POPC   H2R14372   8.512   1.416   5.585
  108POPC   H2S14373   8.540   1.295   5.714
  108POPC    C314374   8.354   1.759   5.650
  108POPC    HX14375   8.268   1.822   5.651
  108POPC    HY14376   8.350   1.701   5.555
  108POPC   O3114377   8.474   1.841   5.660
  108POPC   C3114378   8.475   1.929   5.560
  108POPC   O3214379   8.395   1.927   5.468
  108POPC   C3214380   8.590   2.029   5.566
  108POPC   H2X14381   8.667   1.996   5.494
  108POPC   H2Y14382   8.633   2.029   5.668
  108POPC   C2314383   8.688   1.453   5.712
  108POPC   H3R14384   8.738   1.355   5.688
  108POPC   H3S14385   8.710   1.478   5.818
  108POPC   C2414386   8.769   1.537   5.612
  108POPC   H4R14387   8.764   1.473   5.524
  108POPC   H4S14388   8.875   1.540   5.646
  108POPC   C2514389   8.730   1.675   5.565
  108POPC   H5R14390   8.817   1.723   5.515
  108POPC   H5S14391   8.703   1.738   5.653
  108POPC   C2614392   8.613   1.671   5.466
  108POPC   H6R14393   8.600   1.773   5.425
  108POPC   H6S14394   8.527   1.635   5.525
  108POPC   C2714395   8.612   1.582   5.344
  108POPC   H7R14396   8.602   1.477   5.374
  108POPC   H7S14397   8.710   1.592   5.293
  108POPC   C2814398   8.493   1.616   5.253
  108POPC   H8R14399   8.493   1.725   5.229
  108POPC   H8S14400   8.397   1.595   5.307
  108POPC   C2914401   8.505   1.533   5.129
  108POPC   H9114402   8.433   1.450   5.118
  108POPC  C21014403   8.595   1.558   5.033
  108POPC  H10114404   8.598   1.493   4.944
  108POPC  C21114405   8.695   1.671   5.037
  108POPC  H11R14406   8.757   1.669   5.129
  108POPC  H11S14407   8.643   1.769   5.039
  108POPC  C21214408   8.799   1.670   4.925
  108POPC  H12R14409   8.855   1.575   4.937
  108POPC  H12S14410   8.870   1.755   4.941
  108POPC  C21314411   8.743   1.680   4.784
  108POPC  H13R14412   8.707   1.782   4.760
  108POPC  H13S14413   8.659   1.608   4.775
  108POPC  C21414414   8.843   1.632   4.681
  108POPC  H14R14415   8.899   1.552   4.733
  108POPC  H14S14416   8.918   1.709   4.660
  108POPC  C21514417   8.774   1.572   4.558
  108POPC  H15R14418   8.683   1.515   4.587
  108POPC  H15S14419   8.838   1.497   4.510
  108POPC  C21614420   8.742   1.669   4.447
  108POPC  H16R14421   8.643   1.711   4.469
  108POPC  H16S14422   8.738   1.613   4.350
  108POPC  C21714423   8.833   1.791   4.436
  108POPC  H17R14424   8.819   1.858   4.523
  108POPC  H17S14425   8.796   1.842   4.346
  108POPC  C21814426   8.980   1.764   4.410
  108POPC  H18R14427   9.039   1.740   4.501
  108POPC  H18S14428   9.027   1.852   4.360
  108POPC  H18T14429   8.982   1.676   4.344
  108POPC   C3314430   8.533   2.169   5.528
  108POPC   H3X14431   8.496   2.214   5.623
  108POPC   H3Y14432   8.446   2.163   5.459
  108POPC   C3414433   8.633   2.267   5.465
  108POPC   H4X14434   8.724   2.263   5.529
  108POPC   H4Y14435   8.592   2.370   5.475
  108POPC   C3514436   8.672   2.244   5.318
  108POPC   H5X14437   8.685   2.136   5.296
  108POPC   H5Y14438   8.770   2.295   5.302
  108POPC   C3614439   8.578   2.308   5.214
  108POPC   H6X14440   8.548   2.409   5.253
  108POPC   H6Y14441   8.484   2.249   5.204
  108POPC   C3714442   8.644   2.330   5.077
  108POPC   H7X14443   8.734   2.395   5.090
  108POPC   H7Y14444   8.572   2.386   5.014
  108POPC   C3814445   8.682   2.204   4.996
  108POPC   H8X14446   8.747   2.139   5.059
  108POPC   H8Y14447   8.740   2.235   4.906
  108POPC   C3914448   8.558   2.126   4.951
  108POPC   H9X14449   8.496   2.194   4.887
  108POPC   H9Y14450   8.500   2.104   5.043
  108POPC  C31014451   8.577   1.992   4.877
  108POPC  H10X14452   8.670   1.944   4.912
  108POPC  H10Y14453   8.588   2.010   4.768
  108POPC  C31114454   8.455   1.899   4.907
  108POPC  H11X14455   8.363   1.959   4.895
  108POPC  H11Y14456   8.460   1.873   5.015
  108POPC  C31214457   8.427   1.771   4.826
  108POPC  H12X14458   8.335   1.725   4.867
  108POPC  H12Y14459   8.506   1.698   4.846
  108POPC  C31314460   8.410   1.787   4.674
  108POPC  H13X14461   8.490   1.852   4.632
  108POPC  H13Y14462   8.311   1.833   4.660
  108POPC  C31414463   8.402   1.659   4.590
  108POPC  H14X14464   8.319   1.597   4.632
  108POPC  H14Y14465   8.494   1.599   4.605
  108POPC  C31514466   8.381   1.684   4.438
  108POPC  H15X14467   8.369   1.586   4.388
  108POPC  H15Y14468   8.472   1.730   4.394
  108POPC  C31614469   8.269   1.779   4.394
  108POPC  H16X14470   8.312   1.876   4.361
  108POPC  H16Y14471   8.196   1.799   4.474
  108POPC  H16Z14472   8.216   1.737   4.306
  109POPC     N14473   8.356   7.680   6.254
  109POPC   C1214474   8.330   7.777   6.140
  109POPC  H12A14475   8.318   7.877   6.182
  109POPC  H12B14476   8.237   7.753   6.090
  109POPC   C1314477   8.476   7.730   6.329
  109POPC  H13A14478   8.558   7.749   6.261
  109POPC  H13B14479   8.453   7.825   6.378
  109POPC  H13C14480   8.513   7.662   6.404
  109POPC   C1414481   8.240   7.674   6.349
  109POPC  H14A14482   8.147   7.643   6.301
  109POPC  H14B14483   8.262   7.607   6.430
  109POPC  H14C14484   8.218   7.770   6.395
  109POPC   C1514485   8.388   7.544   6.205
  109POPC  H15A14486   8.304   7.500   6.153
  109POPC  H15B14487   8.417   7.482   6.289
  109POPC  H15C14488   8.473   7.551   6.139
  109POPC   C1114489   8.441   7.793   6.033
  109POPC  H11A14490   8.399   7.846   5.945
  109POPC  H11B14491   8.475   7.695   5.996
  109POPC     P14492   8.546   8.021   6.097
  109POPC   O1314493   8.676   8.072   6.147
  109POPC   O1414494   8.426   8.058   6.175
  109POPC   O1214495   8.552   7.863   6.090
  109POPC   O1114496   8.522   8.061   5.945
  109POPC    C114497   8.631   8.093   5.857
  109POPC    HA14498   8.728   8.051   5.892
  109POPC    HB14499   8.642   8.204   5.854
  109POPC    C214500   8.610   8.044   5.709
  109POPC    HS14501   8.692   8.092   5.650
  109POPC   O2114502   8.479   8.080   5.657
  109POPC   C2114503   8.472   8.090   5.523
  109POPC   O2214504   8.568   8.094   5.448
  109POPC   C2214505   8.328   8.097   5.475
  109POPC   H2R14506   8.311   8.200   5.437
  109POPC   H2S14507   8.258   8.079   5.559
  109POPC    C314508   8.631   7.890   5.699
  109POPC    HX14509   8.553   7.843   5.765
  109POPC    HY14510   8.730   7.862   5.742
  109POPC   O3114511   8.613   7.841   5.564
  109POPC   C3114512   8.721   7.849   5.486
  109POPC   O3214513   8.835   7.863   5.526
  109POPC   C3214514   8.682   7.828   5.340
  109POPC   H2X14515   8.595   7.893   5.315
  109POPC   H2Y14516   8.649   7.722   5.330
  109POPC   C2314517   8.302   7.996   5.360
  109POPC   H3R14518   8.377   8.008   5.279
  109POPC   H3S14519   8.202   8.019   5.316
  109POPC   C2414520   8.299   7.851   5.410
  109POPC   H4R14521   8.239   7.848   5.503
  109POPC   H4S14522   8.402   7.817   5.436
  109POPC   C2514523   8.237   7.752   5.310
  109POPC   H5R14524   8.136   7.787   5.283
  109POPC   H5S14525   8.226   7.654   5.361
  109POPC   C2614526   8.317   7.732   5.181
  109POPC   H6R14527   8.421   7.701   5.208
  109POPC   H6S14528   8.323   7.827   5.124
  109POPC   C2714529   8.251   7.624   5.094
  109POPC   H7R14530   8.153   7.663   5.056
  109POPC   H7S14531   8.228   7.535   5.157
  109POPC   C2814532   8.335   7.579   4.974
  109POPC   H8R14533   8.347   7.666   4.906
  109POPC   H8S14534   8.277   7.503   4.919
  109POPC   C2914535   8.467   7.520   5.017
  109POPC   H9114536   8.461   7.445   5.098
  109POPC  C21014537   8.588   7.550   4.966
  109POPC  H10114538   8.676   7.496   5.003
  109POPC  C21114539   8.618   7.647   4.855
  109POPC  H11R14540   8.712   7.702   4.878
  109POPC  H11S14541   8.539   7.724   4.843
  109POPC  C21214542   8.636   7.573   4.722
  109POPC  H12R14543   8.723   7.505   4.731
  109POPC  H12S14544   8.662   7.648   4.644
  109POPC  C21314545   8.512   7.494   4.677
  109POPC  H13R14546   8.432   7.500   4.753
  109POPC  H13S14547   8.535   7.386   4.666
  109POPC  C21414548   8.451   7.549   4.549
  109POPC  H14R14549   8.440   7.658   4.564
  109POPC  H14S14550   8.350   7.503   4.536
  109POPC  C21514551   8.534   7.519   4.426
  109POPC  H15R14552   8.537   7.409   4.425
  109POPC  H15S14553   8.639   7.551   4.439
  109POPC  C21614554   8.472   7.559   4.293
  109POPC  H16R14555   8.363   7.575   4.304
  109POPC  H16S14556   8.480   7.470   4.225
  109POPC  C21714557   8.535   7.677   4.218
  109POPC  H17R14558   8.466   7.764   4.219
  109POPC  H17S14559   8.543   7.639   4.114
  109POPC  C21814560   8.675   7.724   4.259
  109POPC  H18R14561   8.747   7.639   4.252
  109POPC  H18S14562   8.675   7.762   4.363
  109POPC  H18T14563   8.710   7.805   4.192
  109POPC   C3314564   8.797   7.853   5.239
  109POPC   H3X14565   8.770   7.798   5.146
  109POPC   H3Y14566   8.894   7.814   5.278
  109POPC   C3414567   8.818   7.999   5.197
  109POPC   H4X14568   8.841   8.060   5.287
  109POPC   H4Y14569   8.723   8.035   5.153
  109POPC   C3514570   8.931   8.015   5.094
  109POPC   H5X14571   9.025   7.974   5.137
  109POPC   H5Y14572   8.949   8.124   5.077
  109POPC   C3614573   8.903   7.946   4.959
  109POPC   H6X14574   8.897   7.836   4.976
  109POPC   H6Y14575   8.988   7.964   4.890
  109POPC   C3714576   8.775   7.992   4.887
  109POPC   H7X14577   8.686   7.960   4.945
  109POPC   H7Y14578   8.770   7.941   4.788
  109POPC   C3814579   8.773   8.144   4.869
  109POPC   H8X14580   8.864   8.176   4.814
  109POPC   H8Y14581   8.775   8.191   4.969
  109POPC   C3914582   8.650   8.195   4.795
  109POPC   H9X14583   8.635   8.303   4.821
  109POPC   H9Y14584   8.560   8.139   4.829
  109POPC  C31014585   8.661   8.190   4.643
  109POPC  H10X14586   8.707   8.094   4.610
  109POPC  H10Y14587   8.730   8.271   4.612
  109POPC  C31114588   8.523   8.208   4.581
  109POPC  H11X14589   8.528   8.264   4.486
  109POPC  H11Y14590   8.458   8.267   4.648
  109POPC  C31214591   8.460   8.073   4.550
  109POPC  H12X14592   8.432   8.023   4.646
  109POPC  H12Y14593   8.533   8.007   4.498
  109POPC  C31314594   8.338   8.089   4.460
  109POPC  H13X14595   8.371   8.097   4.354
  109POPC  H13Y14596   8.289   8.186   4.486
  109POPC  C31414597   8.235   7.978   4.476
  109POPC  H14X14598   8.149   7.997   4.410
  109POPC  H14Y14599   8.200   7.977   4.582
  109POPC  C31514600   8.283   7.838   4.440
  109POPC  H15X14601   8.384   7.825   4.484
  109POPC  H15Y14602   8.294   7.831   4.329
  109POPC  C31614603   8.185   7.732   4.490
  109POPC  H16X14604   8.209   7.633   4.447
  109POPC  H16Y14605   8.081   7.758   4.461
  109POPC  H16Z14606   8.191   7.724   4.601
  110POPC     N14607   0.184   6.755   6.332
  110POPC   C1214608   0.127   6.614   6.324
  110POPC  H12A14609   0.027   6.617   6.367
  110POPC  H12B14610   0.189   6.547   6.381
  110POPC   C1314611   0.095   6.842   6.249
  110POPC  H13A14612  -0.006   6.840   6.290
  110POPC  H13B14613   0.129   6.942   6.238
  110POPC  H13C14614   0.084   6.798   6.150
  110POPC   C1414615   0.180   6.808   6.473
  110POPC  H14A14616   0.255   6.761   6.534
  110POPC  H14B14617   0.194   6.915   6.473
  110POPC  H14C14618   0.083   6.789   6.519
  110POPC   C1514619   0.322   6.753   6.276
  110POPC  H15A14620   0.317   6.700   6.180
  110POPC  H15B14621   0.388   6.695   6.338
  110POPC  H15C14622   0.359   6.852   6.259
  110POPC   C1114623   0.111   6.554   6.181
  110POPC  H11A14624   0.047   6.623   6.120
  110POPC  H11B14625   0.054   6.459   6.191
  110POPC     P14626   0.230   6.480   5.965
  110POPC   O1314627   0.095   6.507   5.910
  110POPC   O1414628   0.275   6.339   5.969
  110POPC   O1214629   0.236   6.531   6.117
  110POPC   O1114630   0.340   6.569   5.893
  110POPC    C114631   0.366   6.705   5.925
  110POPC    HA14632   0.474   6.717   5.951
  110POPC    HB14633   0.306   6.739   6.012
  110POPC    C214634   0.334   6.807   5.811
  110POPC    HS14635   0.341   6.910   5.854
  110POPC   O2114636   0.202   6.786   5.759
  110POPC   C2114637   0.102   6.824   5.834
  110POPC   O2214638   0.109   6.886   5.940
  110POPC   C2214639  -0.029   6.791   5.763
  110POPC   H2R14640  -0.108   6.779   5.840
  110POPC   H2S14641  -0.016   6.693   5.713
  110POPC    C314642   0.436   6.804   5.693
  110POPC    HX14643   0.535   6.831   5.735
  110POPC    HY14644   0.410   6.886   5.621
  110POPC   O3114645   0.449   6.676   5.628
  110POPC   C3114646   0.359   6.654   5.531
  110POPC   O3214647   0.277   6.734   5.491
  110POPC   C3214648   0.381   6.517   5.468
  110POPC   H2X14649   0.323   6.442   5.527
  110POPC   H2Y14650   0.489   6.493   5.477
  110POPC   C2314651  -0.070   6.898   5.658
  110POPC   H3R14652  -0.083   6.999   5.703
  110POPC   H3S14653  -0.168   6.866   5.617
  110POPC   C2414654   0.026   6.904   5.538
  110POPC   H4R14655   0.017   6.804   5.493
  110POPC   H4S14656   0.131   6.916   5.573
  110POPC   C2514657   0.004   7.016   5.434
  110POPC   H5R14658   0.053   7.109   5.471
  110POPC   H5S14659  -0.104   7.041   5.427
  110POPC   C2614660   0.059   6.987   5.292
  110POPC   H6R14661   0.167   7.012   5.291
  110POPC   H6S14662   0.008   7.055   5.220
  110POPC   C2714663   0.044   6.841   5.242
  110POPC   H7R14664  -0.063   6.812   5.238
  110POPC   H7S14665   0.094   6.773   5.315
  110POPC   C2814666   0.115   6.810   5.109
  110POPC   H8R14667   0.120   6.699   5.099
  110POPC   H8S14668   0.220   6.846   5.116
  110POPC   C2914669   0.047   6.869   4.988
  110POPC   H9114670   0.071   6.975   4.972
  110POPC  C21014671  -0.036   6.809   4.901
  110POPC  H10114672  -0.072   6.870   4.817
  110POPC  C21114673  -0.088   6.667   4.896
  110POPC  H11R14674  -0.158   6.642   4.977
  110POPC  H11S14675  -0.008   6.590   4.907
  110POPC  C21214676  -0.158   6.648   4.760
  110POPC  H12R14677  -0.078   6.647   4.683
  110POPC  H12S14678  -0.225   6.733   4.736
  110POPC  C21314679  -0.246   6.522   4.751
  110POPC  H13R14680  -0.352   6.551   4.735
  110POPC  H13S14681  -0.240   6.466   4.846
  110POPC  C21414682  -0.201   6.429   4.637
  110POPC  H14R14683  -0.267   6.340   4.633
  110POPC  H14S14684  -0.101   6.393   4.668
  110POPC  C21514685  -0.191   6.494   4.498
  110POPC  H15R14686  -0.170   6.603   4.504
  110POPC  H15S14687  -0.289   6.485   4.446
  110POPC  C21614688  -0.079   6.431   4.414
  110POPC  H16R14689  -0.084   6.468   4.310
  110POPC  H16S14690  -0.093   6.321   4.410
  110POPC  C21714691   0.062   6.460   4.465
  110POPC  H17R14692   0.073   6.426   4.570
  110POPC  H17S14693   0.075   6.570   4.464
  110POPC  C21814694   0.171   6.394   4.381
  110POPC  H18R14695   0.271   6.409   4.428
  110POPC  H18S14696   0.172   6.439   4.279
  110POPC  H18T14697   0.153   6.285   4.372
  110POPC   C3314698   0.338   6.515   5.320
  110POPC   H3X14699   0.357   6.615   5.272
  110POPC   H3Y14700   0.228   6.498   5.315
  110POPC   C3414701   0.413   6.410   5.237
  110POPC   H4X14702   0.409   6.314   5.294
  110POPC   H4Y14703   0.520   6.439   5.227
  110POPC   C3514704   0.352   6.385   5.099
  110POPC   H5X14705   0.245   6.363   5.116
  110POPC   H5Y14706   0.398   6.295   5.052
  110POPC   C3614707   0.359   6.501   4.998
  110POPC   H6X14708   0.464   6.524   4.970
  110POPC   H6Y14709   0.316   6.592   5.047
  110POPC   C3714710   0.276   6.469   4.873
  110POPC   H7X14711   0.186   6.414   4.909
  110POPC   H7Y14712   0.329   6.401   4.803
  110POPC   C3814713   0.218   6.591   4.801
  110POPC   H8X14714   0.184   6.662   4.878
  110POPC   H8Y14715   0.129   6.557   4.743
  110POPC   C3914716   0.307   6.669   4.705
  110POPC   H9X14717   0.354   6.599   4.633
  110POPC   H9Y14718   0.388   6.720   4.762
  110POPC  C31014719   0.222   6.774   4.629
  110POPC  H10X14720   0.162   6.831   4.702
  110POPC  H10Y14721   0.151   6.721   4.563
  110POPC  C31114722   0.302   6.873   4.543
  110POPC  H11X14723   0.352   6.941   4.613
  110POPC  H11Y14724   0.231   6.935   4.484
  110POPC  C31214725   0.402   6.806   4.448
  110POPC  H12X14726   0.476   6.748   4.508
  110POPC  H12Y14727   0.459   6.884   4.393
  110POPC  C31314728   0.340   6.706   4.349
  110POPC  H13X14729   0.295   6.625   4.409
  110POPC  H13Y14730   0.420   6.661   4.287
  110POPC  C31414731   0.232   6.766   4.258
  110POPC  H14X14732   0.157   6.822   4.318
  110POPC  H14Y14733   0.177   6.682   4.208
  110POPC  C31514734   0.292   6.856   4.150
  110POPC  H15X14735   0.369   6.798   4.094
  110POPC  H15Y14736   0.343   6.942   4.199
  110POPC  C31614737   0.189   6.909   4.050
  110POPC  H16X14738   0.201   6.859   3.952
  110POPC  H16Y14739   0.202   7.018   4.036
  110POPC  H16Z14740   0.086   6.890   4.087
  111POPC     N14741   6.688   9.413   5.989
  111POPC   C1214742   6.624   9.473   6.113
  111POPC  H12A14743   6.515   9.466   6.103
  111POPC  H12B14744   6.648   9.578   6.119
  111POPC   C1314745   6.628   9.276   5.975
  111POPC  H13A14746   6.524   9.281   5.944
  111POPC  H13B14747   6.682   9.214   5.905
  111POPC  H13C14748   6.629   9.227   6.073
  111POPC   C1414749   6.654   9.486   5.864
  111POPC  H14A14750   6.690   9.430   5.778
  111POPC  H14B14751   6.546   9.492   5.850
  111POPC  H14C14752   6.694   9.586   5.861
  111POPC   C1514753   6.837   9.400   6.005
  111POPC  H15A14754   6.889   9.494   6.015
  111POPC  H15B14755   6.882   9.350   5.920
  111POPC  H15C14756   6.860   9.340   6.093
  111POPC   C1114757   6.659   9.406   6.250
  111POPC  H11A14758   6.624   9.475   6.330
  111POPC  H11B14759   6.769   9.401   6.261
  111POPC     P14760   6.452   9.259   6.312
  111POPC   O1314761   6.411   9.387   6.373
  111POPC   O1414762   6.438   9.138   6.394
  111POPC   O1214763   6.605   9.274   6.265
  111POPC   O1114764   6.384   9.244   6.171
  111POPC    C114765   6.261   9.171   6.167
  111POPC    HA14766   6.180   9.230   6.215
  111POPC    HB14767   6.265   9.075   6.223
  111POPC    C214768   6.223   9.146   6.019
  111POPC    HS14769   6.125   9.095   6.017
  111POPC   O2114770   6.318   9.068   5.944
  111POPC   C2114771   6.377   8.959   5.992
  111POPC   O2214772   6.376   8.914   6.104
  111POPC   C2214773   6.450   8.893   5.877
  111POPC   H2R14774   6.377   8.876   5.795
  111POPC   H2S14775   6.488   8.795   5.912
  111POPC    C314776   6.202   9.285   5.950
  111POPC    HX14777   6.281   9.354   5.989
  111POPC    HY14778   6.105   9.324   5.986
  111POPC   O3114779   6.199   9.278   5.805
  111POPC   C3114780   6.297   9.339   5.738
  111POPC   O3214781   6.376   9.418   5.788
  111POPC   C3214782   6.298   9.288   5.593
  111POPC   H2X14783   6.193   9.292   5.556
  111POPC   H2Y14784   6.328   9.181   5.598
  111POPC   C2314785   6.566   8.982   5.828
  111POPC   H3R14786   6.644   8.989   5.907
  111POPC   H3S14787   6.526   9.084   5.806
  111POPC   C2414788   6.628   8.926   5.701
  111POPC   H4R14789   6.563   8.842   5.666
  111POPC   H4S14790   6.730   8.885   5.722
  111POPC   C2514791   6.633   9.025   5.587
  111POPC   H5R14792   6.711   9.103   5.607
  111POPC   H5S14793   6.534   9.076   5.582
  111POPC   C2614794   6.659   8.960   5.451
  111POPC   H6R14795   6.581   8.883   5.433
  111POPC   H6S14796   6.756   8.907   5.450
  111POPC   C2714797   6.654   9.069   5.344
  111POPC   H7R14798   6.757   9.102   5.320
  111POPC   H7S14799   6.600   9.153   5.392
  111POPC   C2814800   6.576   9.040   5.216
  111POPC   H8R14801   6.631   8.967   5.153
  111POPC   H8S14802   6.578   9.135   5.157
  111POPC   C2914803   6.434   8.995   5.239
  111POPC   H9114804   6.408   8.960   5.341
  111POPC  C21014805   6.339   8.997   5.145
  111POPC  H10114806   6.236   8.965   5.170
  111POPC  C21114807   6.363   9.044   5.004
  111POPC  H11R14808   6.321   8.973   4.931
  111POPC  H11S14809   6.471   9.050   4.979
  111POPC  C21214810   6.302   9.183   4.982
  111POPC  H12R14811   6.194   9.187   5.008
  111POPC  H12S14812   6.311   9.197   4.872
  111POPC  C21314813   6.380   9.295   5.054
  111POPC  H13R14814   6.487   9.283   5.026
  111POPC  H13S14815   6.372   9.278   5.163
  111POPC  C21414816   6.338   9.440   5.025
  111POPC  H14R14817   6.401   9.505   5.090
  111POPC  H14S14818   6.232   9.456   5.055
  111POPC  C21514819   6.360   9.489   4.880
  111POPC  H15R14820   6.464   9.469   4.847
  111POPC  H15S14821   6.346   9.600   4.881
  111POPC  C21614822   6.261   9.430   4.778
  111POPC  H16R14823   6.165   9.411   4.831
  111POPC  H16S14824   6.298   9.334   4.738
  111POPC  C21714825   6.232   9.519   4.657
  111POPC  H17R14826   6.200   9.619   4.693
  111POPC  H17S14827   6.147   9.467   4.606
  111POPC  C21814828   6.339   9.532   4.550
  111POPC  H18R14829   6.348   9.435   4.498
  111POPC  H18S14830   6.437   9.562   4.593
  111POPC  H18T14831   6.307   9.606   4.473
  111POPC   C3314832   6.390   9.363   5.493
  111POPC   H3X14833   6.344   9.461   5.466
  111POPC   H3Y14834   6.392   9.302   5.400
  111POPC   C3414835   6.535   9.386   5.539
  111POPC   H4X14836   6.571   9.295   5.591
  111POPC   H4Y14837   6.537   9.471   5.611
  111POPC   C3514838   6.632   9.419   5.425
  111POPC   H5X14839   6.628   9.339   5.349
  111POPC   H5Y14840   6.736   9.423   5.465
  111POPC   C3614841   6.602   9.549   5.351
  111POPC   H6X14842   6.607   9.632   5.424
  111POPC   H6Y14843   6.499   9.545   5.309
  111POPC   C3714844   6.701   9.575   5.236
  111POPC   H7X14845   6.801   9.598   5.278
  111POPC   H7Y14846   6.666   9.664   5.179
  111POPC   C3814847   6.715   9.457   5.138
  111POPC   H8X14848   6.614   9.417   5.116
  111POPC   H8Y14849   6.773   9.376   5.188
  111POPC   C3914850   6.785   9.493   5.006
  111POPC   H9X14851   6.876   9.551   5.033
  111POPC   H9Y14852   6.721   9.558   4.944
  111POPC  C31014853   6.829   9.369   4.927
  111POPC  H10X14854   6.856   9.288   4.999
  111POPC  H10Y14855   6.921   9.394   4.868
  111POPC  C31114856   6.726   9.316   4.827
  111POPC  H11X14857   6.720   9.385   4.741
  111POPC  H11Y14858   6.626   9.315   4.875
  111POPC  C31214859   6.758   9.172   4.781
  111POPC  H12X14860   6.760   9.107   4.872
  111POPC  H12Y14861   6.859   9.170   4.735
  111POPC  C31314862   6.655   9.114   4.684
  111POPC  H13X14863   6.555   9.121   4.734
  111POPC  H13Y14864   6.675   9.007   4.665
  111POPC  C31414865   6.648   9.189   4.550
  111POPC  H14X14866   6.677   9.123   4.466
  111POPC  H14Y14867   6.720   9.274   4.551
  111POPC  C31514868   6.509   9.247   4.526
  111POPC  H15X14869   6.515   9.321   4.443
  111POPC  H15Y14870   6.479   9.302   4.618
  111POPC  C31614871   6.400   9.143   4.493
  111POPC  H16X14872   6.303   9.194   4.475
  111POPC  H16Y14873   6.387   9.072   4.576
  111POPC  H16Z14874   6.426   9.086   4.401
  112POPC     N14875   1.680   0.681   6.371
  112POPC   C1214876   1.725   0.594   6.253
  112POPC  H12A14877   1.653   0.515   6.236
  112POPC  H12B14878   1.818   0.546   6.280
  112POPC   C1314879   1.759   0.810   6.364
  112POPC  H13A14880   1.729   0.862   6.273
  112POPC  H13B14881   1.741   0.875   6.448
  112POPC  H13C14882   1.865   0.792   6.354
  112POPC   C1414883   1.536   0.721   6.363
  112POPC  H14A14884   1.471   0.636   6.363
  112POPC  H14B14885   1.509   0.790   6.443
  112POPC  H14C14886   1.522   0.773   6.267
  112POPC   C1514887   1.713   0.616   6.502
  112POPC  H15A14888   1.821   0.598   6.508
  112POPC  H15B14889   1.664   0.521   6.515
  112POPC  H15C14890   1.686   0.681   6.584
  112POPC   C1114891   1.746   0.662   6.116
  112POPC  H11A14892   1.783   0.585   6.044
  112POPC  H11B14893   1.826   0.739   6.121
  112POPC     P14894   1.615   0.773   5.921
  112POPC   O1314895   1.750   0.772   5.859
  112POPC   O1414896   1.542   0.900   5.923
  112POPC   O1214897   1.623   0.720   6.071
  112POPC   O1114898   1.526   0.661   5.854
  112POPC    C114899   1.397   0.630   5.906
  112POPC    HA14900   1.355   0.710   5.970
  112POPC    HB14901   1.405   0.538   5.968
  112POPC    C214902   1.296   0.604   5.790
  112POPC    HS14903   1.209   0.549   5.832
  112POPC   O2114904   1.351   0.527   5.682
  112POPC   C2114905   1.426   0.425   5.712
  112POPC   O2214906   1.413   0.349   5.808
  112POPC   C2214907   1.536   0.412   5.607
  112POPC   H2R14908   1.507   0.471   5.518
  112POPC   H2S14909   1.543   0.306   5.575
  112POPC    C314910   1.240   0.737   5.731
  112POPC    HX14911   1.197   0.794   5.816
  112POPC    HY14912   1.158   0.714   5.661
  112POPC   O3114913   1.340   0.822   5.670
  112POPC   C3114914   1.372   0.795   5.545
  112POPC   O3214915   1.325   0.707   5.475
  112POPC   C3214916   1.469   0.900   5.491
  112POPC   H2X14917   1.438   0.999   5.528
  112POPC   H2Y14918   1.458   0.898   5.380
  112POPC   C2314919   1.669   0.461   5.667
  112POPC   H3R14920   1.683   0.417   5.768
  112POPC   H3S14921   1.665   0.571   5.679
  112POPC   C2414922   1.792   0.425   5.583
  112POPC   H4R14923   1.795   0.314   5.574
  112POPC   H4S14924   1.884   0.457   5.636
  112POPC   C2514925   1.789   0.490   5.444
  112POPC   H5R14926   1.836   0.591   5.447
  112POPC   H5S14927   1.683   0.507   5.415
  112POPC   C2614928   1.852   0.402   5.336
  112POPC   H6R14929   1.854   0.296   5.371
  112POPC   H6S14930   1.957   0.432   5.320
  112POPC   C2714931   1.769   0.404   5.207
  112POPC   H7R14932   1.669   0.363   5.233
  112POPC   H7S14933   1.816   0.335   5.134
  112POPC   C2814934   1.749   0.544   5.146
  112POPC   H8R14935   1.846   0.593   5.124
  112POPC   H8S14936   1.697   0.611   5.217
  112POPC   C2914937   1.672   0.526   5.019
  112POPC   H9114938   1.731   0.483   4.936
  112POPC  C21014939   1.542   0.550   4.999
  112POPC  H10114940   1.500   0.530   4.899
  112POPC  C21114941   1.442   0.600   5.101
  112POPC  H11R14942   1.487   0.612   5.201
  112POPC  H11S14943   1.359   0.527   5.112
  112POPC  C21214944   1.379   0.734   5.060
  112POPC  H12R14945   1.461   0.807   5.039
  112POPC  H12S14946   1.320   0.774   5.146
  112POPC  C21314947   1.286   0.722   4.939
  112POPC  H13R14948   1.197   0.662   4.968
  112POPC  H13S14949   1.336   0.669   4.855
  112POPC  C21414950   1.241   0.858   4.885
  112POPC  H14R14951   1.192   0.918   4.965
  112POPC  H14S14952   1.164   0.831   4.811
  112POPC  C21514953   1.354   0.935   4.813
  112POPC  H15R14954   1.377   0.875   4.722
  112POPC  H15S14955   1.445   0.936   4.876
  112POPC  C21614956   1.325   1.080   4.771
  112POPC  H16R14957   1.367   1.150   4.846
  112POPC  H16S14958   1.215   1.097   4.767
  112POPC  C21714959   1.386   1.111   4.633
  112POPC  H17R14960   1.380   1.020   4.569
  112POPC  H17S14961   1.495   1.131   4.643
  112POPC  C21814962   1.317   1.224   4.557
  112POPC  H18R14963   1.302   1.313   4.621
  112POPC  H18S14964   1.217   1.195   4.520
  112POPC  H18T14965   1.379   1.253   4.469
  112POPC   C3314966   1.615   0.871   5.530
  112POPC   H3X14967   1.644   0.768   5.497
  112POPC   H3Y14968   1.624   0.874   5.641
  112POPC   C3414969   1.715   0.971   5.471
  112POPC   H4X14970   1.817   0.944   5.509
  112POPC   H4Y14971   1.691   1.073   5.509
  112POPC   C3514972   1.717   0.973   5.318
  112POPC   H5X14973   1.622   1.016   5.279
  112POPC   H5Y14974   1.725   0.868   5.281
  112POPC   C3614975   1.835   1.054   5.263
  112POPC   H6X14976   1.930   1.001   5.286
  112POPC   H6Y14977   1.839   1.153   5.314
  112POPC   C3714978   1.826   1.078   5.112
  112POPC   H7X14979   1.914   1.139   5.081
  112POPC   H7Y14980   1.735   1.139   5.090
  112POPC   C3814981   1.822   0.950   5.028
  112POPC   H8X14982   1.730   0.892   5.050
  112POPC   H8Y14983   1.909   0.886   5.054
  112POPC   C3914984   1.828   0.983   4.879
  112POPC   H9X14985   1.921   1.040   4.865
  112POPC   H9Y14986   1.744   1.050   4.849
  112POPC  C31014987   1.831   0.860   4.789
  112POPC  H10X14988   1.888   0.779   4.840
  112POPC  H10Y14989   1.883   0.882   4.693
  112POPC  C31114990   1.689   0.814   4.757
  112POPC  H11X14991   1.642   0.882   4.682
  112POPC  H11Y14992   1.629   0.820   4.851
  112POPC  C31214993   1.683   0.669   4.710
  112POPC  H12X14994   1.576   0.637   4.714
  112POPC  H12Y14995   1.741   0.605   4.778
  112POPC  C31314996   1.737   0.645   4.570
  112POPC  H13X14997   1.849   0.643   4.573
  112POPC  H13Y14998   1.707   0.729   4.502
  112POPC  C31414999   1.684   0.513   4.515
  112POPC  H14X15000   1.691   0.434   4.593
  112POPC  H14Y15001   1.747   0.480   4.430
  112POPC  C31515002   1.539   0.526   4.469
  112POPC  H15X15003   1.528   0.616   4.403
  112POPC  H15Y15004   1.473   0.543   4.556
  112POPC  C31615005   1.491   0.404   4.392
  112POPC  H16X15006   1.536   0.402   4.290
  112POPC  H16Y15007   1.381   0.408   4.381
  112POPC  H16Z15008   1.518   0.310   4.444
  113POPC     N15009   9.103   2.501   6.057
  113POPC   C1215010   9.122   2.350   6.055
  113POPC  H12A15011   9.213   2.327   5.998
  113POPC  H12B15012   9.039   2.304   6.003
  113POPC   C1315013   9.228   2.570   6.105
  113POPC  H13A15014   9.313   2.548   6.042
  113POPC  H13B15015   9.215   2.678   6.111
  113POPC  H13C15016   9.253   2.531   6.204
  113POPC   C1415017   9.070   2.554   5.922
  113POPC  H14A15018   8.971   2.524   5.892
  113POPC  H14B15019   9.075   2.663   5.923
  113POPC  H14C15020   9.141   2.520   5.848
  113POPC   C1515021   8.993   2.539   6.152
  113POPC  H15A15022   8.896   2.507   6.116
  113POPC  H15B15023   8.989   2.646   6.165
  113POPC  H15C15024   9.012   2.492   6.248
  113POPC   C1115025   9.134   2.274   6.190
  113POPC  H11A15026   9.130   2.164   6.174
  113POPC  H11B15027   9.048   2.296   6.256
  113POPC     P15028   9.390   2.240   6.215
  113POPC   O1315029   9.390   2.096   6.251
  113POPC   O1415030   9.500   2.323   6.271
  113POPC   O1215031   9.254   2.310   6.257
  113POPC   O1115032   9.394   2.258   6.056
  113POPC    C115033   9.521   2.284   5.992
  113POPC    HA15034   9.595   2.205   6.020
  113POPC    HB15035   9.562   2.382   6.023
  113POPC    C215036   9.518   2.284   5.835
  113POPC    HS15037   9.623   2.296   5.800
  113POPC   O2115038   9.440   2.397   5.790
  113POPC   C2115039   9.438   2.418   5.660
  113POPC   O2215040   9.515   2.373   5.578
  113POPC   C2215041   9.319   2.509   5.633
  113POPC   H2R15042   9.322   2.594   5.705
  113POPC   H2S15043   9.227   2.450   5.652
  113POPC    C315044   9.460   2.151   5.776
  113POPC    HX15045   9.520   2.069   5.823
  113POPC    HY15046   9.478   2.147   5.667
  113POPC   O3115047   9.319   2.141   5.803
  113POPC   C3115048   9.276   2.023   5.844
  113POPC   O3215049   9.342   1.921   5.848
  113POPC   C3215050   9.131   2.033   5.896
  113POPC   H2X15051   9.138   2.087   5.992
  113POPC   H2Y15052   9.097   1.931   5.918
  113POPC   C2315053   9.318   2.562   5.490
  113POPC   H3R15054   9.317   2.477   5.417
  113POPC   H3S15055   9.410   2.621   5.470
  113POPC   C2415056   9.196   2.650   5.469
  113POPC   H4R15057   9.199   2.733   5.544
  113POPC   H4S15058   9.102   2.593   5.487
  113POPC   C2515059   9.194   2.711   5.330
  113POPC   H5R15060   9.292   2.758   5.308
  113POPC   H5S15061   9.116   2.790   5.330
  113POPC   C2615062   9.159   2.612   5.219
  113POPC   H6R15063   9.057   2.572   5.241
  113POPC   H6S15064   9.231   2.527   5.219
  113POPC   C2715065   9.159   2.677   5.081
  113POPC   H7R15066   9.262   2.680   5.040
  113POPC   H7S15067   9.131   2.783   5.089
  113POPC   C2815068   9.059   2.609   4.986
  113POPC   H8R15069   9.029   2.679   4.905
  113POPC   H8S15070   8.966   2.584   5.042
  113POPC   C2915071   9.120   2.485   4.926
  113POPC   H9115072   9.083   2.390   4.966
  113POPC  C21015073   9.221   2.485   4.838
  113POPC  H10115074   9.264   2.389   4.808
  113POPC  C21115075   9.292   2.606   4.782
  113POPC  H11R15076   9.245   2.702   4.814
  113POPC  H11S15077   9.290   2.605   4.671
  113POPC  C21215078   9.438   2.604   4.831
  113POPC  H12R15079   9.486   2.517   4.781
  113POPC  H12S15080   9.444   2.586   4.940
  113POPC  C21315081   9.516   2.733   4.801
  113POPC  H13R15082   9.503   2.805   4.884
  113POPC  H13S15083   9.474   2.782   4.711
  113POPC  C21415084   9.665   2.711   4.770
  113POPC  H14R15085   9.719   2.681   4.863
  113POPC  H14S15086   9.708   2.809   4.737
  113POPC  C21515087   9.691   2.608   4.660
  113POPC  H15R15088   9.672   2.505   4.696
  113POPC  H15S15089   9.797   2.612   4.632
  113POPC  C21615090   9.612   2.635   4.531
  113POPC  H16R15091   9.645   2.733   4.491
  113POPC  H16S15092   9.502   2.640   4.549
  113POPC  C21715093   9.637   2.528   4.426
  113POPC  H17R15094   9.591   2.432   4.454
  113POPC  H17S15095   9.745   2.507   4.424
  113POPC  C21815096   9.597   2.571   4.288
  113POPC  H18R15097   9.487   2.559   4.271
  113POPC  H18S15098   9.655   2.515   4.212
  113POPC  H18T15099   9.623   2.677   4.273
  113POPC   C3315100   9.031   2.106   5.804
  113POPC   H3X15101   9.065   2.210   5.787
  113POPC   H3Y15102   8.931   2.111   5.855
  113POPC   C3415103   9.011   2.036   5.669
  113POPC   H4X15104   8.937   1.954   5.678
  113POPC   H4Y15105   9.108   1.991   5.639
  113POPC   C3515106   8.972   2.134   5.558
  113POPC   H5X15107   8.905   2.210   5.602
  113POPC   H5Y15108   8.918   2.079   5.478
  113POPC   C3615109   9.095   2.202   5.497
  113POPC   H6X15110   9.163   2.124   5.453
  113POPC   H6Y15111   9.153   2.253   5.577
  113POPC   C3715112   9.058   2.304   5.389
  113POPC   H7X15113   9.117   2.396   5.407
  113POPC   H7Y15114   8.951   2.331   5.397
  113POPC   C3815115   9.092   2.257   5.247
  113POPC   H8X15116   9.201   2.232   5.245
  113POPC   H8Y15117   9.076   2.343   5.178
  113POPC   C3915118   9.011   2.137   5.196
  113POPC   H9X15119   8.904   2.154   5.218
  113POPC   H9Y15120   9.043   2.045   5.249
  113POPC  C31015121   9.026   2.117   5.044
  113POPC  H10X15122   8.991   2.209   4.993
  113POPC  H10Y15123   8.961   2.034   5.010
  113POPC  C31115124   9.171   2.088   5.006
  113POPC  H11X15125   9.200   1.989   5.049
  113POPC  H11Y15126   9.238   2.165   5.051
  113POPC  C31215127   9.197   2.090   4.856
  113POPC  H12X15128   9.165   2.189   4.816
  113POPC  H12Y15129   9.137   2.012   4.805
  113POPC  C31315130   9.346   2.068   4.831
  113POPC  H13X15131   9.373   1.969   4.872
  113POPC  H13Y15132   9.405   2.144   4.888
  113POPC  C31415133   9.383   2.078   4.683
  113POPC  H14X15134   9.317   2.011   4.623
  113POPC  H14Y15135   9.487   2.043   4.669
  113POPC  C31515136   9.372   2.222   4.632
  113POPC  H15X15137   9.429   2.288   4.701
  113POPC  H15Y15138   9.265   2.254   4.635
  113POPC  C31615139   9.424   2.242   4.490
  113POPC  H16X15140   9.379   2.169   4.420
  113POPC  H16Y15141   9.534   2.231   4.488
  113POPC  H16Z15142   9.399   2.345   4.457
  114POPC     N15143   7.585   9.147   6.298
  114POPC   C1215144   7.444   9.106   6.340
  114POPC  H12A15145   7.412   9.165   6.425
  114POPC  H12B15146   7.446   9.003   6.374
  114POPC   C1315147   7.676   9.148   6.416
  114POPC  H13A15148   7.650   9.225   6.487
  114POPC  H13B15149   7.678   9.053   6.467
  114POPC  H13C15150   7.779   9.168   6.384
  114POPC   C1415151   7.634   9.051   6.193
  114POPC  H14A15152   7.554   9.036   6.120
  114POPC  H14B15153   7.722   9.088   6.141
  114POPC  H14C15154   7.653   8.953   6.234
  114POPC   C1515155   7.586   9.283   6.237
  114POPC  H15A15156   7.686   9.312   6.201
  114POPC  H15B15157   7.554   9.360   6.305
  114POPC  H15C15158   7.520   9.283   6.151
  114POPC   C1115159   7.333   9.112   6.233
  114POPC  H11A15160   7.330   9.213   6.187
  114POPC  H11B15161   7.235   9.095   6.285
  114POPC     P15162   7.256   9.013   6.010
  114POPC   O1315163   7.116   9.022   6.058
  114POPC   O1415164   7.291   8.898   5.922
  114POPC   O1215165   7.354   9.008   6.137
  114POPC   O1115166   7.302   9.152   5.945
  114POPC    C115167   7.437   9.169   5.898
  114POPC    HA15168   7.445   9.137   5.792
  114POPC    HB15169   7.509   9.108   5.956
  114POPC    C215170   7.488   9.317   5.906
  114POPC    HS15171   7.464   9.359   6.006
  114POPC   O2115172   7.416   9.392   5.807
  114POPC   C2115173   7.460   9.502   5.751
  114POPC   O2215174   7.556   9.570   5.780
  114POPC   C2215175   7.368   9.527   5.633
  114POPC   H2R15176   7.426   9.589   5.562
  114POPC   H2S15177   7.280   9.584   5.668
  114POPC    C315178   7.643   9.320   5.886
  114POPC    HX15179   7.689   9.262   5.969
  114POPC    HY15180   7.682   9.423   5.900
  114POPC   O3115181   7.683   9.272   5.756
  114POPC   C3115182   7.737   9.151   5.752
  114POPC   O3215183   7.747   9.073   5.846
  114POPC   C3215184   7.778   9.120   5.608
  114POPC   H2X15185   7.871   9.060   5.611
  114POPC   H2Y15186   7.799   9.216   5.557
  114POPC   C2315187   7.323   9.392   5.569
  114POPC   H3R15188   7.267   9.329   5.642
  114POPC   H3S15189   7.413   9.335   5.538
  114POPC   C2415190   7.234   9.412   5.447
  114POPC   H4R15191   7.134   9.449   5.478
  114POPC   H4S15192   7.221   9.314   5.397
  114POPC   C2515193   7.297   9.513   5.352
  114POPC   H5R15194   7.404   9.490   5.333
  114POPC   H5S15195   7.291   9.614   5.398
  114POPC   C2615196   7.222   9.520   5.220
  114POPC   H6R15197   7.244   9.620   5.175
  114POPC   H6S15198   7.113   9.514   5.240
  114POPC   C2715199   7.266   9.409   5.123
  114POPC   H7R15200   7.278   9.312   5.178
  114POPC   H7S15201   7.366   9.435   5.082
  114POPC   C2815202   7.166   9.390   5.009
  114POPC   H8R15203   7.073   9.347   5.050
  114POPC   H8S15204   7.206   9.318   4.934
  114POPC   C2915205   7.144   9.528   4.954
  114POPC   H9115206   7.081   9.592   5.019
  114POPC  C21015207   7.189   9.580   4.840
  114POPC  H10115208   7.167   9.685   4.818
  114POPC  C21115209   7.274   9.509   4.739
  114POPC  H11R15210   7.333   9.426   4.783
  114POPC  H11S15211   7.346   9.580   4.693
  114POPC  C21215212   7.172   9.460   4.636
  114POPC  H12R15213   7.119   9.550   4.595
  114POPC  H12S15214   7.096   9.395   4.685
  114POPC  C21315215   7.225   9.382   4.515
  114POPC  H13R15216   7.146   9.391   4.438
  114POPC  H13S15217   7.233   9.274   4.537
  114POPC  C21415218   7.354   9.434   4.454
  114POPC  H14R15219   7.388   9.362   4.376
  114POPC  H14S15220   7.434   9.441   4.531
  114POPC  C21515221   7.334   9.570   4.387
  114POPC  H15R15222   7.315   9.647   4.465
  114POPC  H15S15223   7.244   9.570   4.323
  114POPC  C21615224   7.457   9.607   4.304
  114POPC  H16R15225   7.548   9.561   4.349
  114POPC  H16S15226   7.468   9.717   4.306
  114POPC  C21715227   7.444   9.572   4.156
  114POPC  H17R15228   7.402   9.469   4.145
  114POPC  H17S15229   7.546   9.572   4.110
  114POPC  C21815230   7.356   9.676   4.086
  114POPC  H18R15231   7.398   9.778   4.102
  114POPC  H18S15232   7.254   9.675   4.131
  114POPC  H18T15233   7.347   9.656   3.978
  114POPC   C3315234   7.667   9.044   5.533
  114POPC   H3X15235   7.575   9.106   5.531
  114POPC   H3Y15236   7.643   8.950   5.587
  114POPC   C3415237   7.705   9.009   5.389
  114POPC   H4X15238   7.621   8.949   5.345
  114POPC   H4Y15239   7.795   8.943   5.388
  114POPC   C3515240   7.728   9.132   5.300
  114POPC   H5X15241   7.828   9.175   5.321
  114POPC   H5Y15242   7.652   9.209   5.326
  114POPC   C3615243   7.715   9.099   5.150
  114POPC   H6X15244   7.724   9.193   5.091
  114POPC   H6Y15245   7.612   9.059   5.132
  114POPC   C3715246   7.817   8.996   5.101
  114POPC   H7X15247   7.818   8.909   5.170
  114POPC   H7Y15248   7.919   9.041   5.103
  114POPC   C3815249   7.785   8.943   4.960
  114POPC   H8X15250   7.680   8.907   4.961
  114POPC   H8Y15251   7.851   8.856   4.938
  114POPC   C3915252   7.804   9.047   4.849
  114POPC   H9X15253   7.911   9.077   4.848
  114POPC   H9Y15254   7.744   9.138   4.871
  114POPC  C31015255   7.766   8.992   4.711
  114POPC  H10X15256   7.822   8.897   4.694
  114POPC  H10Y15257   7.799   9.064   4.633
  114POPC  C31115258   7.616   8.967   4.692
  114POPC  H11X15259   7.579   8.897   4.770
  114POPC  H11Y15260   7.600   8.918   4.594
  114POPC  C31215261   7.534   9.097   4.697
  114POPC  H12X15262   7.586   9.175   4.636
  114POPC  H12Y15263   7.531   9.134   4.802
  114POPC  C31315264   7.390   9.085   4.646
  114POPC  H13X15265   7.390   9.083   4.536
  114POPC  H13Y15266   7.337   9.177   4.679
  114POPC  C31415267   7.313   8.963   4.702
  114POPC  H14X15268   7.343   8.954   4.810
  114POPC  H14Y15269   7.346   8.870   4.652
  114POPC  C31515270   7.160   8.976   4.699
  114POPC  H15X15271   7.131   9.077   4.736
  114POPC  H15Y15272   7.120   8.901   4.771
  114POPC  C31615273   7.091   8.950   4.565
  114POPC  H16X15274   6.981   8.960   4.574
  114POPC  H16Y15275   7.112   8.846   4.530
  114POPC  H16Z15276   7.126   9.021   4.487
  115POPC     N15277   1.213   8.850   6.264
  115POPC   C1215278   1.239   8.817   6.117
  115POPC  H12A15279   1.321   8.745   6.114
  115POPC  H12B15280   1.276   8.905   6.067
  115POPC   C1315281   1.222   8.723   6.344
  115POPC  H13A15282   1.158   8.649   6.296
  115POPC  H13B15283   1.323   8.682   6.344
  115POPC  H13C15284   1.188   8.737   6.446
  115POPC   C1415285   1.309   8.951   6.317
  115POPC  H14A15286   1.336   9.025   6.241
  115POPC  H14B15287   1.264   9.003   6.400
  115POPC  H14C15288   1.401   8.905   6.351
  115POPC   C1515289   1.072   8.898   6.277
  115POPC  H15A15290   1.005   8.827   6.229
  115POPC  H15B15291   1.058   8.996   6.233
  115POPC  H15C15292   1.044   8.902   6.382
  115POPC   C1115293   1.124   8.758   6.034
  115POPC  H11A15294   1.156   8.747   5.928
  115POPC  H11B15295   1.037   8.827   6.031
  115POPC     P15296   1.154   8.496   6.055
  115POPC   O1315297   1.069   8.390   6.114
  115POPC   O1415298   1.294   8.511   6.102
  115POPC   O1215299   1.081   8.634   6.089
  115POPC   O1115300   1.145   8.494   5.897
  115POPC    C115301   1.012   8.484   5.843
  115POPC    HA15302   0.946   8.566   5.880
  115POPC    HB15303   0.965   8.387   5.871
  115POPC    C215304   1.016   8.495   5.689
  115POPC    HS15305   0.916   8.471   5.647
  115POPC   O2115306   1.116   8.406   5.636
  115POPC   C2115307   1.079   8.279   5.636
  115POPC   O2215308   0.970   8.235   5.668
  115POPC   C2215309   1.192   8.197   5.575
  115POPC   H2R15310   1.201   8.109   5.638
  115POPC   H2S15311   1.287   8.255   5.579
  115POPC    C315312   1.047   8.641   5.646
  115POPC    HX15313   1.116   8.683   5.723
  115POPC    HY15314   0.953   8.700   5.650
  115POPC   O3115315   1.111   8.656   5.519
  115POPC   C3115316   1.065   8.592   5.414
  115POPC   O3215317   0.964   8.525   5.407
  115POPC   C3215318   1.158   8.620   5.296
  115POPC   H2X15319   1.223   8.532   5.281
  115POPC   H2Y15320   1.222   8.707   5.322
  115POPC   C2315321   1.165   8.144   5.432
  115POPC   H3R15322   1.102   8.053   5.439
  115POPC   H3S15323   1.261   8.112   5.386
  115POPC   C2415324   1.096   8.248   5.343
  115POPC   H4R15325   1.160   8.338   5.337
  115POPC   H4S15326   0.999   8.277   5.389
  115POPC   C2515327   1.064   8.200   5.201
  115POPC   H5R15328   1.021   8.286   5.143
  115POPC   H5S15329   0.987   8.122   5.209
  115POPC   C2615330   1.182   8.139   5.127
  115POPC   H6R15331   1.187   8.032   5.157
  115POPC   H6S15332   1.277   8.186   5.161
  115POPC   C2715333   1.169   8.147   4.974
  115POPC   H7R15334   1.064   8.122   4.945
  115POPC   H7S15335   1.235   8.073   4.927
  115POPC   C2815336   1.210   8.282   4.915
  115POPC   H8R15337   1.144   8.361   4.957
  115POPC   H8S15338   1.191   8.279   4.805
  115POPC   C2915339   1.355   8.312   4.944
  115POPC   H9115340   1.373   8.367   5.038
  115POPC  C21015341   1.463   8.273   4.874
  115POPC  H10115342   1.562   8.305   4.908
  115POPC  C21115343   1.464   8.188   4.749
  115POPC  H11R15344   1.370   8.130   4.739
  115POPC  H11S15345   1.547   8.114   4.756
  115POPC  C21215346   1.483   8.268   4.620
  115POPC  H12R15347   1.528   8.202   4.542
  115POPC  H12S15348   1.553   8.351   4.639
  115POPC  C21315349   1.351   8.323   4.565
  115POPC  H13R15350   1.303   8.386   4.643
  115POPC  H13S15351   1.282   8.239   4.543
  115POPC  C21415352   1.370   8.409   4.439
  115POPC  H14R15353   1.271   8.452   4.412
  115POPC  H14S15354   1.403   8.345   4.355
  115POPC  C21515355   1.471   8.523   4.457
  115POPC  H15R15356   1.575   8.483   4.451
  115POPC  H15S15357   1.458   8.565   4.559
  115POPC  C21615358   1.451   8.634   4.355
  115POPC  H16R15359   1.500   8.728   4.391
  115POPC  H16S15360   1.342   8.655   4.346
  115POPC  C21715361   1.508   8.599   4.217
  115POPC  H17R15362   1.490   8.491   4.195
  115POPC  H17S15363   1.618   8.615   4.219
  115POPC  C21815364   1.445   8.683   4.106
  115POPC  H18R15365   1.450   8.790   4.133
  115POPC  H18S15366   1.338   8.655   4.093
  115POPC  H18T15367   1.499   8.667   4.010
  115POPC   C3315368   1.080   8.652   5.166
  115POPC   H3X15369   0.993   8.717   5.188
  115POPC   H3Y15370   1.040   8.558   5.121
  115POPC   C3415371   1.170   8.725   5.065
  115POPC   H4X15372   1.226   8.806   5.118
  115POPC   H4Y15373   1.106   8.773   4.988
  115POPC   C3515374   1.269   8.629   4.999
  115POPC   H5X15375   1.212   8.556   4.937
  115POPC   H5Y15376   1.321   8.572   5.079
  115POPC   C3615377   1.375   8.695   4.911
  115POPC   H6X15378   1.470   8.638   4.923
  115POPC   H6Y15379   1.394   8.799   4.944
  115POPC   C3715380   1.339   8.691   4.762
  115POPC   H7X15381   1.326   8.584   4.731
  115POPC   H7Y15382   1.423   8.733   4.703
  115POPC   C3815383   1.211   8.768   4.727
  115POPC   H8X15384   1.222   8.871   4.766
  115POPC   H8Y15385   1.124   8.721   4.778
  115POPC   C3915386   1.182   8.773   4.577
  115POPC   H9X15387   1.154   8.672   4.542
  115POPC   H9Y15388   1.275   8.803   4.523
  115POPC  C31015389   1.072   8.875   4.546
  115POPC  H10X15390   1.112   8.975   4.572
  115POPC  H10Y15391   0.984   8.855   4.612
  115POPC  C31115392   1.025   8.876   4.400
  115POPC  H11X15393   1.112   8.888   4.333
  115POPC  H11Y15394   0.958   8.965   4.385
  115POPC  C31215395   0.946   8.750   4.361
  115POPC  H12X15396   0.862   8.736   4.432
  115POPC  H12Y15397   1.013   8.662   4.371
  115POPC  C31315398   0.891   8.758   4.218
  115POPC  H13X15399   0.975   8.769   4.146
  115POPC  H13Y15400   0.829   8.851   4.211
  115POPC  C31415401   0.802   8.639   4.178
  115POPC  H14X15402   0.754   8.668   4.082
  115POPC  H14Y15403   0.721   8.625   4.252
  115POPC  C31515404   0.876   8.507   4.152
  115POPC  H15X15405   0.966   8.527   4.090
  115POPC  H15Y15406   0.808   8.442   4.091
  115POPC  C31615407   0.914   8.426   4.276
  115POPC  H16X15408   0.842   8.444   4.359
  115POPC  H16Y15409   1.015   8.454   4.312
  115POPC  H16Z15410   0.915   8.317   4.254
  116POPC     N15411   0.853   0.923   6.142
  116POPC   C1215412   0.792   1.045   6.208
  116POPC  H12A15413   0.687   1.030   6.227
  116POPC  H12B15414   0.797   1.127   6.136
  116POPC   C1315415   1.002   0.938   6.143
  116POPC  H13A15416   1.037   0.940   6.247
  116POPC  H13B15417   1.056   0.861   6.091
  116POPC  H13C15418   1.033   1.037   6.109
  116POPC   C1415419   0.814   0.798   6.214
  116POPC  H14A15420   0.836   0.711   6.154
  116POPC  H14B15421   0.865   0.788   6.309
  116POPC  H14C15422   0.707   0.796   6.233
  116POPC   C1515423   0.809   0.918   6.000
  116POPC  H15A15424   0.701   0.908   5.992
  116POPC  H15B15425   0.852   0.832   5.949
  116POPC  H15C15426   0.838   1.009   5.947
  116POPC   C1115427   0.862   1.100   6.334
  116POPC  H11A15428   0.874   1.020   6.409
  116POPC  H11B15429   0.797   1.178   6.379
  116POPC     P15430   0.997   1.291   6.217
  116POPC   O1315431   1.140   1.323   6.202
  116POPC   O1415432   0.910   1.389   6.288
  116POPC   O1215433   0.989   1.157   6.303
  116POPC   O1115434   0.932   1.243   6.078
  116POPC    C115435   0.918   1.322   5.960
  116POPC    HA15436   1.015   1.372   5.933
  116POPC    HB15437   0.845   1.404   5.978
  116POPC    C215438   0.876   1.239   5.831
  116POPC    HS15439   0.880   1.306   5.742
  116POPC   O2115440   0.743   1.178   5.836
  116POPC   C2115441   0.644   1.269   5.818
  116POPC   O2215442   0.654   1.386   5.848
  116POPC   C2215443   0.515   1.207   5.762
  116POPC   H2R15444   0.434   1.229   5.835
  116POPC   H2S15445   0.531   1.099   5.759
  116POPC    C315446   0.986   1.128   5.808
  116POPC    HX15447   1.021   1.095   5.908
  116POPC    HY15448   1.073   1.182   5.763
  116POPC   O3115449   0.942   1.011   5.732
  116POPC   C3115450   1.007   0.987   5.617
  116POPC   O3215451   1.103   1.049   5.576
  116POPC   C3215452   0.940   0.868   5.547
  116POPC   H2X15453   0.841   0.906   5.516
  116POPC   H2Y15454   0.923   0.787   5.621
  116POPC   C2315455   0.467   1.257   5.623
  116POPC   H3R15456   0.477   1.368   5.615
  116POPC   H3S15457   0.358   1.235   5.615
  116POPC   C2415458   0.535   1.187   5.504
  116POPC   H4R15459   0.644   1.209   5.504
  116POPC   H4S15460   0.492   1.230   5.410
  116POPC   C2515461   0.510   1.036   5.503
  116POPC   H5R15462   0.399   1.021   5.501
  116POPC   H5S15463   0.547   0.989   5.597
  116POPC   C2615464   0.574   0.955   5.391
  116POPC   H6R15465   0.521   0.858   5.393
  116POPC   H6S15466   0.680   0.934   5.412
  116POPC   C2715467   0.570   1.019   5.251
  116POPC   H7R15468   0.631   1.112   5.252
  116POPC   H7S15469   0.465   1.052   5.234
  116POPC   C2815470   0.615   0.927   5.136
  116POPC   H8R15471   0.725   0.931   5.123
  116POPC   H8S15472   0.575   0.966   5.040
  116POPC   C2915473   0.572   0.785   5.160
  116POPC   H9115474   0.473   0.774   5.208
  116POPC  C21015475   0.638   0.674   5.126
  116POPC  H10115476   0.594   0.578   5.155
  116POPC  C21115477   0.771   0.672   5.056
  116POPC  H11R15478   0.826   0.580   5.083
  116POPC  H11S15479   0.837   0.755   5.089
  116POPC  C21215480   0.748   0.682   4.904
  116POPC  H12R15481   0.695   0.778   4.884
  116POPC  H12S15482   0.682   0.599   4.870
  116POPC  C21315483   0.875   0.682   4.817
  116POPC  H13R15484   0.927   0.584   4.827
  116POPC  H13S15485   0.942   0.762   4.854
  116POPC  C21415486   0.841   0.707   4.669
  116POPC  H14R15487   0.776   0.796   4.660
  116POPC  H14S15488   0.785   0.620   4.630
  116POPC  C21515489   0.962   0.734   4.579
  116POPC  H15R15490   0.931   0.721   4.472
  116POPC  H15S15491   1.042   0.660   4.600
  116POPC  C21615492   1.016   0.877   4.595
  116POPC  H16R15493   1.029   0.899   4.702
  116POPC  H16S15494   0.945   0.955   4.566
  116POPC  C21715495   1.146   0.899   4.518
  116POPC  H17R15496   1.220   0.820   4.541
  116POPC  H17S15497   1.182   0.996   4.558
  116POPC  C21815498   1.133   0.918   4.367
  116POPC  H18R15499   1.231   0.903   4.316
  116POPC  H18S15500   1.099   1.021   4.345
  116POPC  H18T15501   1.058   0.849   4.325
  116POPC   C3315502   1.008   0.804   5.421
  116POPC   H3X15503   0.931   0.741   5.370
  116POPC   H3Y15504   1.088   0.733   5.452
  116POPC   C3415505   1.065   0.899   5.315
  116POPC   H4X15506   1.094   0.837   5.226
  116POPC   H4Y15507   1.159   0.947   5.351
  116POPC   C3515508   0.965   1.006   5.271
  116POPC   H5X15509   0.963   1.089   5.345
  116POPC   H5Y15510   0.865   0.959   5.270
  116POPC   C3615511   0.994   1.060   5.131
  116POPC   H6X15512   0.998   0.973   5.062
  116POPC   H6Y15513   1.094   1.110   5.127
  116POPC   C3715514   0.886   1.156   5.082
  116POPC   H7X15515   0.906   1.259   5.116
  116POPC   H7Y15516   0.789   1.129   5.127
  116POPC   C3815517   0.873   1.150   4.931
  116POPC   H8X15518   0.848   1.046   4.898
  116POPC   H8Y15519   0.972   1.176   4.887
  116POPC   C3915520   0.767   1.246   4.879
  116POPC   H9X15521   0.752   1.325   4.956
  116POPC   H9Y15522   0.669   1.194   4.868
  116POPC  C31015523   0.810   1.311   4.748
  116POPC  H10X15524   0.916   1.343   4.753
  116POPC  H10Y15525   0.746   1.400   4.729
  116POPC  C31115526   0.785   1.217   4.633
  116POPC  H11X15527   0.678   1.189   4.647
  116POPC  H11Y15528   0.847   1.125   4.642
  116POPC  C31215529   0.799   1.276   4.492
  116POPC  H12X15530   0.900   1.255   4.453
  116POPC  H12Y15531   0.785   1.386   4.493
  116POPC  C31315532   0.692   1.214   4.401
  116POPC  H13X15533   0.712   1.239   4.294
  116POPC  H13Y15534   0.594   1.260   4.427
  116POPC  C31415535   0.677   1.061   4.420
  116POPC  H14X15536   0.584   1.028   4.373
  116POPC  H14Y15537   0.659   1.035   4.526
  116POPC  C31515538   0.792   0.972   4.372
  116POPC  H15X15539   0.800   0.895   4.451
  116POPC  H15Y15540   0.886   1.031   4.371
  116POPC  C31615541   0.776   0.892   4.242
  116POPC  H16X15542   0.680   0.837   4.242
  116POPC  H16Y15543   0.858   0.818   4.233
  116POPC  H16Z15544   0.779   0.957   4.153
  117POPC     N15545   0.681   8.036   6.404
  117POPC   C1215546   0.577   8.127   6.341
  117POPC  H12A15547   0.629   8.220   6.317
  117POPC  H12B15548   0.500   8.145   6.415
  117POPC   C1315549   0.622   7.902   6.433
  117POPC  H13A15550   0.699   7.831   6.465
  117POPC  H13B15551   0.545   7.906   6.509
  117POPC  H13C15552   0.580   7.861   6.341
  117POPC   C1415553   0.797   8.019   6.309
  117POPC  H14A15554   0.836   8.116   6.279
  117POPC  H14B15555   0.878   7.958   6.345
  117POPC  H14C15556   0.762   7.976   6.215
  117POPC   C1515557   0.733   8.101   6.527
  117POPC  H15A15558   0.795   8.030   6.581
  117POPC  H15B15559   0.654   8.136   6.591
  117POPC  H15C15560   0.798   8.185   6.500
  117POPC   C1115561   0.510   8.082   6.210
  117POPC  H11A15562   0.438   8.162   6.180
  117POPC  H11B15563   0.451   7.988   6.226
  117POPC     P15564   0.598   8.116   5.963
  117POPC   O1315565   0.699   8.223   5.946
  117POPC   O1415566   0.455   8.149   5.939
  117POPC   O1215567   0.609   8.061   6.112
  117POPC   O1115568   0.641   7.986   5.881
  117POPC    C115569   0.777   7.940   5.896
  117POPC    HA15570   0.787   7.876   5.987
  117POPC    HB15571   0.848   8.026   5.906
  117POPC    C215572   0.830   7.859   5.773
  117POPC    HS15573   0.940   7.849   5.787
  117POPC   O2115574   0.797   7.931   5.652
  117POPC   C2115575   0.878   7.909   5.550
  117POPC   O2215576   0.976   7.836   5.551
  117POPC   C2215577   0.834   7.991   5.428
  117POPC   H2R15578   0.919   7.990   5.357
  117POPC   H2S15579   0.815   8.095   5.462
  117POPC    C315580   0.770   7.715   5.774
  117POPC    HX15581   0.716   7.701   5.870
  117POPC    HY15582   0.855   7.642   5.774
  117POPC   O3115583   0.689   7.689   5.658
  117POPC   C3115584   0.563   7.656   5.679
  117POPC   O3215585   0.512   7.628   5.786
  117POPC   C3215586   0.490   7.664   5.546
  117POPC   H2X15587   0.547   7.733   5.479
  117POPC   H2Y15588   0.392   7.711   5.566
  117POPC   C2315589   0.709   7.933   5.360
  117POPC   H3R15590   0.628   7.932   5.437
  117POPC   H3S15591   0.727   7.828   5.329
  117POPC   C2415592   0.656   8.016   5.241
  117POPC   H4R15593   0.641   8.120   5.276
  117POPC   H4S15594   0.555   7.976   5.216
  117POPC   C2515595   0.740   8.019   5.111
  117POPC   H5R15596   0.817   8.097   5.117
  117POPC   H5S15597   0.671   8.054   5.031
  117POPC   C2615598   0.802   7.887   5.064
  117POPC   H6R15599   0.742   7.802   5.102
  117POPC   H6S15600   0.905   7.877   5.105
  117POPC   C2715601   0.809   7.879   4.910
  117POPC   H7R15602   0.882   7.956   4.874
  117POPC   H7S15603   0.712   7.907   4.866
  117POPC   C2815604   0.846   7.743   4.847
  117POPC   H8R15605   0.954   7.736   4.865
  117POPC   H8S15606   0.836   7.755   4.737
  117POPC   C2915607   0.785   7.612   4.895
  117POPC   H9115608   0.794   7.595   5.004
  117POPC  C21015609   0.718   7.522   4.822
  117POPC  H10115610   0.682   7.428   4.868
  117POPC  C21115611   0.689   7.540   4.678
  117POPC  H11R15612   0.644   7.450   4.632
  117POPC  H11S15613   0.782   7.565   4.622
  117POPC  C21215614   0.591   7.657   4.672
  117POPC  H12R15615   0.607   7.737   4.748
  117POPC  H12S15616   0.487   7.621   4.689
  117POPC  C21315617   0.609   7.727   4.540
  117POPC  H13R15618   0.594   7.652   4.459
  117POPC  H13S15619   0.714   7.763   4.533
  117POPC  C21415620   0.516   7.846   4.526
  117POPC  H14R15621   0.526   7.912   4.615
  117POPC  H14S15622   0.410   7.814   4.520
  117POPC  C21515623   0.557   7.924   4.403
  117POPC  H15R15624   0.646   7.983   4.431
  117POPC  H15S15625   0.473   7.989   4.370
  117POPC  C21615626   0.602   7.836   4.286
  117POPC  H16R15627   0.534   7.749   4.280
  117POPC  H16S15628   0.704   7.798   4.307
  117POPC  C21715629   0.596   7.913   4.155
  117POPC  H17R15630   0.490   7.944   4.144
  117POPC  H17S15631   0.619   7.844   4.071
  117POPC  C21815632   0.686   8.036   4.148
  117POPC  H18R15633   0.773   8.015   4.083
  117POPC  H18S15634   0.724   8.065   4.248
  117POPC  H18T15635   0.636   8.124   4.105
  117POPC   C3315636   0.473   7.528   5.478
  117POPC   H3X15637   0.395   7.470   5.532
  117POPC   H3Y15638   0.565   7.466   5.480
  117POPC   C3415639   0.431   7.546   5.332
  117POPC   H4X15640   0.369   7.638   5.326
  117POPC   H4Y15641   0.371   7.456   5.304
  117POPC   C3515642   0.544   7.558   5.230
  117POPC   H5X15643   0.621   7.480   5.256
  117POPC   H5Y15644   0.594   7.657   5.234
  117POPC   C3615645   0.500   7.525   5.087
  117POPC   H6X15646   0.441   7.431   5.087
  117POPC   H6Y15647   0.593   7.500   5.035
  117POPC   C3715648   0.423   7.632   5.004
  117POPC   H7X15649   0.319   7.641   5.041
  117POPC   H7Y15650   0.417   7.595   4.899
  117POPC   C3815651   0.474   7.776   5.003
  117POPC   H8X15652   0.577   7.775   4.962
  117POPC   H8Y15653   0.479   7.814   5.107
  117POPC   C3915654   0.385   7.869   4.917
  117POPC   H9X15655   0.284   7.874   4.962
  117POPC   H9Y15656   0.376   7.825   4.816
  117POPC  C31015657   0.443   8.011   4.905
  117POPC  H10X15658   0.547   7.999   4.870
  117POPC  H10Y15659   0.446   8.060   5.005
  117POPC  C31115660   0.377   8.104   4.801
  117POPC  H11X15661   0.274   8.129   4.835
  117POPC  H11Y15662   0.369   8.049   4.705
  117POPC  C31215663   0.458   8.234   4.776
  117POPC  H12X15664   0.457   8.296   4.868
  117POPC  H12Y15665   0.406   8.291   4.697
  117POPC  C31315666   0.605   8.209   4.736
  117POPC  H13X15667   0.611   8.117   4.673
  117POPC  H13Y15668   0.665   8.191   4.828
  117POPC  C31415669   0.672   8.324   4.658
  117POPC  H14X15670   0.779   8.297   4.641
  117POPC  H14Y15671   0.670   8.418   4.717
  117POPC  C31515672   0.612   8.352   4.520
  117POPC  H15X15673   0.674   8.431   4.473
  117POPC  H15Y15674   0.508   8.388   4.530
  117POPC  C31615675   0.612   8.234   4.425
  117POPC  H16X15676   0.607   8.266   4.318
  117POPC  H16Y15677   0.523   8.171   4.447
  117POPC  H16Z15678   0.705   8.175   4.439
  118POPC     N15679   9.203   7.297   6.123
  118POPC   C1215680   9.210   7.435   6.058
  118POPC  H12A15681   9.128   7.445   5.987
  118POPC  H12B15682   9.301   7.443   5.998
  118POPC   C1315683   9.329   7.275   6.200
  118POPC  H13A15684   9.322   7.192   6.269
  118POPC  H13B15685   9.415   7.261   6.135
  118POPC  H13C15686   9.350   7.367   6.256
  118POPC   C1415687   9.086   7.288   6.215
  118POPC  H14A15688   9.089   7.372   6.285
  118POPC  H14B15689   8.990   7.295   6.165
  118POPC  H14C15690   9.086   7.198   6.275
  118POPC   C1515691   9.192   7.194   6.017
  118POPC  H15A15692   9.183   7.095   6.062
  118POPC  H15B15693   9.278   7.192   5.951
  118POPC  H15C15694   9.105   7.216   5.955
  118POPC   C1115695   9.210   7.557   6.153
  118POPC  H11A15696   9.126   7.549   6.226
  118POPC  H11B15697   9.189   7.648   6.092
  118POPC     P15698   9.442   7.677   6.188
  118POPC   O1315699   9.547   7.667   6.290
  118POPC   O1415700   9.373   7.808   6.178
  118POPC   O1215701   9.333   7.565   6.224
  118POPC   O1115702   9.499   7.628   6.049
  118POPC    C115703   9.540   7.720   5.949
  118POPC    HA15704   9.599   7.663   5.874
  118POPC    HB15705   9.608   7.799   5.990
  118POPC    C215706   9.419   7.785   5.878
  118POPC    HS15707   9.384   7.869   5.941
  118POPC   O2115708   9.315   7.685   5.863
  118POPC   C2115709   9.202   7.727   5.813
  118POPC   O2215710   9.165   7.842   5.800
  118POPC   C2215711   9.124   7.604   5.764
  118POPC   H2R15712   9.035   7.643   5.711
  118POPC   H2S15713   9.089   7.545   5.849
  118POPC    C315714   9.464   7.842   5.740
  118POPC    HX15715   9.569   7.877   5.748
  118POPC    HY15716   9.398   7.930   5.719
  118POPC   O3115717   9.448   7.741   5.639
  118POPC   C3115718   9.476   7.783   5.517
  118POPC   O3215719   9.546   7.878   5.489
  118POPC   C3215720   9.396   7.700   5.418
  118POPC   H2X15721   9.289   7.715   5.442
  118POPC   H2Y15722   9.423   7.595   5.437
  118POPC   C2315723   9.212   7.521   5.667
  118POPC   H3R15724   9.309   7.493   5.714
  118POPC   H3S15725   9.235   7.586   5.582
  118POPC   C2415726   9.147   7.396   5.608
  118POPC   H4R15727   9.130   7.323   5.690
  118POPC   H4S15728   9.216   7.349   5.535
  118POPC   C2515729   9.014   7.424   5.537
  118POPC   H5R15730   8.944   7.475   5.606
  118POPC   H5S15731   8.967   7.327   5.508
  118POPC   C2615732   9.026   7.506   5.408
  118POPC   H6R15733   9.086   7.449   5.333
  118POPC   H6S15734   9.078   7.603   5.427
  118POPC   C2715735   8.887   7.538   5.354
  118POPC   H7R15736   8.857   7.635   5.399
  118POPC   H7S15737   8.814   7.467   5.398
  118POPC   C2815738   8.870   7.547   5.200
  118POPC   H8R15739   8.920   7.640   5.170
  118POPC   H8S15740   8.761   7.565   5.185
  118POPC   C2915741   8.913   7.435   5.108
  118POPC   H9115742   8.856   7.342   5.114
  118POPC  C21015743   9.014   7.444   5.019
  118POPC  H10115744   9.037   7.357   4.954
  118POPC  C21115745   9.102   7.565   4.998
  118POPC  H11R15746   9.205   7.531   4.988
  118POPC  H11S15747   9.105   7.626   5.091
  118POPC  C21215748   9.076   7.663   4.882
  118POPC  H12R15749   9.099   7.764   4.924
  118POPC  H12S15750   8.969   7.661   4.852
  118POPC  C21315751   9.168   7.647   4.759
  118POPC  H13R15752   9.132   7.563   4.696
  118POPC  H13S15753   9.271   7.621   4.795
  118POPC  C21415754   9.182   7.774   4.674
  118POPC  H14R15755   9.222   7.856   4.737
  118POPC  H14S15756   9.082   7.806   4.637
  118POPC  C21515757   9.276   7.754   4.554
  118POPC  H15R15758   9.233   7.677   4.486
  118POPC  H15S15759   9.374   7.715   4.591
  118POPC  C21615760   9.300   7.884   4.475
  118POPC  H16R15761   9.346   7.960   4.542
  118POPC  H16S15762   9.202   7.924   4.440
  118POPC  C21715763   9.391   7.865   4.352
  118POPC  H17R15764   9.346   7.787   4.286
  118POPC  H17S15765   9.490   7.826   4.386
  118POPC  C21815766   9.411   7.993   4.272
  118POPC  H18R15767   9.457   8.072   4.335
  118POPC  H18S15768   9.314   8.031   4.234
  118POPC  H18T15769   9.478   7.975   4.185
  118POPC   C3315770   9.412   7.741   5.270
  118POPC   H3X15771   9.516   7.776   5.250
  118POPC   H3Y15772   9.344   7.825   5.250
  118POPC   C3415773   9.381   7.624   5.176
  118POPC   H4X15774   9.381   7.661   5.071
  118POPC   H4Y15775   9.280   7.583   5.200
  118POPC   C3515776   9.486   7.515   5.196
  118POPC   H5X15777   9.466   7.458   5.289
  118POPC   H5Y15778   9.578   7.574   5.209
  118POPC   C3615779   9.520   7.417   5.085
  118POPC   H6X15780   9.579   7.333   5.129
  118POPC   H6Y15781   9.584   7.464   5.007
  118POPC   C3715782   9.401   7.364   5.011
  118POPC   H7X15783   9.366   7.448   4.947
  118POPC   H7Y15784   9.322   7.332   5.082
  118POPC   C3815785   9.439   7.252   4.916
  118POPC   H8X15786   9.488   7.171   4.974
  118POPC   H8Y15787   9.512   7.288   4.841
  118POPC   C3915788   9.311   7.202   4.851
  118POPC   H9X15789   9.238   7.188   4.933
  118POPC   H9Y15790   9.330   7.104   4.803
  118POPC  C31015791   9.250   7.302   4.751
  118POPC  H10X15792   9.218   7.393   4.805
  118POPC  H10Y15793   9.159   7.259   4.706
  118POPC  C31115794   9.342   7.340   4.637
  118POPC  H11X15795   9.425   7.406   4.671
  118POPC  H11Y15796   9.282   7.399   4.564
  118POPC  C31215797   9.399   7.215   4.569
  118POPC  H12X15798   9.345   7.124   4.602
  118POPC  H12Y15799   9.507   7.203   4.595
  118POPC  C31315800   9.381   7.221   4.419
  118POPC  H13X15801   9.273   7.235   4.397
  118POPC  H13Y15802   9.415   7.125   4.374
  118POPC  C31415803   9.461   7.333   4.358
  118POPC  H14X15804   9.568   7.308   4.375
  118POPC  H14Y15805   9.438   7.429   4.409
  118POPC  C31515806   9.438   7.350   4.209
  118POPC  H15X15807   9.415   7.252   4.166
  118POPC  H15Y15808   9.534   7.382   4.164
  118POPC  C31615809   9.331   7.454   4.177
  118POPC  H16X15810   9.357   7.551   4.224
  118POPC  H16Y15811   9.231   7.423   4.215
  118POPC  H16Z15812   9.324   7.467   4.068
  119POPC     N15813   8.025   8.687   6.203
  119POPC   C1215814   8.119   8.573   6.166
  119POPC  H12A15815   8.099   8.540   6.066
  119POPC  H12B15816   8.105   8.488   6.233
  119POPC   C1315817   8.077   8.746   6.330
  119POPC  H13A15818   8.024   8.834   6.360
  119POPC  H13B15819   8.085   8.676   6.412
  119POPC  H13C15820   8.181   8.778   6.312
  119POPC   C1415821   8.035   8.794   6.099
  119POPC  H14A15822   8.007   8.762   6.000
  119POPC  H14B15823   7.983   8.884   6.127
  119POPC  H14C15824   8.141   8.823   6.091
  119POPC   C1515825   7.884   8.646   6.218
  119POPC  H15A15826   7.846   8.607   6.123
  119POPC  H15B15827   7.824   8.732   6.246
  119POPC  H15C15828   7.874   8.572   6.295
  119POPC   C1115829   8.271   8.604   6.173
  119POPC  H11A15830   8.323   8.531   6.105
  119POPC  H11B15831   8.308   8.585   6.276
  119POPC     P15832   8.452   8.771   6.112
  119POPC   O1315833   8.537   8.696   6.206
  119POPC   O1415834   8.475   8.918   6.105
  119POPC   O1215835   8.301   8.741   6.139
  119POPC   O1115836   8.464   8.710   5.967
  119POPC    C115837   8.593   8.683   5.914
  119POPC    HA15838   8.590   8.589   5.855
  119POPC    HB15839   8.671   8.667   5.993
  119POPC    C215840   8.642   8.798   5.822
  119POPC    HS15841   8.639   8.894   5.878
  119POPC   O2115842   8.562   8.802   5.700
  119POPC   C2115843   8.450   8.874   5.712
  119POPC   O2215844   8.424   8.945   5.807
  119POPC   C2215845   8.366   8.879   5.585
  119POPC   H2R15846   8.361   8.986   5.557
  119POPC   H2S15847   8.264   8.847   5.613
  119POPC    C315848   8.790   8.769   5.789
  119POPC    HX15849   8.847   8.759   5.884
  119POPC    HY15850   8.837   8.852   5.732
  119POPC   O3115851   8.793   8.643   5.723
  119POPC   C3115852   8.851   8.633   5.607
  119POPC   O3215853   8.922   8.716   5.554
  119POPC   C3215854   8.805   8.499   5.549
  119POPC   H2X15855   8.714   8.467   5.605
  119POPC   H2Y15856   8.885   8.425   5.569
  119POPC   C2315857   8.418   8.797   5.466
  119POPC   H3R15858   8.428   8.690   5.495
  119POPC   H3S15859   8.518   8.834   5.435
  119POPC   C2415860   8.317   8.809   5.351
  119POPC   H4R15861   8.310   8.916   5.320
  119POPC   H4S15862   8.217   8.779   5.389
  119POPC   C2515863   8.350   8.722   5.231
  119POPC   H5R15864   8.274   8.744   5.152
  119POPC   H5S15865   8.340   8.615   5.261
  119POPC   C2615866   8.490   8.741   5.170
  119POPC   H6R15867   8.496   8.677   5.079
  119POPC   H6S15868   8.567   8.703   5.242
  119POPC   C2715869   8.524   8.885   5.133
  119POPC   H7R15870   8.522   8.948   5.224
  119POPC   H7S15871   8.445   8.923   5.064
  119POPC   C2815872   8.663   8.898   5.068
  119POPC   H8R15873   8.737   8.844   5.131
  119POPC   H8S15874   8.692   9.005   5.068
  119POPC   C2915875   8.661   8.843   4.928
  119POPC   H9115876   8.676   8.734   4.919
  119POPC  C21015877   8.645   8.916   4.817
  119POPC  H10115878   8.646   8.864   4.720
  119POPC  C21115879   8.626   9.066   4.812
  119POPC  H11R15880   8.726   9.114   4.801
  119POPC  H11S15881   8.586   9.106   4.908
  119POPC  C21215882   8.535   9.121   4.700
  119POPC  H12R15883   8.559   9.230   4.688
  119POPC  H12S15884   8.429   9.116   4.733
  119POPC  C21315885   8.549   9.054   4.563
  119POPC  H13R15886   8.499   9.120   4.488
  119POPC  H13S15887   8.495   8.957   4.563
  119POPC  C21415888   8.693   9.034   4.515
  119POPC  H14R15889   8.751   8.965   4.580
  119POPC  H14S15890   8.742   9.133   4.525
  119POPC  C21515891   8.697   8.980   4.372
  119POPC  H15R15892   8.604   9.013   4.320
  119POPC  H15S15893   8.694   8.869   4.374
  119POPC  C21615894   8.815   9.028   4.287
  119POPC  H16R15895   8.788   9.012   4.181
  119POPC  H16S15896   8.906   8.966   4.303
  119POPC  C21715897   8.849   9.177   4.303
  119POPC  H17R15898   8.932   9.192   4.373
  119POPC  H17S15899   8.767   9.234   4.350
  119POPC  C21815900   8.883   9.242   4.170
  119POPC  H18R15901   8.968   9.191   4.121
  119POPC  H18S15902   8.907   9.349   4.183
  119POPC  H18T15903   8.795   9.233   4.104
  119POPC   C3315904   8.766   8.495   5.399
  119POPC   H3X15905   8.849   8.532   5.334
  119POPC   H3Y15906   8.676   8.558   5.380
  119POPC   C3415907   8.734   8.349   5.368
  119POPC   H4X15908   8.660   8.315   5.443
  119POPC   H4Y15909   8.826   8.288   5.383
  119POPC   C3515910   8.679   8.319   5.230
  119POPC   H5X15911   8.663   8.209   5.227
  119POPC   H5Y15912   8.752   8.346   5.150
  119POPC   C3615913   8.541   8.377   5.198
  119POPC   H6X15914   8.554   8.485   5.176
  119POPC   H6Y15915   8.471   8.366   5.284
  119POPC   C3715916   8.485   8.303   5.076
  119POPC   H7X15917   8.433   8.210   5.106
  119POPC   H7Y15918   8.573   8.273   5.017
  119POPC   C3815919   8.397   8.390   4.987
  119POPC   H8X15920   8.381   8.337   4.890
  119POPC   H8Y15921   8.451   8.485   4.964
  119POPC   C3915922   8.262   8.421   5.050
  119POPC   H9X15923   8.275   8.449   5.157
  119POPC   H9Y15924   8.200   8.328   5.049
  119POPC  C31015925   8.191   8.534   4.976
  119POPC  H10X15926   8.251   8.627   4.984
  119POPC  H10Y15927   8.091   8.554   5.022
  119POPC  C31115928   8.177   8.503   4.827
  119POPC  H11X15929   8.140   8.400   4.811
  119POPC  H11Y15930   8.280   8.506   4.786
  119POPC  C31215931   8.088   8.603   4.754
  119POPC  H12X15932   8.110   8.706   4.789
  119POPC  H12Y15933   7.981   8.581   4.779
  119POPC  C31315934   8.107   8.595   4.603
  119POPC  H13X15935   8.040   8.670   4.556
  119POPC  H13Y15936   8.075   8.495   4.568
  119POPC  C31415937   8.252   8.622   4.559
  119POPC  H14X15938   8.322   8.543   4.594
  119POPC  H14Y15939   8.286   8.720   4.600
  119POPC  C31515940   8.262   8.624   4.407
  119POPC  H15X15941   8.355   8.675   4.375
  119POPC  H15Y15942   8.175   8.684   4.372
  119POPC  C31615943   8.254   8.485   4.346
  119POPC  H16X15944   8.341   8.423   4.378
  119POPC  H16Y15945   8.253   8.491   4.236
  119POPC  H16Z15946   8.161   8.434   4.379
  120POPC     N15947   1.981   9.301   6.015
  120POPC   C1215948   1.831   9.317   5.998
  120POPC  H12A15949   1.785   9.218   6.005
  120POPC  H12B15950   1.809   9.355   5.899
  120POPC   C1315951   2.009   9.219   6.138
  120POPC  H13A15952   2.112   9.223   6.170
  120POPC  H13B15953   1.948   9.258   6.220
  120POPC  H13C15954   1.978   9.117   6.125
  120POPC   C1415955   2.039   9.236   5.894
  120POPC  H14A15956   2.014   9.130   5.892
  120POPC  H14B15957   2.006   9.285   5.803
  120POPC  H14C15958   2.147   9.245   5.896
  120POPC   C1515959   2.047   9.433   6.039
  120POPC  H15A15960   2.032   9.502   5.957
  120POPC  H15B15961   2.154   9.422   6.058
  120POPC  H15C15962   2.007   9.477   6.130
  120POPC   C1115963   1.755   9.405   6.101
  120POPC  H11A15964   1.648   9.418   6.073
  120POPC  H11B15965   1.798   9.508   6.102
  120POPC     P15966   1.681   9.225   6.275
  120POPC   O1315967   1.541   9.267   6.303
  120POPC   O1415968   1.759   9.164   6.384
  120POPC   O1215969   1.765   9.351   6.230
  120POPC   O1115970   1.683   9.126   6.146
  120POPC    C115971   1.719   8.989   6.173
  120POPC    HA15972   1.660   8.947   6.259
  120POPC    HB15973   1.827   8.982   6.200
  120POPC    C215974   1.694   8.889   6.055
  120POPC    HS15975   1.749   8.794   6.077
  120POPC   O2115976   1.731   8.940   5.928
  120POPC   C2115977   1.853   8.931   5.888
  120POPC   O2215978   1.952   8.920   5.958
  120POPC   C2215979   1.857   8.939   5.736
  120POPC   H2R15980   1.928   9.019   5.708
  120POPC   H2S15981   1.756   8.967   5.699
  120POPC    C315982   1.544   8.851   6.040
  120POPC    HX15983   1.514   8.788   6.126
  120POPC    HY15984   1.532   8.788   5.948
  120POPC   O3115985   1.461   8.968   6.039
  120POPC   C3115986   1.463   9.035   5.925
  120POPC   O3215987   1.504   8.996   5.817
  120POPC   C3215988   1.400   9.172   5.946
  120POPC   H2X15989   1.450   9.221   6.033
  120POPC   H2Y15990   1.293   9.157   5.968
  120POPC   C2315991   1.902   8.805   5.670
  120POPC   H3R15992   2.000   8.773   5.710
  120POPC   H3S15993   1.918   8.823   5.561
  120POPC   C2415994   1.801   8.689   5.684
  120POPC   H4R15995   1.789   8.664   5.792
  120POPC   H4S15996   1.846   8.598   5.639
  120POPC   C2515997   1.661   8.710   5.622
  120POPC   H5R15998   1.610   8.792   5.678
  120POPC   H5S15999   1.601   8.618   5.638
  120POPC   C2616000   1.661   8.745   5.471
  120POPC   H6R16001   1.728   8.831   5.455
  120POPC   H6S16002   1.559   8.778   5.441
  120POPC   C2716003   1.701   8.628   5.379
  120POPC   H7R16004   1.612   8.563   5.363
  120POPC   H7S16005   1.775   8.564   5.432
  120POPC   C2816006   1.760   8.671   5.243
  120POPC   H8R16007   1.686   8.736   5.191
  120POPC   H8S16008   1.774   8.581   5.180
  120POPC   C2916009   1.893   8.739   5.264
  120POPC   H9116010   1.960   8.686   5.333
  120POPC  C21016011   1.939   8.852   5.205
  120POPC  H10116012   2.037   8.890   5.235
  120POPC  C21116013   1.867   8.938   5.105
  120POPC  H11R16014   1.836   9.033   5.152
  120POPC  H11S16015   1.775   8.889   5.065
  120POPC  C21216016   1.960   8.971   4.986
  120POPC  H12R16017   2.048   9.028   5.022
  120POPC  H12S16018   1.904   9.038   4.917
  120POPC  C21316019   2.006   8.848   4.907
  120POPC  H13R16020   1.920   8.779   4.897
  120POPC  H13S16021   2.086   8.794   4.963
  120POPC  C21416022   2.055   8.882   4.765
  120POPC  H14R16023   1.970   8.930   4.712
  120POPC  H14S16024   2.078   8.787   4.711
  120POPC  C21516025   2.176   8.977   4.758
  120POPC  H15R16026   2.270   8.922   4.782
  120POPC  H15S16027   2.165   9.059   4.832
  120POPC  C21616028   2.189   9.043   4.619
  120POPC  H16R16029   2.270   9.119   4.622
  120POPC  H16S16030   2.094   9.095   4.596
  120POPC  C21716031   2.219   8.943   4.508
  120POPC  H17R16032   2.157   8.852   4.518
  120POPC  H17S16033   2.325   8.910   4.517
  120POPC  C21816034   2.195   9.002   4.369
  120POPC  H18R16035   2.245   9.100   4.360
  120POPC  H18S16036   2.086   9.018   4.353
  120POPC  H18T16037   2.233   8.933   4.291
  120POPC   C3316038   1.414   9.260   5.819
  120POPC   H3X16039   1.346   9.348   5.827
  120POPC   H3Y16040   1.379   9.202   5.731
  120POPC   C3416041   1.557   9.311   5.797
  120POPC   H4X16042   1.628   9.226   5.795
  120POPC   H4Y16043   1.582   9.377   5.883
  120POPC   C3516044   1.575   9.394   5.669
  120POPC   H5X16045   1.679   9.434   5.664
  120POPC   H5Y16046   1.505   9.480   5.676
  120POPC   C3616047   1.544   9.318   5.539
  120POPC   H6X16048   1.536   9.393   5.457
  120POPC   H6Y16049   1.445   9.268   5.548
  120POPC   C3716050   1.647   9.213   5.499
  120POPC   H7X16051   1.636   9.122   5.564
  120POPC   H7Y16052   1.749   9.255   5.515
  120POPC   C3816053   1.634   9.173   5.351
  120POPC   H8X16054   1.724   9.113   5.323
  120POPC   H8Y16055   1.634   9.266   5.290
  120POPC   C3916056   1.509   9.089   5.319
  120POPC   H9X16057   1.418   9.148   5.340
  120POPC   H9Y16058   1.506   9.000   5.386
  120POPC  C31016059   1.501   9.041   5.172
  120POPC  H10X16060   1.397   9.008   5.151
  120POPC  H10Y16061   1.567   8.952   5.161
  120POPC  C31116062   1.544   9.146   5.069
  120POPC  H11X16063   1.653   9.167   5.084
  120POPC  H11Y16064   1.490   9.241   5.085
  120POPC  C31216065   1.524   9.101   4.924
  120POPC  H12X16066   1.415   9.100   4.900
  120POPC  H12Y16067   1.563   8.998   4.913
  120POPC  C31316068   1.599   9.193   4.827
  120POPC  H13X16069   1.702   9.211   4.864
  120POPC  H13Y16070   1.547   9.291   4.822
  120POPC  C31416071   1.608   9.132   4.687
  120POPC  H14X16072   1.506   9.103   4.653
  120POPC  H14Y16073   1.669   9.039   4.690
  120POPC  C31516074   1.667   9.229   4.584
  120POPC  H15X16075   1.776   9.243   4.607
  120POPC  H15Y16076   1.617   9.328   4.592
  120POPC  C31616077   1.651   9.176   4.443
  120POPC  H16X16078   1.695   9.245   4.368
  120POPC  H16Y16079   1.544   9.161   4.418
  120POPC  H16Z16080   1.702   9.077   4.435
  121POPC     N16081   8.146   0.460   6.180
  121POPC   C1216082   8.000   0.417   6.193
  121POPC  H12A16083   7.957   0.407   6.093
  121POPC  H12B16084   7.943   0.494   6.244
  121POPC   C1316085   8.222   0.431   6.306
  121POPC  H13A16086   8.188   0.492   6.390
  121POPC  H13B16087   8.207   0.327   6.336
  121POPC  H13C16088   8.327   0.447   6.294
  121POPC   C1416089   8.207   0.379   6.069
  121POPC  H14A16090   8.162   0.403   5.972
  121POPC  H14B16091   8.315   0.384   6.064
  121POPC  H14C16092   8.181   0.273   6.083
  121POPC   C1516093   8.153   0.607   6.151
  121POPC  H15A16094   8.111   0.633   6.054
  121POPC  H15B16095   8.255   0.641   6.151
  121POPC  H15C16096   8.100   0.663   6.227
  121POPC   C1116097   7.968   0.283   6.263
  121POPC  H11A16098   7.857   0.271   6.269
  121POPC  H11B16099   8.005   0.284   6.367
  121POPC     P16100   7.959   0.119   6.064
  121POPC   O1316101   7.959   0.225   5.962
  121POPC   O1416102   7.831   0.061   6.111
  121POPC   O1216103   8.030   0.175   6.193
  121POPC   O1116104   8.057   0.004   6.017
  121POPC    C116105   8.192  -0.007   6.060
  121POPC    HA16106   8.208  -0.112   6.092
  121POPC    HB16107   8.216   0.055   6.149
  121POPC    C216108   8.301   0.024   5.951
  121POPC    HS16109   8.396   0.020   6.008
  121POPC   O2116110   8.284   0.154   5.887
  121POPC   C2116111   8.394   0.187   5.817
  121POPC   O2216112   8.499   0.126   5.823
  121POPC   C2216113   8.374   0.317   5.737
  121POPC   H2R16114   8.387   0.400   5.808
  121POPC   H2S16115   8.272   0.321   5.695
  121POPC    C316116   8.303  -0.089   5.842
  121POPC    HX16117   8.255  -0.181   5.882
  121POPC    HY16118   8.411  -0.115   5.827
  121POPC   O3116119   8.250  -0.045   5.715
  121POPC   C3116120   8.131  -0.091   5.683
  121POPC   O3216121   8.076  -0.190   5.728
  121POPC   C3216122   8.073  -0.001   5.575
  121POPC   H2X16123   7.990  -0.055   5.526
  121POPC   H2Y16124   8.153   0.018   5.501
  121POPC   C2316125   8.478   0.335   5.622
  121POPC   H3R16126   8.547   0.249   5.621
  121POPC   H3S16127   8.542   0.424   5.645
  121POPC   C2416128   8.421   0.353   5.480
  121POPC   H4R16129   8.496   0.406   5.416
  121POPC   H4S16130   8.332   0.418   5.486
  121POPC   C2516131   8.384   0.221   5.409
  121POPC   H5R16132   8.282   0.231   5.367
  121POPC   H5S16133   8.379   0.139   5.484
  121POPC   C2616134   8.466   0.177   5.285
  121POPC   H6R16135   8.575   0.172   5.306
  121POPC   H6S16136   8.449   0.251   5.204
  121POPC   C2716137   8.413   0.039   5.241
  121POPC   H7R16138   8.302   0.041   5.257
  121POPC   H7S16139   8.454  -0.039   5.308
  121POPC   C2816140   8.438  -0.004   5.095
  121POPC   H8R16141   8.546  -0.025   5.081
  121POPC   H8S16142   8.412   0.081   5.029
  121POPC   C2916143   8.357  -0.125   5.060
  121POPC   H9116144   8.413  -0.220   5.055
  121POPC  C21016145   8.224  -0.126   5.035
  121POPC  H10116146   8.174  -0.221   5.011
  121POPC  C21116147   8.135  -0.005   5.038
  121POPC  H11R16148   8.193   0.090   5.042
  121POPC  H11S16149   8.073  -0.007   5.131
  121POPC  C21216150   8.036   0.005   4.919
  121POPC  H12R16151   7.982   0.102   4.929
  121POPC  H12S16152   7.960  -0.075   4.932
  121POPC  C21316153   8.094  -0.005   4.776
  121POPC  H13R16154   8.160  -0.095   4.769
  121POPC  H13S16155   8.158   0.084   4.757
  121POPC  C21416156   7.979  -0.018   4.674
  121POPC  H14R16157   7.898   0.051   4.706
  121POPC  H14S16158   7.939  -0.121   4.685
  121POPC  C21516159   8.001   0.006   4.523
  121POPC  H15R16160   8.083  -0.054   4.483
  121POPC  H15S16161   8.034   0.107   4.500
  121POPC  C21616162   7.870  -0.027   4.448
  121POPC  H16R16163   7.786   0.020   4.505
  121POPC  H16S16164   7.857  -0.137   4.455
  121POPC  C21716165   7.854   0.018   4.301
  121POPC  H17R16166   7.879   0.124   4.289
  121POPC  H17S16167   7.746   0.011   4.274
  121POPC  C21816168   7.931  -0.066   4.199
  121POPC  H18R16169   8.037  -0.078   4.230
  121POPC  H18S16170   7.928  -0.020   4.099
  121POPC  H18T16171   7.886  -0.167   4.190
  121POPC   C3316172   8.022   0.130   5.638
  121POPC   H3X16173   8.108   0.187   5.680
  121POPC   H3Y16174   7.954   0.108   5.724
  121POPC   C3416175   7.946   0.219   5.539
  121POPC   H4X16176   7.915   0.312   5.591
  121POPC   H4Y16177   7.855   0.165   5.505
  121POPC   C3516178   8.034   0.255   5.420
  121POPC   H5X16179   8.061   0.163   5.363
  121POPC   H5Y16180   8.127   0.299   5.463
  121POPC   C3616181   7.978   0.357   5.321
  121POPC   H6X16182   7.971   0.455   5.373
  121POPC   H6Y16183   7.876   0.329   5.287
  121POPC   C3716184   8.072   0.369   5.200
  121POPC   H7X16185   8.053   0.284   5.132
  121POPC   H7Y16186   8.177   0.363   5.234
  121POPC   C3816187   8.057   0.503   5.129
  121POPC   H8X16188   8.086   0.579   5.205
  121POPC   H8Y16189   7.951   0.521   5.103
  121POPC   C3916190   8.147   0.518   5.006
  121POPC   H9X16191   8.253   0.503   5.035
  121POPC   H9Y16192   8.138   0.621   4.964
  121POPC  C31016193   8.111   0.419   4.895
  121POPC  H10X16194   8.113   0.315   4.932
  121POPC  H10Y16195   8.188   0.426   4.815
  121POPC  C31116196   7.973   0.452   4.837
  121POPC  H11X16197   7.974   0.553   4.791
  121POPC  H11Y16198   7.895   0.452   4.917
  121POPC  C31216199   7.927   0.351   4.734
  121POPC  H12X16200   7.835   0.389   4.687
  121POPC  H12Y16201   7.901   0.255   4.785
  121POPC  C31316202   8.024   0.324   4.621
  121POPC  H13X16203   7.957   0.275   4.548
  121POPC  H13Y16204   8.104   0.254   4.652
  121POPC  C31416205   8.088   0.446   4.554
  121POPC  H14X16206   8.167   0.490   4.618
  121POPC  H14Y16207   8.010   0.523   4.538
  121POPC  C31516208   8.147   0.405   4.419
  121POPC  H15X16209   8.222   0.324   4.435
  121POPC  H15Y16210   8.202   0.492   4.376
  121POPC  C31616211   8.039   0.356   4.322
  121POPC  H16X16212   8.076   0.357   4.217
  121POPC  H16Y16213   7.947   0.417   4.326
  121POPC  H16Z16214   8.010   0.254   4.349
  122POPC     N16215   8.625   0.734   6.296
  122POPC   C1216216   8.725   0.849   6.307
  122POPC  H12A16217   8.727   0.884   6.410
  122POPC  H12B16218   8.687   0.931   6.246
  122POPC   C1316219   8.569   0.731   6.156
  122POPC  H13A16220   8.489   0.661   6.146
  122POPC  H13B16221   8.535   0.831   6.128
  122POPC  H13C16222   8.647   0.709   6.084
  122POPC   C1416223   8.688   0.601   6.328
  122POPC  H14A16224   8.616   0.520   6.318
  122POPC  H14B16225   8.767   0.580   6.258
  122POPC  H14C16226   8.729   0.599   6.428
  122POPC   C1516227   8.515   0.759   6.394
  122POPC  H15A16228   8.551   0.755   6.497
  122POPC  H15B16229   8.436   0.687   6.386
  122POPC  H15C16230   8.472   0.858   6.381
  122POPC   C1116231   8.876   0.834   6.268
  122POPC  H11A16232   8.918   0.750   6.328
  122POPC  H11B16233   8.928   0.927   6.299
  122POPC     P16234   8.855   0.915   6.022
  122POPC   O1316235   8.722   0.968   6.060
  122POPC   O1416236   8.863   0.840   5.897
  122POPC   O1216237   8.906   0.812   6.131
  122POPC   O1116238   8.964   1.037   6.028
  122POPC    C116239   9.095   1.027   5.973
  122POPC    HA16240   9.093   0.944   5.902
  122POPC    HB16241   9.156   0.993   6.059
  122POPC    C216242   9.192   1.146   5.908
  122POPC    HS16243   9.200   1.225   5.985
  122POPC   O2116244   9.189   1.215   5.776
  122POPC   C2116245   9.163   1.279   5.653
  122POPC   O2216246   9.261   1.304   5.584
  122POPC   C2216247   9.027   1.334   5.583
  122POPC   H2R16248   9.055   1.437   5.559
  122POPC   H2S16249   8.947   1.347   5.652
  122POPC    C316250   9.332   1.070   5.903
  122POPC    HX16251   9.400   1.110   5.980
  122POPC    HY16252   9.384   1.097   5.808
  122POPC   O3116253   9.320   0.924   5.920
  122POPC   C3116254   9.293   0.860   5.803
  122POPC   O3216255   9.308   0.910   5.695
  122POPC   C3216256   9.225   0.724   5.826
  122POPC   H2X16257   9.148   0.734   5.905
  122POPC   H2Y16258   9.303   0.653   5.863
  122POPC   C2316259   8.977   1.289   5.437
  122POPC   H3R16260   8.956   1.183   5.443
  122POPC   H3S16261   9.063   1.307   5.368
  122POPC   C2416262   8.852   1.333   5.352
  122POPC   H4R16263   8.885   1.325   5.246
  122POPC   H4S16264   8.834   1.441   5.357
  122POPC   C2516265   8.725   1.240   5.358
  122POPC   H5R16266   8.639   1.294   5.401
  122POPC   H5S16267   8.742   1.156   5.428
  122POPC   C2616268   8.678   1.180   5.221
  122POPC   H6R16269   8.740   1.090   5.200
  122POPC   H6S16270   8.698   1.254   5.141
  122POPC   C2716271   8.529   1.137   5.208
  122POPC   H7R16272   8.462   1.220   5.241
  122POPC   H7S16273   8.510   1.051   5.275
  122POPC   C2816274   8.487   1.093   5.064
  122POPC   H8R16275   8.386   1.046   5.070
  122POPC   H8S16276   8.556   1.012   5.031
  122POPC   C2916277   8.479   1.205   4.963
  122POPC   H9116278   8.387   1.266   4.969
  122POPC  C21016279   8.568   1.236   4.867
  122POPC  H10116280   8.547   1.322   4.801
  122POPC  C21116281   8.697   1.166   4.835
  122POPC  H11R16282   8.699   1.142   4.726
  122POPC  H11S16283   8.709   1.069   4.888
  122POPC  C21216284   8.820   1.253   4.863
  122POPC  H12R16285   8.851   1.237   4.968
  122POPC  H12S16286   8.797   1.362   4.853
  122POPC  C21316287   8.932   1.218   4.766
  122POPC  H13R16288   8.943   1.108   4.758
  122POPC  H13S16289   9.027   1.261   4.805
  122POPC  C21416290   8.906   1.280   4.628
  122POPC  H14R16291   8.886   1.382   4.656
  122POPC  H14S16292   8.817   1.240   4.576
  122POPC  C21516293   9.028   1.281   4.539
  122POPC  H15R16294   9.031   1.185   4.482
  122POPC  H15S16295   9.114   1.285   4.609
  122POPC  C21616296   9.060   1.399   4.447
  122POPC  H16R16297   9.098   1.483   4.509
  122POPC  H16S16298   8.975   1.435   4.387
  122POPC  C21716299   9.167   1.349   4.351
  122POPC  H17R16300   9.228   1.273   4.402
  122POPC  H17S16301   9.237   1.430   4.325
  122POPC  C21816302   9.104   1.284   4.227
  122POPC  H18R16303   9.118   1.173   4.231
  122POPC  H18S16304   9.149   1.324   4.134
  122POPC  H18T16305   8.995   1.301   4.226
  122POPC   C3316306   9.160   0.665   5.697
  122POPC   H3X16307   9.192   0.559   5.688
  122POPC   H3Y16308   9.199   0.713   5.605
  122POPC   C3416309   9.005   0.671   5.694
  122POPC   H4X16310   8.973   0.773   5.678
  122POPC   H4Y16311   8.959   0.646   5.791
  122POPC   C3516312   8.934   0.595   5.582
  122POPC   H5X16313   8.825   0.619   5.589
  122POPC   H5Y16314   8.943   0.485   5.595
  122POPC   C3616315   8.982   0.634   5.443
  122POPC   H6X16316   9.089   0.607   5.431
  122POPC   H6Y16317   8.970   0.744   5.432
  122POPC   C3716318   8.896   0.563   5.339
  122POPC   H7X16319   8.790   0.593   5.350
  122POPC   H7Y16320   8.903   0.454   5.362
  122POPC   C3816321   8.944   0.588   5.197
  122POPC   H8X16322   8.916   0.500   5.135
  122POPC   H8Y16323   9.055   0.596   5.195
  122POPC   C3916324   8.879   0.705   5.126
  122POPC   H9X16325   8.912   0.803   5.164
  122POPC   H9Y16326   8.768   0.702   5.137
  122POPC  C31016327   8.917   0.692   4.979
  122POPC  H10X16328   8.863   0.607   4.934
  122POPC  H10Y16329   9.026   0.669   4.974
  122POPC  C31116330   8.893   0.819   4.899
  122POPC  H11X16331   8.934   0.906   4.953
  122POPC  H11Y16332   8.784   0.838   4.886
  122POPC  C31216333   8.963   0.803   4.765
  122POPC  H12X16334   9.060   0.750   4.778
  122POPC  H12Y16335   8.986   0.903   4.724
  122POPC  C31316336   8.873   0.727   4.667
  122POPC  H13X16337   8.825   0.640   4.716
  122POPC  H13Y16338   8.933   0.685   4.583
  122POPC  C31416339   8.768   0.824   4.614
  122POPC  H14X16340   8.801   0.930   4.622
  122POPC  H14Y16341   8.682   0.814   4.682
  122POPC  C31516342   8.726   0.798   4.470
  122POPC  H15X16343   8.616   0.807   4.463
  122POPC  H15Y16344   8.742   0.692   4.450
  122POPC  C31616345   8.796   0.885   4.364
  122POPC  H16X16346   8.742   0.878   4.267
  122POPC  H16Y16347   8.900   0.850   4.348
  122POPC  H16Z16348   8.799   0.992   4.393
  123POPC     N16349   9.283   1.305   6.320
  123POPC   C1216350   9.300   1.449   6.276
  123POPC  H12A16351   9.254   1.514   6.349
  123POPC  H12B16352   9.244   1.464   6.182
  123POPC   C1316353   9.341   1.217   6.215
  123POPC  H13A16354   9.320   1.113   6.229
  123POPC  H13B16355   9.313   1.252   6.117
  123POPC  H13C16356   9.449   1.230   6.215
  123POPC   C1416357   9.360   1.281   6.444
  123POPC  H14A16358   9.346   1.362   6.515
  123POPC  H14B16359   9.332   1.188   6.493
  123POPC  H14C16360   9.466   1.277   6.421
  123POPC   C1516361   9.138   1.271   6.338
  123POPC  H15A16362   9.127   1.164   6.347
  123POPC  H15B16363   9.080   1.300   6.250
  123POPC  H15C16364   9.095   1.318   6.425
  123POPC   C1116365   9.444   1.499   6.251
  123POPC  H11A16366   9.506   1.480   6.340
  123POPC  H11B16367   9.444   1.609   6.234
  123POPC     P16368   9.457   1.463   5.992
  123POPC   O1316369   9.473   1.338   5.916
  123POPC   O1416370   9.529   1.585   5.949
  123POPC   O1216371   9.503   1.433   6.141
  123POPC   O1116372   9.297   1.494   6.001
  123POPC    C116373   9.245   1.552   5.881
  123POPC    HA16374   9.277   1.497   5.789
  123POPC    HB16375   9.286   1.656   5.873
  123POPC    C216376   9.088   1.569   5.866
  123POPC    HS16377   9.048   1.616   5.958
  123POPC   O2116378   9.014   1.447   5.833
  123POPC   C2116379   8.976   1.358   5.926
  123POPC   O2216380   9.001   1.373   6.046
  123POPC   C2216381   8.879   1.243   5.869
  123POPC   H2R16382   8.784   1.296   5.860
  123POPC   H2S16383   8.844   1.191   5.958
  123POPC    C316384   9.077   1.677   5.750
  123POPC    HX16385   9.134   1.767   5.780
  123POPC    HY16386   8.972   1.708   5.736
  123POPC   O3116387   9.130   1.624   5.627
  123POPC   C3116388   9.195   1.698   5.538
  123POPC   O3216389   9.215   1.818   5.545
  123POPC   C3216390   9.231   1.613   5.416
  123POPC   H2X16391   9.218   1.506   5.438
  123POPC   H2Y16392   9.339   1.631   5.395
  123POPC   C2316393   8.879   1.142   5.738
  123POPC   H3R16394   8.835   1.185   5.647
  123POPC   H3S16395   8.795   1.076   5.772
  123POPC   C2416396   8.986   1.034   5.689
  123POPC   H4R16397   8.929   0.946   5.719
  123POPC   H4S16398   9.081   1.026   5.737
  123POPC   C2516399   9.031   0.990   5.545
  123POPC   H5R16400   8.945   0.983   5.477
  123POPC   H5S16401   9.068   0.886   5.558
  123POPC   C2616402   9.163   1.043   5.480
  123POPC   H6R16403   9.241   1.061   5.555
  123POPC   H6S16404   9.154   1.140   5.432
  123POPC   C2716405   9.221   0.954   5.369
  123POPC   H7R16406   9.248   0.855   5.412
  123POPC   H7S16407   9.316   1.001   5.333
  123POPC   C2816408   9.124   0.933   5.253
  123POPC   H8R16409   9.045   0.868   5.293
  123POPC   H8S16410   9.178   0.874   5.175
  123POPC   C2916411   9.060   1.058   5.198
  123POPC   H9116412   8.992   1.109   5.268
  123POPC  C21016413   9.072   1.107   5.074
  123POPC  H10116414   9.032   1.206   5.050
  123POPC  C21116415   9.156   1.040   4.970
  123POPC  H11R16416   9.128   1.071   4.868
  123POPC  H11S16417   9.145   0.929   4.972
  123POPC  C21216418   9.302   1.074   4.998
  123POPC  H12R16419   9.362   0.985   4.970
  123POPC  H12S16420   9.317   1.088   5.107
  123POPC  C21316421   9.352   1.197   4.925
  123POPC  H13R16422   9.455   1.221   4.959
  123POPC  H13S16423   9.289   1.284   4.957
  123POPC  C21416424   9.348   1.187   4.771
  123POPC  H14R16425   9.430   1.247   4.726
  123POPC  H14S16426   9.254   1.241   4.746
  123POPC  C21516427   9.338   1.048   4.703
  123POPC  H15R16428   9.317   0.963   4.770
  123POPC  H15S16429   9.434   1.025   4.650
  123POPC  C21616430   9.223   1.055   4.603
  123POPC  H16R16431   9.247   1.151   4.553
  123POPC  H16S16432   9.125   1.064   4.653
  123POPC  C21716433   9.215   0.959   4.485
  123POPC  H17R16434   9.319   0.931   4.468
  123POPC  H17S16435   9.176   1.016   4.397
  123POPC  C21816436   9.139   0.828   4.494
  123POPC  H18R16437   9.035   0.851   4.521
  123POPC  H18S16438   9.186   0.761   4.569
  123POPC  H18T16439   9.138   0.777   4.395
  123POPC   C3316440   9.147   1.656   5.294
  123POPC   H3X16441   9.162   1.765   5.277
  123POPC   H3Y16442   9.039   1.639   5.313
  123POPC   C3416443   9.186   1.583   5.166
  123POPC   H4X16444   9.148   1.479   5.170
  123POPC   H4Y16445   9.297   1.579   5.155
  123POPC   C3516446   9.129   1.655   5.043
  123POPC   H5X16447   9.190   1.745   5.020
  123POPC   H5Y16448   9.027   1.692   5.070
  123POPC   C3616449   9.117   1.564   4.921
  123POPC   H6X16450   9.053   1.615   4.846
  123POPC   H6Y16451   9.070   1.467   4.948
  123POPC   C3716452   9.251   1.542   4.851
  123POPC   H7X16453   9.243   1.457   4.779
  123POPC   H7Y16454   9.328   1.517   4.926
  123POPC   C3816455   9.289   1.668   4.773
  123POPC   H8X16456   9.225   1.753   4.806
  123POPC   H8Y16457   9.265   1.652   4.666
  123POPC   C3916458   9.434   1.712   4.795
  123POPC   H9X16459   9.455   1.717   4.905
  123POPC   H9Y16460   9.447   1.815   4.755
  123POPC  C31016461   9.538   1.623   4.725
  123POPC  H10X16462   9.541   1.524   4.776
  123POPC  H10Y16463   9.638   1.671   4.739
  123POPC  C31116464   9.511   1.604   4.575
  123POPC  H11X16465   9.428   1.530   4.564
  123POPC  H11Y16466   9.601   1.560   4.527
  123POPC  C31216467   9.470   1.733   4.501
  123POPC  H12X16468   9.546   1.812   4.516
  123POPC  H12Y16469   9.378   1.774   4.547
  123POPC  C31316470   9.440   1.714   4.352
  123POPC  H13X16471   9.417   1.606   4.337
  123POPC  H13Y16472   9.531   1.737   4.292
  123POPC  C31416473   9.322   1.802   4.307
  123POPC  H14X16474   9.352   1.909   4.312
  123POPC  H14Y16475   9.241   1.788   4.382
  123POPC  C31516476   9.261   1.771   4.169
  123POPC  H15X16477   9.341   1.778   4.091
  123POPC  H15Y16478   9.183   1.847   4.145
  123POPC  C31616479   9.201   1.631   4.163
  123POPC  H16X16480   9.153   1.607   4.066
  123POPC  H16Y16481   9.124   1.617   4.240
  123POPC  H16Z16482   9.283   1.559   4.184
  124POPC     N16483  -0.140   8.428   6.341
  124POPC   C1216484  -0.170   8.307   6.252
  124POPC  H12A16485  -0.213   8.228   6.312
  124POPC  H12B16486  -0.077   8.268   6.212
  124POPC   C1316487  -0.058   8.387   6.458
  124POPC  H13A16488   0.043   8.363   6.427
  124POPC  H13B16489  -0.049   8.471   6.528
  124POPC  H13C16490  -0.098   8.303   6.512
  124POPC   C1416491  -0.066   8.533   6.264
  124POPC  H14A16492   0.035   8.503   6.240
  124POPC  H14B16493  -0.116   8.547   6.167
  124POPC  H14C16494  -0.064   8.628   6.315
  124POPC   C1516495  -0.269   8.490   6.386
  124POPC  H15A16496  -0.327   8.421   6.445
  124POPC  H15B16497  -0.327   8.520   6.299
  124POPC  H15C16498  -0.252   8.578   6.448
  124POPC   C1116499  -0.262   8.331   6.131
  124POPC  H11A16500  -0.361   8.371   6.161
  124POPC  H11B16501  -0.279   8.233   6.079
  124POPC     P16502  -0.228   8.440   5.894
  124POPC   O1316503  -0.320   8.554   5.882
  124POPC   O1416504  -0.264   8.309   5.834
  124POPC   O1216505  -0.196   8.423   6.047
  124POPC   O1116506  -0.085   8.477   5.839
  124POPC    C116507   0.025   8.508   5.924
  124POPC    HA16508   0.051   8.422   5.989
  124POPC    HB16509  -0.001   8.595   5.989
  124POPC    C216510   0.151   8.547   5.841
  124POPC    HS16511   0.216   8.613   5.903
  124POPC   O2116512   0.122   8.619   5.719
  124POPC   C2116513   0.024   8.710   5.722
  124POPC   O2216514  -0.026   8.759   5.821
  124POPC   C2216515  -0.015   8.749   5.580
  124POPC   H2R16516   0.057   8.824   5.541
  124POPC   H2S16517  -0.116   8.795   5.585
  124POPC    C316518   0.235   8.419   5.806
  124POPC    HX16519   0.295   8.390   5.895
  124POPC    HY16520   0.307   8.449   5.726
  124POPC   O3116521   0.150   8.309   5.769
  124POPC   C3116522   0.178   8.249   5.654
  124POPC   O3216523   0.285   8.255   5.596
  124POPC   C3216524   0.054   8.182   5.596
  124POPC   H2X16525  -0.024   8.169   5.673
  124POPC   H2Y16526   0.085   8.084   5.558
  124POPC   C2316527  -0.022   8.625   5.488
  124POPC   H3R16528  -0.089   8.550   5.537
  124POPC   H3S16529   0.079   8.581   5.479
  124POPC   C2416530  -0.077   8.656   5.348
  124POPC   H4R16531  -0.018   8.739   5.306
  124POPC   H4S16532  -0.183   8.690   5.356
  124POPC   C2516533  -0.067   8.532   5.258
  124POPC   H5R16534  -0.168   8.495   5.231
  124POPC   H5S16535  -0.016   8.453   5.315
  124POPC   C2616536   0.018   8.553   5.132
  124POPC   H6R16537   0.035   8.456   5.081
  124POPC   H6S16538   0.118   8.594   5.162
  124POPC   C2716539  -0.053   8.649   5.038
  124POPC   H7R16540  -0.078   8.741   5.097
  124POPC   H7S16541  -0.149   8.603   5.005
  124POPC   C2816542   0.031   8.686   4.916
  124POPC   H8R16543   0.046   8.598   4.850
  124POPC   H8S16544   0.131   8.722   4.948
  124POPC   C2916545  -0.045   8.798   4.851
  124POPC   H9116546  -0.069   8.881   4.919
  124POPC  C21016547  -0.089   8.806   4.726
  124POPC  H10116548  -0.138   8.899   4.697
  124POPC  C21116549  -0.077   8.710   4.613
  124POPC  H11R16550  -0.178   8.675   4.581
  124POPC  H11S16551  -0.015   8.621   4.636
  124POPC  C21216552  -0.013   8.790   4.499
  124POPC  H12R16553  -0.059   8.891   4.486
  124POPC  H12S16554  -0.037   8.735   4.406
  124POPC  C21316555   0.138   8.806   4.518
  124POPC  H13R16556   0.176   8.718   4.576
  124POPC  H13S16557   0.160   8.896   4.580
  124POPC  C21416558   0.213   8.808   4.385
  124POPC  H14R16559   0.321   8.826   4.404
  124POPC  H14S16560   0.178   8.897   4.328
  124POPC  C21516561   0.186   8.677   4.308
  124POPC  H15R16562   0.091   8.691   4.251
  124POPC  H15S16563   0.167   8.598   4.385
  124POPC  C21616564   0.288   8.620   4.209
  124POPC  H16R16565   0.393   8.647   4.235
  124POPC  H16S16566   0.266   8.663   4.109
  124POPC  C21716567   0.273   8.469   4.192
  124POPC  H17R16568   0.317   8.439   4.094
  124POPC  H17S16569   0.165   8.443   4.188
  124POPC  C21816570   0.343   8.390   4.301
  124POPC  H18R16571   0.339   8.280   4.283
  124POPC  H18S16572   0.298   8.412   4.400
  124POPC  H18T16573   0.450   8.421   4.304
  124POPC   C3316574   0.002   8.269   5.479
  124POPC   H3X16575   0.088   8.325   5.434
  124POPC   H3Y16576  -0.070   8.343   5.520
  124POPC   C3416577  -0.062   8.192   5.362
  124POPC   H4X16578  -0.118   8.265   5.300
  124POPC   H4Y16579  -0.137   8.119   5.401
  124POPC   C3516580   0.042   8.122   5.275
  124POPC   H5X16581   0.091   8.042   5.335
  124POPC   H5Y16582   0.123   8.194   5.246
  124POPC   C3616583  -0.016   8.060   5.147
  124POPC   H6X16584  -0.107   8.001   5.174
  124POPC   H6Y16585   0.060   7.990   5.107
  124POPC   C3716586  -0.051   8.160   5.036
  124POPC   H7X16587   0.036   8.227   5.018
  124POPC   H7Y16588  -0.137   8.223   5.068
  124POPC   C3816589  -0.084   8.084   4.908
  124POPC   H8X16590  -0.169   8.016   4.929
  124POPC   H8Y16591   0.002   8.019   4.881
  124POPC   C3916592  -0.118   8.171   4.786
  124POPC   H9X16593  -0.155   8.103   4.705
  124POPC   H9Y16594  -0.025   8.220   4.749
  124POPC  C31016595  -0.224   8.279   4.812
  124POPC  H10X16596  -0.176   8.366   4.862
  124POPC  H10Y16597  -0.300   8.240   4.882
  124POPC  C31116598  -0.292   8.326   4.682
  124POPC  H11X16599  -0.357   8.413   4.706
  124POPC  H11Y16600  -0.359   8.245   4.644
  124POPC  C31216601  -0.194   8.363   4.570
  124POPC  H12X16602  -0.140   8.273   4.535
  124POPC  H12Y16603  -0.119   8.435   4.609
  124POPC  C31316604  -0.266   8.426   4.450
  124POPC  H13X16605  -0.318   8.518   4.485
  124POPC  H13Y16606  -0.343   8.355   4.413
  124POPC  C31416607  -0.175   8.465   4.333
  124POPC  H14X16608  -0.128   8.374   4.290
  124POPC  H14Y16609  -0.093   8.530   4.371
  124POPC  C31516610  -0.254   8.539   4.224
  124POPC  H15X16611  -0.315   8.619   4.272
  124POPC  H15Y16612  -0.325   8.466   4.178
  124POPC  C31616613  -0.171   8.600   4.111
  124POPC  H16X16614  -0.104   8.680   4.150
  124POPC  H16Y16615  -0.238   8.644   4.034
  124POPC  H16Z16616  -0.108   8.521   4.063
  125POPC     N16617   1.216   0.164   6.197
  125POPC   C1216618   1.181   0.311   6.194
  125POPC  H12A16619   1.268   0.367   6.166
  125POPC  H12B16620   1.152   0.337   6.295
  125POPC   C1316621   1.101   0.094   6.262
  125POPC  H13A16622   1.083   0.133   6.361
  125POPC  H13B16623   1.012   0.122   6.205
  125POPC  H13C16624   1.110  -0.013   6.261
  125POPC   C1416625   1.229   0.114   6.056
  125POPC  H14A16626   1.135   0.133   6.004
  125POPC  H14B16627   1.307   0.168   6.003
  125POPC  H14C16628   1.250   0.008   6.055
  125POPC   C1516629   1.340   0.134   6.274
  125POPC  H15A16630   1.371   0.030   6.260
  125POPC  H15B16631   1.331   0.147   6.382
  125POPC  H15C16632   1.424   0.195   6.243
  125POPC   C1116633   1.061   0.359   6.110
  125POPC  H11A16634   1.075   0.329   6.003
  125POPC  H11B16635   1.059   0.470   6.112
  125POPC     P16636   0.831   0.246   6.076
  125POPC   O1316637   0.806   0.348   5.971
  125POPC   O1416638   0.723   0.196   6.163
  125POPC   O1216639   0.940   0.312   6.171
  125POPC   O1116640   0.921   0.126   6.022
  125POPC    C116641   0.904  -0.010   6.059
  125POPC    HA16642   0.847  -0.023   6.155
  125POPC    HB16643   1.005  -0.055   6.074
  125POPC    C216644   0.839  -0.097   5.950
  125POPC    HS16645   0.868  -0.204   5.971
  125POPC   O2116646   0.876  -0.058   5.818
  125POPC   C2116647   0.987  -0.103   5.773
  125POPC   O2216648   1.069  -0.169   5.835
  125POPC   C2216649   0.989  -0.077   5.623
  125POPC   H2R16650   0.917   0.004   5.600
  125POPC   H2S16651   0.954  -0.170   5.572
  125POPC    C316652   0.687  -0.090   5.954
  125POPC    HX16653   0.653  -0.085   6.059
  125POPC    HY16654   0.650  -0.187   5.911
  125POPC   O3116655   0.636   0.024   5.883
  125POPC   C3116656   0.612   0.003   5.755
  125POPC   O3216657   0.631  -0.101   5.693
  125POPC   C3216658   0.562   0.131   5.689
  125POPC   H2X16659   0.631   0.213   5.718
  125POPC   H2Y16660   0.462   0.154   5.731
  125POPC   C2316661   1.126  -0.036   5.567
  125POPC   H3R16662   1.201  -0.116   5.586
  125POPC   H3S16663   1.162   0.057   5.617
  125POPC   C2416664   1.115  -0.012   5.416
  125POPC   H4R16665   1.035   0.061   5.394
  125POPC   H4S16666   1.086  -0.109   5.368
  125POPC   C2516667   1.248   0.036   5.357
  125POPC   H5R16668   1.327  -0.032   5.395
  125POPC   H5S16669   1.272   0.138   5.392
  125POPC   C2616670   1.250   0.029   5.205
  125POPC   H6R16671   1.194  -0.062   5.172
  125POPC   H6S16672   1.354   0.017   5.169
  125POPC   C2716673   1.188   0.154   5.144
  125POPC   H7R16674   1.098   0.180   5.203
  125POPC   H7S16675   1.156   0.130   5.041
  125POPC   C2816676   1.278   0.278   5.137
  125POPC   H8R16677   1.283   0.324   5.238
  125POPC   H8S16678   1.225   0.352   5.071
  125POPC   C2916679   1.417   0.253   5.085
  125POPC   H9116680   1.496   0.256   5.161
  125POPC  C21016681   1.450   0.228   4.957
  125POPC  H10116682   1.556   0.216   4.930
  125POPC  C21116683   1.354   0.222   4.842
  125POPC  H11R16684   1.249   0.208   4.876
  125POPC  H11S16685   1.377   0.133   4.778
  125POPC  C21216686   1.356   0.348   4.755
  125POPC  H12R16687   1.460   0.363   4.715
  125POPC  H12S16688   1.330   0.437   4.817
  125POPC  C21316689   1.258   0.341   4.638
  125POPC  H13R16690   1.272   0.244   4.584
  125POPC  H13S16691   1.282   0.424   4.567
  125POPC  C21416692   1.111   0.358   4.677
  125POPC  H14R16693   1.099   0.453   4.734
  125POPC  H14S16694   1.081   0.275   4.744
  125POPC  C21516695   1.020   0.360   4.554
  125POPC  H15R16696   1.055   0.281   4.483
  125POPC  H15S16697   1.031   0.458   4.502
  125POPC  C21616698   0.873   0.332   4.587
  125POPC  H16R16699   0.836   0.411   4.656
  125POPC  H16S16700   0.867   0.235   4.642
  125POPC  C21716701   0.782   0.325   4.464
  125POPC  H17R16702   0.677   0.316   4.499
  125POPC  H17S16703   0.806   0.232   4.407
  125POPC  C21816704   0.793   0.443   4.367
  125POPC  H18R16705   0.714   0.437   4.289
  125POPC  H18S16706   0.892   0.443   4.316
  125POPC  H18T16707   0.781   0.539   4.421
  125POPC   C3316708   0.557   0.114   5.535
  125POPC   H3X16709   0.470   0.172   5.498
  125POPC   H3Y16710   0.537   0.009   5.503
  125POPC   C3416711   0.686   0.165   5.470
  125POPC   H4X16712   0.771   0.101   5.500
  125POPC   H4Y16713   0.707   0.267   5.507
  125POPC   C3516714   0.679   0.168   5.317
  125POPC   H5X16715   0.583   0.125   5.283
  125POPC   H5Y16716   0.760   0.103   5.278
  125POPC   C3616717   0.695   0.310   5.259
  125POPC   H6X16718   0.797   0.350   5.282
  125POPC   H6Y16719   0.622   0.377   5.308
  125POPC   C3716720   0.668   0.314   5.108
  125POPC   H7X16721   0.605   0.400   5.081
  125POPC   H7Y16722   0.607   0.225   5.082
  125POPC   C3816723   0.794   0.316   5.021
  125POPC   H8X16724   0.862   0.397   5.052
  125POPC   H8Y16725   0.766   0.333   4.914
  125POPC   C3916726   0.877   0.190   5.034
  125POPC   H9X16727   0.911   0.186   5.140
  125POPC   H9Y16728   0.966   0.198   4.969
  125POPC  C31016729   0.802   0.060   5.005
  125POPC  H10X16730   0.765   0.059   4.901
  125POPC  H10Y16731   0.712   0.052   5.070
  125POPC  C31116732   0.889  -0.060   5.040
  125POPC  H11X16733   0.824  -0.149   5.043
  125POPC  H11Y16734   0.933  -0.047   5.141
  125POPC  C31216735   1.000  -0.091   4.938
  125POPC  H12X16736   1.050  -0.186   4.969
  125POPC  H12Y16737   1.076  -0.012   4.938
  125POPC  C31316738   0.947  -0.105   4.796
  125POPC  H13X16739   0.901  -0.010   4.760
  125POPC  H13Y16740   0.868  -0.182   4.797
  125POPC  C31416741   1.057  -0.146   4.699
  125POPC  H14X16742   1.010  -0.189   4.608
  125POPC  H14Y16743   1.117  -0.227   4.747
  125POPC  C31516744   1.148  -0.030   4.661
  125POPC  H15X16745   1.162   0.037   4.749
  125POPC  H15Y16746   1.100   0.034   4.583
  125POPC  C31616747   1.285  -0.078   4.615
  125POPC  H16X16748   1.276  -0.147   4.528
  125POPC  H16Y16749   1.335  -0.132   4.698
  125POPC  H16Z16750   1.349   0.008   4.586
  126POPC     N16751   0.361   8.794   6.207
  126POPC   C1216752   0.247   8.891   6.175
  126POPC  H12A16753   0.153   8.852   6.213
  126POPC  H12B16754   0.234   8.901   6.067
  126POPC   C1316755   0.488   8.849   6.149
  126POPC  H13A16756   0.483   8.853   6.041
  126POPC  H13B16757   0.494   8.953   6.181
  126POPC  H13C16758   0.577   8.796   6.180
  126POPC   C1416759   0.378   8.786   6.355
  126POPC  H14A16760   0.468   8.734   6.383
  126POPC  H14B16761   0.388   8.887   6.394
  126POPC  H14C16762   0.294   8.741   6.405
  126POPC   C1516763   0.335   8.659   6.151
  126POPC  H15A16764   0.425   8.598   6.156
  126POPC  H15B16765   0.305   8.667   6.047
  126POPC  H15C16766   0.257   8.606   6.206
  126POPC   C1116767   0.264   9.036   6.227
  126POPC  H11A16768   0.290   9.039   6.335
  126POPC  H11B16769   0.166   9.089   6.218
  126POPC     P16770   0.339   9.222   6.056
  126POPC   O1316771   0.425   9.202   5.939
  126POPC   O1416772   0.346   9.348   6.134
  126POPC   O1216773   0.366   9.100   6.153
  126POPC   O1116774   0.190   9.193   6.010
  126POPC    C116775   0.138   9.253   5.891
  126POPC    HA16776   0.160   9.363   5.891
  126POPC    HB16777   0.028   9.245   5.895
  126POPC    C216778   0.181   9.195   5.749
  126POPC    HS16779   0.089   9.154   5.702
  126POPC   O2116780   0.281   9.092   5.743
  126POPC   C2116781   0.267   8.983   5.815
  126POPC   O2216782   0.169   8.947   5.877
  126POPC   C2216783   0.396   8.900   5.810
  126POPC   H2R16784   0.379   8.813   5.876
  126POPC   H2S16785   0.478   8.963   5.852
  126POPC    C316786   0.230   9.314   5.662
  126POPC    HX16787   0.306   9.366   5.725
  126POPC    HY16788   0.150   9.388   5.644
  126POPC   O3116789   0.295   9.279   5.538
  126POPC   C3116790   0.230   9.205   5.452
  126POPC   O3216791   0.113   9.172   5.454
  126POPC   C3216792   0.326   9.159   5.344
  126POPC   H2X16793   0.421   9.215   5.350
  126POPC   H2Y16794   0.278   9.183   5.247
  126POPC   C2316795   0.436   8.850   5.670
  126POPC   H3R16796   0.484   8.937   5.620
  126POPC   H3S16797   0.347   8.821   5.610
  126POPC   C2416798   0.533   8.729   5.673
  126POPC   H4R16799   0.474   8.637   5.694
  126POPC   H4S16800   0.606   8.744   5.756
  126POPC   C2516801   0.612   8.709   5.543
  126POPC   H5R16802   0.542   8.699   5.457
  126POPC   H5S16803   0.669   8.614   5.548
  126POPC   C2616804   0.709   8.825   5.516
  126POPC   H6R16805   0.782   8.833   5.599
  126POPC   H6S16806   0.652   8.920   5.514
  126POPC   C2716807   0.786   8.814   5.383
  126POPC   H7R16808   0.716   8.781   5.303
  126POPC   H7S16809   0.860   8.734   5.394
  126POPC   C2816810   0.857   8.944   5.342
  126POPC   H8R16811   0.920   8.925   5.253
  126POPC   H8S16812   0.925   8.975   5.424
  126POPC   C2916813   0.753   9.049   5.315
  126POPC   H9116814   0.731   9.117   5.400
  126POPC  C21016815   0.683   9.061   5.201
  126POPC  H10116816   0.606   9.138   5.194
  126POPC  C21116817   0.699   8.970   5.080
  126POPC  H11R16818   0.667   8.866   5.103
  126POPC  H11S16819   0.807   8.964   5.053
  126POPC  C21216820   0.623   9.018   4.954
  126POPC  H12R16821   0.620   9.129   4.952
  126POPC  H12S16822   0.518   8.982   4.958
  126POPC  C21316823   0.687   8.970   4.822
  126POPC  H13R16824   0.664   8.862   4.811
  126POPC  H13S16825   0.797   8.977   4.830
  126POPC  C21416826   0.640   9.053   4.701
  126POPC  H14R16827   0.669   9.158   4.720
  126POPC  H14S16828   0.529   9.051   4.694
  126POPC  C21516829   0.700   9.014   4.564
  126POPC  H15R16830   0.808   8.993   4.575
  126POPC  H15S16831   0.691   9.103   4.498
  126POPC  C21616832   0.628   8.899   4.490
  126POPC  H16R16833   0.686   8.872   4.399
  126POPC  H16S16834   0.529   8.938   4.458
  126POPC  C21716835   0.601   8.775   4.575
  126POPC  H17R16836   0.535   8.805   4.659
  126POPC  H17S16837   0.698   8.739   4.617
  126POPC  C21816838   0.533   8.658   4.505
  126POPC  H18R16839   0.446   8.686   4.444
  126POPC  H18S16840   0.497   8.587   4.583
  126POPC  H18T16841   0.603   8.607   4.437
  126POPC   C3316842   0.349   9.007   5.360
  126POPC   H3X16843   0.263   8.957   5.411
  126POPC   H3Y16844   0.438   8.995   5.426
  126POPC   C3416845   0.375   8.931   5.230
  126POPC   H4X16846   0.440   8.844   5.255
  126POPC   H4Y16847   0.430   8.994   5.159
  126POPC   C3516848   0.247   8.876   5.166
  126POPC   H5X16849   0.187   8.822   5.242
  126POPC   H5Y16850   0.277   8.801   5.089
  126POPC   C3616851   0.161   8.983   5.097
  126POPC   H6X16852   0.127   9.058   5.171
  126POPC   H6Y16853   0.070   8.934   5.058
  126POPC   C3716854   0.238   9.050   4.982
  126POPC   H7X16855   0.284   8.968   4.921
  126POPC   H7Y16856   0.320   9.113   5.022
  126POPC   C3816857   0.151   9.131   4.887
  126POPC   H8X16858   0.088   9.205   4.942
  126POPC   H8Y16859   0.085   9.055   4.840
  126POPC   C3916860   0.231   9.200   4.775
  126POPC   H9X16861   0.321   9.137   4.755
  126POPC   H9Y16862   0.266   9.299   4.811
  126POPC  C31016863   0.156   9.216   4.641
  126POPC  H10X16864   0.067   9.280   4.657
  126POPC  H10Y16865   0.121   9.117   4.606
  126POPC  C31116866   0.248   9.278   4.534
  126POPC  H11X16867   0.333   9.209   4.515
  126POPC  H11Y16868   0.291   9.372   4.578
  126POPC  C31216869   0.180   9.317   4.401
  126POPC  H12X16870   0.203   9.424   4.381
  126POPC  H12Y16871   0.071   9.310   4.413
  126POPC  C31316872   0.225   9.236   4.277
  126POPC  H13X16873   0.163   9.145   4.268
  126POPC  H13Y16874   0.329   9.203   4.298
  126POPC  C31416875   0.228   9.315   4.143
  126POPC  H14X16876   0.330   9.360   4.135
  126POPC  H14Y16877   0.160   9.401   4.154
  126POPC  C31516878   0.201   9.243   4.007
  126POPC  H15X16879   0.291   9.181   3.986
  126POPC  H15Y16880   0.203   9.320   3.927
  126POPC  C31616881   0.075   9.157   3.979
  126POPC  H16X16882   0.063   9.076   4.053
  126POPC  H16Y16883   0.081   9.111   3.878
  126POPC  H16Z16884  -0.020   9.210   3.979
  127POPC     N16885   0.027   0.706   6.254
  127POPC   C1216886   0.042   0.563   6.201
  127POPC  H12A16887   0.035   0.563   6.091
  127POPC  H12B16888  -0.038   0.501   6.239
  127POPC   C1316889   0.012   0.708   6.403
  127POPC  H13A16890   0.092   0.653   6.452
  127POPC  H13B16891   0.012   0.809   6.441
  127POPC  H13C16892  -0.079   0.658   6.434
  127POPC   C1416893   0.155   0.776   6.221
  127POPC  H14A16894   0.167   0.782   6.114
  127POPC  H14B16895   0.166   0.874   6.267
  127POPC  H14C16896   0.238   0.713   6.253
  127POPC   C1516897  -0.086   0.779   6.186
  127POPC  H15A16898  -0.102   0.875   6.232
  127POPC  H15B16899  -0.181   0.726   6.182
  127POPC  H15C16900  -0.059   0.803   6.082
  127POPC   C1116901   0.176   0.488   6.228
  127POPC  H11A16902   0.159   0.377   6.224
  127POPC  H11B16903   0.213   0.510   6.328
  127POPC     P16904   0.280   0.466   5.991
  127POPC   O1316905   0.151   0.507   5.931
  127POPC   O1416906   0.313   0.322   5.990
  127POPC   O1216907   0.278   0.529   6.138
  127POPC   O1116908   0.399   0.547   5.924
  127POPC    C116909   0.531   0.528   5.976
  127POPC    HA16910   0.579   0.440   5.927
  127POPC    HB16911   0.531   0.508   6.086
  127POPC    C216912   0.623   0.652   5.956
  127POPC    HS16913   0.704   0.645   6.032
  127POPC   O2116914   0.552   0.778   5.969
  127POPC   C2116915   0.490   0.804   6.085
  127POPC   O2216916   0.517   0.755   6.193
  127POPC   C2216917   0.408   0.932   6.068
  127POPC   H2R16918   0.475   1.016   6.096
  127POPC   H2S16919   0.326   0.934   6.142
  127POPC    C316920   0.696   0.650   5.816
  127POPC    HX16921   0.756   0.555   5.819
  127POPC    HY16922   0.768   0.734   5.812
  127POPC   O3116923   0.610   0.660   5.701
  127POPC   C3116924   0.631   0.573   5.603
  127POPC   O3216925   0.726   0.496   5.595
  127POPC   C3216926   0.519   0.585   5.501
  127POPC   H2X16927   0.565   0.605   5.403
  127POPC   H2Y16928   0.456   0.671   5.530
  127POPC   C2316929   0.354   0.956   5.925
  127POPC   H3R16930   0.443   0.967   5.861
  127POPC   H3S16931   0.295   1.050   5.920
  127POPC   C2416932   0.275   0.840   5.866
  127POPC   H4R16933   0.179   0.827   5.918
  127POPC   H4S16934   0.332   0.748   5.886
  127POPC   C2516935   0.259   0.840   5.713
  127POPC   H5R16936   0.358   0.856   5.665
  127POPC   H5S16937   0.193   0.923   5.681
  127POPC   C2616938   0.204   0.704   5.665
  127POPC   H6R16939   0.134   0.666   5.743
  127POPC   H6S16940   0.287   0.630   5.665
  127POPC   C2716941   0.127   0.702   5.531
  127POPC   H7R16942   0.034   0.761   5.541
  127POPC   H7S16943   0.093   0.598   5.514
  127POPC   C2816944   0.201   0.761   5.410
  127POPC   H8R16945   0.305   0.723   5.409
  127POPC   H8S16946   0.208   0.871   5.429
  127POPC   C2916947   0.137   0.731   5.276
  127POPC   H9116948   0.083   0.635   5.270
  127POPC  C21016949   0.143   0.812   5.168
  127POPC  H10116950   0.097   0.778   5.073
  127POPC  C21116951   0.214   0.945   5.161
  127POPC  H11R16952   0.276   0.960   5.252
  127POPC  H11S16953   0.143   1.030   5.164
  127POPC  C21216954   0.308   0.957   5.039
  127POPC  H12R16955   0.371   0.867   5.040
  127POPC  H12S16956   0.372   1.047   5.053
  127POPC  C21316957   0.253   0.968   4.897
  127POPC  H13R16958   0.211   1.069   4.883
  127POPC  H13S16959   0.174   0.893   4.877
  127POPC  C21416960   0.364   0.954   4.793
  127POPC  H14R16961   0.451   1.017   4.822
  127POPC  H14S16962   0.327   0.992   4.695
  127POPC  C21516963   0.406   0.808   4.779
  127POPC  H15R16964   0.318   0.746   4.750
  127POPC  H15S16965   0.445   0.769   4.875
  127POPC  C21616966   0.514   0.792   4.674
  127POPC  H16R16967   0.555   0.688   4.681
  127POPC  H16S16968   0.595   0.865   4.694
  127POPC  C21716969   0.461   0.812   4.533
  127POPC  H17R16970   0.464   0.920   4.507
  127POPC  H17S16971   0.353   0.782   4.531
  127POPC  C21816972   0.538   0.727   4.433
  127POPC  H18R16973   0.498   0.743   4.331
  127POPC  H18S16974   0.529   0.620   4.458
  127POPC  H18T16975   0.645   0.751   4.434
  127POPC   C3316976   0.436   0.456   5.498
  127POPC   H3X16977   0.387   0.438   5.597
  127POPC   H3Y16978   0.505   0.372   5.481
  127POPC   C3416979   0.331   0.455   5.386
  127POPC   H4X16980   0.365   0.523   5.304
  127POPC   H4Y16981   0.236   0.495   5.426
  127POPC   C3516982   0.301   0.318   5.327
  127POPC   H5X16983   0.259   0.251   5.405
  127POPC   H5Y16984   0.397   0.275   5.293
  127POPC   C3616985   0.203   0.328   5.209
  127POPC   H6X16986   0.229   0.417   5.148
  127POPC   H6Y16987   0.101   0.348   5.250
  127POPC   C3716988   0.202   0.203   5.120
  127POPC   H7X16989   0.121   0.214   5.044
  127POPC   H7Y16990   0.177   0.115   5.182
  127POPC   C3816991   0.335   0.178   5.047
  127POPC   H8X16992   0.326   0.083   4.988
  127POPC   H8Y16993   0.414   0.160   5.123
  127POPC   C3916994   0.377   0.291   4.952
  127POPC   H9X16995   0.480   0.271   4.915
  127POPC   H9Y16996   0.380   0.389   5.005
  127POPC  C31016997   0.286   0.299   4.830
  127POPC  H10X16998   0.181   0.317   4.861
  127POPC  H10Y16999   0.290   0.199   4.780
  127POPC  C31117000   0.325   0.405   4.726
  127POPC  H11X17001   0.434   0.400   4.706
  127POPC  H11Y17002   0.302   0.507   4.765
  127POPC  C31217003   0.247   0.378   4.596
  127POPC  H12X17004   0.138   0.377   4.619
  127POPC  H12Y17005   0.275   0.275   4.563
  127POPC  C31317006   0.275   0.474   4.480
  127POPC  H13X17007   0.385   0.476   4.464
  127POPC  H13Y17008   0.241   0.577   4.506
  127POPC  C31417009   0.207   0.426   4.351
  127POPC  H14X17010   0.097   0.430   4.365
  127POPC  H14Y17011   0.234   0.319   4.336
  127POPC  C31517012   0.244   0.502   4.224
  127POPC  H15X17013   0.212   0.607   4.230
  127POPC  H15Y17014   0.184   0.458   4.141
  127POPC  C31617015   0.393   0.501   4.187
  127POPC  H16X17016   0.406   0.545   4.086
  127POPC  H16Y17017   0.433   0.398   4.187
  127POPC  H16Z17018   0.454   0.561   4.256
  128POPC     N17019   8.972  -0.254   6.074
  128POPC   C1217020   8.897  -0.151   5.989
  128POPC  H12A17021   8.829  -0.202   5.924
  128POPC  H12B17022   8.967  -0.096   5.926
  128POPC   C1317023   9.057  -0.344   5.991
  128POPC  H13A17024   9.125  -0.290   5.926
  128POPC  H13B17025   9.119  -0.407   6.054
  128POPC  H13C17026   8.998  -0.410   5.929
  128POPC   C1417027   9.061  -0.181   6.171
  128POPC  H14A17028   9.102  -0.246   6.246
  128POPC  H14B17029   9.140  -0.130   6.118
  128POPC  H14C17030   9.003  -0.101   6.218
  128POPC   C1517031   8.880  -0.339   6.157
  128POPC  H15A17032   8.797  -0.381   6.102
  128POPC  H15B17033   8.840  -0.282   6.241
  128POPC  H15C17034   8.935  -0.424   6.200
  128POPC   C1117035   8.820  -0.039   6.064
  128POPC  H11A17036   8.748  -0.089   6.133
  128POPC  H11B17037   8.761   0.020   5.989
  128POPC     P17038   8.843   0.146   6.242
  128POPC   O1317039   8.938   0.166   6.356
  128POPC   O1417040   8.704   0.106   6.269
  128POPC   O1217041   8.910   0.047   6.135
  128POPC   O1117042   8.841   0.285   6.166
  128POPC    C117043   8.962   0.341   6.118
  128POPC    HA17044   9.047   0.269   6.114
  128POPC    HB17045   8.991   0.428   6.181
  128POPC    C217046   8.942   0.391   5.975
  128POPC    HS17047   8.876   0.481   5.981
  128POPC   O2117048   8.882   0.287   5.900
  128POPC   C2117049   8.817   0.328   5.794
  128POPC   O2217050   8.770   0.439   5.776
  128POPC   C2217051   8.808   0.205   5.705
  128POPC   H2R17052   8.718   0.155   5.744
  128POPC   H2S17053   8.894   0.139   5.726
  128POPC    C317054   9.076   0.427   5.907
  128POPC    HX17055   9.133   0.500   5.969
  128POPC    HY17056   9.045   0.476   5.815
  128POPC   O3117057   9.158   0.313   5.878
  128POPC   C3117058   9.162   0.276   5.750
  128POPC   O3217059   9.126   0.341   5.654
  128POPC   C3217060   9.213   0.134   5.741
  128POPC   H2X17061   9.194   0.083   5.837
  128POPC   H2Y17062   9.322   0.140   5.724
  128POPC   C2317063   8.802   0.223   5.552
  128POPC   H3R17064   8.896   0.269   5.514
  128POPC   H3S17065   8.720   0.290   5.520
  128POPC   C2417066   8.782   0.083   5.489
  128POPC   H4R17067   8.870   0.022   5.516
  128POPC   H4S17068   8.780   0.092   5.378
  128POPC   C2517069   8.653   0.016   5.540
  128POPC   H5R17070   8.572   0.083   5.509
  128POPC   H5S17071   8.648   0.008   5.650
  128POPC   C2617072   8.617  -0.123   5.488
  128POPC   H6R17073   8.647  -0.137   5.383
  128POPC   H6S17074   8.505  -0.127   5.492
  128POPC   C2717075   8.663  -0.237   5.579
  128POPC   H7R17076   8.573  -0.294   5.605
  128POPC   H7S17077   8.704  -0.199   5.675
  128POPC   C2817078   8.760  -0.331   5.508
  128POPC   H8R17079   8.719  -0.356   5.408
  128POPC   H8S17080   8.771  -0.428   5.561
  128POPC   C2917081   8.890  -0.257   5.504
  128POPC   H9117082   8.946  -0.250   5.598
  128POPC  C21017083   8.941  -0.200   5.395
  128POPC  H10117084   9.031  -0.139   5.406
  128POPC  C21117085   8.887  -0.196   5.255
  128POPC  H11R17086   8.840  -0.099   5.230
  128POPC  H11S17087   8.813  -0.277   5.235
  128POPC  C21217088   9.015  -0.218   5.176
  128POPC  H12R17089   9.061  -0.316   5.203
  128POPC  H12S17090   9.089  -0.137   5.202
  128POPC  C21317091   9.005  -0.213   5.025
  128POPC  H13R17092   8.945  -0.126   4.990
  128POPC  H13S17093   8.955  -0.306   4.988
  128POPC  C21417094   9.148  -0.204   4.972
  128POPC  H14R17095   9.210  -0.278   5.027
  128POPC  H14S17096   9.192  -0.103   4.993
  128POPC  C21517097   9.152  -0.237   4.825
  128POPC  H15R17098   9.096  -0.332   4.818
  128POPC  H15S17099   9.254  -0.255   4.788
  128POPC  C21617100   9.092  -0.129   4.736
  128POPC  H16R17101   9.174  -0.081   4.678
  128POPC  H16S17102   9.042  -0.050   4.796
  128POPC  C21717103   8.991  -0.189   4.637
  128POPC  H17R17104   8.972  -0.111   4.561
  128POPC  H17S17105   8.896  -0.208   4.691
  128POPC  C21817106   9.037  -0.320   4.573
  128POPC  H18R17107   8.979  -0.343   4.482
  128POPC  H18S17108   9.021  -0.407   4.641
  128POPC  H18T17109   9.144  -0.314   4.545
  128POPC   C3317110   9.142   0.059   5.626
  128POPC   H3X17111   9.066   0.121   5.574
  128POPC   H3Y17112   9.088  -0.028   5.668
  128POPC   C3417113   9.244   0.009   5.524
  128POPC   H4X17114   9.202  -0.066   5.455
  128POPC   H4Y17115   9.320  -0.045   5.583
  128POPC   C3517116   9.311   0.119   5.439
  128POPC   H5X17117   9.416   0.087   5.418
  128POPC   H5Y17118   9.316   0.215   5.494
  128POPC   C3617119   9.241   0.139   5.304
  128POPC   H6X17120   9.221   0.040   5.256
  128POPC   H6Y17121   9.308   0.195   5.235
  128POPC   C3717122   9.112   0.219   5.316
  128POPC   H7X17123   9.135   0.312   5.373
  128POPC   H7Y17124   9.037   0.162   5.375
  128POPC   C3817125   9.050   0.257   5.182
  128POPC   H8X17126   9.124   0.307   5.116
  128POPC   H8Y17127   8.970   0.328   5.208
  128POPC   C3917128   8.978   0.143   5.108
  128POPC   H9X17129   8.914   0.092   5.183
  128POPC   H9Y17130   9.051   0.069   5.069
  128POPC  C31017131   8.889   0.198   4.996
  128POPC  H10X17132   8.942   0.196   4.899
  128POPC  H10Y17133   8.867   0.305   5.019
  128POPC  C31117134   8.753   0.129   4.985
  128POPC  H11X17135   8.705   0.132   5.086
  128POPC  H11Y17136   8.765   0.022   4.958
  128POPC  C31217137   8.659   0.199   4.886
  128POPC  H12X17138   8.673   0.309   4.891
  128POPC  H12Y17139   8.554   0.179   4.916
  128POPC  C31317140   8.675   0.149   4.742
  128POPC  H13X17141   8.689   0.038   4.745
  128POPC  H13Y17142   8.768   0.191   4.698
  128POPC  C31417143   8.552   0.179   4.655
  128POPC  H14X17144   8.462   0.131   4.700
  128POPC  H14Y17145   8.568   0.134   4.554
  128POPC  C31517146   8.523   0.329   4.636
  128POPC  H15X17147   8.494   0.375   4.733
  128POPC  H15Y17148   8.436   0.339   4.567
  128POPC  C31617149   8.641   0.406   4.578
  128POPC  H16X17150   8.676   0.355   4.485
  128POPC  H16Y17151   8.726   0.410   4.649
  128POPC  H16Z17152   8.613   0.511   4.552
  129POPC     N17153   4.936   4.497   2.213
  129POPC   C1217154   4.891   4.472   2.356
  129POPC  H12A17155   4.929   4.555   2.415
  129POPC  H12B17156   4.939   4.382   2.393
  129POPC   C1317157   4.904   4.638   2.173
  129POPC  H13A17158   4.795   4.650   2.176
  129POPC  H13B17159   4.945   4.709   2.242
  129POPC  H13C17160   4.939   4.659   2.073
  129POPC   C1417161   5.084   4.477   2.211
  129POPC  H14A17162   5.125   4.503   2.114
  129POPC  H14B17163   5.132   4.539   2.287
  129POPC  H14C17164   5.110   4.374   2.232
  129POPC   C1517165   4.864   4.408   2.117
  129POPC  H15A17166   4.875   4.304   2.146
  129POPC  H15B17167   4.904   4.420   2.017
  129POPC  H15C17168   4.758   4.434   2.116
  129POPC   C1117169   4.741   4.464   2.385
  129POPC  H11A17170   4.731   4.451   2.496
  129POPC  H11B17171   4.694   4.377   2.336
  129POPC     P17172   4.550   4.633   2.418
  129POPC   O1317173   4.490   4.516   2.484
  129POPC   O1417174   4.469   4.713   2.323
  129POPC   O1217175   4.680   4.584   2.338
  129POPC   O1117176   4.612   4.728   2.529
  129POPC    C117177   4.735   4.798   2.518
  129POPC    HA17178   4.714   4.902   2.485
  129POPC    HB17179   4.806   4.751   2.446
  129POPC    C217180   4.803   4.805   2.657
  129POPC    HS17181   4.898   4.863   2.648
  129POPC   O2117182   4.828   4.676   2.716
  129POPC   C2117183   4.926   4.609   2.664
  129POPC   O2217184   4.997   4.646   2.572
  129POPC   C2217185   4.940   4.474   2.736
  129POPC   H2R17186   5.020   4.419   2.683
  129POPC   H2S17187   4.845   4.419   2.724
  129POPC    C317188   4.714   4.879   2.757
  129POPC    HX17189   4.617   4.825   2.766
  129POPC    HY17190   4.695   4.983   2.721
  129POPC   O3117191   4.785   4.877   2.881
  129POPC   C3117192   4.734   4.951   2.976
  129POPC   O3217193   4.642   5.029   2.966
  129POPC   C3217194   4.809   4.916   3.103
  129POPC   H2X17195   4.918   4.915   3.082
  129POPC   H2Y17196   4.777   4.812   3.129
  129POPC   C2317197   4.976   4.482   2.887
  129POPC   H3R17198   4.895   4.534   2.943
  129POPC   H3S17199   5.070   4.542   2.898
  129POPC   C2417200   5.000   4.342   2.946
  129POPC   H4R17201   5.066   4.285   2.876
  129POPC   H4S17202   4.903   4.288   2.953
  129POPC   C2517203   5.069   4.338   3.084
  129POPC   H5R17204   5.169   4.385   3.074
  129POPC   H5S17205   5.088   4.231   3.112
  129POPC   C2617206   4.992   4.405   3.199
  129POPC   H6R17207   4.953   4.504   3.167
  129POPC   H6S17208   5.063   4.424   3.283
  129POPC   C2717209   4.878   4.319   3.257
  129POPC   H7R17210   4.922   4.223   3.290
  129POPC   H7S17211   4.806   4.297   3.175
  129POPC   C2817212   4.806   4.388   3.375
  129POPC   H8R17213   4.760   4.482   3.338
  129POPC   H8S17214   4.882   4.416   3.451
  129POPC   C2917215   4.700   4.299   3.436
  129POPC   H9117216   4.681   4.207   3.379
  129POPC  C21017217   4.632   4.320   3.550
  129POPC  H10117218   4.560   4.242   3.581
  129POPC  C21117219   4.642   4.435   3.647
  129POPC  H11R17220   4.722   4.505   3.616
  129POPC  H11S17221   4.671   4.395   3.747
  129POPC  C21217222   4.512   4.519   3.666
  129POPC  H12R17223   4.431   4.450   3.700
  129POPC  H12S17224   4.482   4.563   3.569
  129POPC  C21317225   4.523   4.633   3.771
  129POPC  H13R17226   4.558   4.586   3.865
  129POPC  H13S17227   4.422   4.673   3.792
  129POPC  C21417228   4.615   4.751   3.732
  129POPC  H14R17229   4.570   4.803   3.644
  129POPC  H14S17230   4.713   4.712   3.696
  129POPC  C21517231   4.647   4.857   3.842
  129POPC  H15R17232   4.692   4.946   3.792
  129POPC  H15S17233   4.723   4.818   3.912
  129POPC  C21617234   4.531   4.903   3.930
  129POPC  H16R17235   4.481   4.816   3.977
  129POPC  H16S17236   4.458   4.956   3.866
  129POPC  C21717237   4.574   5.001   4.042
  129POPC  H17R17238   4.483   5.052   4.079
  129POPC  H17S17239   4.641   5.079   4.000
  129POPC  C21817240   4.640   4.932   4.161
  129POPC  H18R17241   4.595   4.832   4.174
  129POPC  H18S17242   4.625   4.990   4.254
  129POPC  H18T17243   4.749   4.916   4.146
  129POPC   C3317244   4.778   5.008   3.221
  129POPC   H3X17245   4.672   5.043   3.220
  129POPC   H3Y17246   4.843   5.099   3.218
  129POPC   C3417247   4.800   4.932   3.351
  129POPC   H4X17248   4.726   4.849   3.358
  129POPC   H4Y17249   4.781   4.999   3.437
  129POPC   C3517250   4.941   4.877   3.368
  129POPC   H5X17251   5.016   4.958   3.358
  129POPC   H5Y17252   4.963   4.799   3.291
  129POPC   C3617253   4.948   4.813   3.506
  129POPC   H6X17254   4.877   4.728   3.507
  129POPC   H6Y17255   4.911   4.884   3.583
  129POPC   C3717256   5.087   4.767   3.548
  129POPC   H7X17257   5.156   4.854   3.551
  129POPC   H7Y17258   5.127   4.693   3.476
  129POPC   C3817259   5.077   4.705   3.687
  129POPC   H8X17260   5.022   4.777   3.752
  129POPC   H8Y17261   5.178   4.693   3.730
  129POPC   C3917262   5.008   4.569   3.685
  129POPC   H9X17263   5.074   4.496   3.634
  129POPC   H9Y17264   4.913   4.574   3.630
  129POPC  C31017265   4.977   4.519   3.826
  129POPC  H10X17266   5.068   4.533   3.886
  129POPC  H10Y17267   4.951   4.411   3.821
  129POPC  C31117268   4.863   4.596   3.890
  129POPC  H11X17269   4.770   4.564   3.841
  129POPC  H11Y17270   4.877   4.704   3.871
  129POPC  C31217271   4.849   4.578   4.041
  129POPC  H12X17272   4.894   4.666   4.093
  129POPC  H12Y17273   4.900   4.487   4.076
  129POPC  C31317274   4.704   4.562   4.084
  129POPC  H13X17275   4.664   4.466   4.046
  129POPC  H13Y17276   4.642   4.645   4.042
  129POPC  C31417277   4.696   4.567   4.235
  129POPC  H14X17278   4.717   4.672   4.267
  129POPC  H14Y17279   4.771   4.500   4.282
  129POPC  C31517280   4.556   4.527   4.277
  129POPC  H15X17281   4.490   4.563   4.196
  129POPC  H15Y17282   4.532   4.578   4.374
  129POPC  C31617283   4.531   4.380   4.300
  129POPC  H16X17284   4.560   4.320   4.212
  129POPC  H16Y17285   4.424   4.365   4.323
  129POPC  H16Z17286   4.586   4.347   4.391
  130POPC     N17287   5.271   5.229   2.404
  130POPC   C1217288   5.127   5.178   2.394
  130POPC  H12A17289   5.067   5.234   2.466
  130POPC  H12B17290   5.129   5.074   2.423
  130POPC   C1317291   5.267   5.379   2.420
  130POPC  H13A17292   5.206   5.408   2.505
  130POPC  H13B17293   5.365   5.420   2.430
  130POPC  H13C17294   5.218   5.424   2.333
  130POPC   C1417295   5.338   5.165   2.522
  130POPC  H14A17296   5.444   5.186   2.524
  130POPC  H14B17297   5.294   5.192   2.616
  130POPC  H14C17298   5.332   5.056   2.515
  130POPC   C1517299   5.347   5.194   2.281
  130POPC  H15A17300   5.355   5.086   2.271
  130POPC  H15B17301   5.446   5.237   2.281
  130POPC  H15C17302   5.293   5.230   2.193
  130POPC   C1117303   5.050   5.186   2.258
  130POPC  H11A17304   4.949   5.140   2.272
  130POPC  H11B17305   5.101   5.119   2.187
  130POPC     P17306   4.939   5.428   2.259
  130POPC   O1317307   4.809   5.432   2.186
  130POPC   O1417308   5.011   5.555   2.276
  130POPC   O1217309   5.038   5.317   2.200
  130POPC   O1117310   4.912   5.367   2.403
  130POPC    C117311   4.785   5.383   2.466
  130POPC    HA17312   4.753   5.284   2.506
  130POPC    HB17313   4.705   5.420   2.398
  130POPC    C217314   4.795   5.480   2.586
  130POPC    HS17315   4.826   5.580   2.547
  130POPC   O2117316   4.890   5.422   2.678
  130POPC   C2117317   4.983   5.503   2.723
  130POPC   O2217318   4.996   5.621   2.697
  130POPC   C2217319   5.066   5.428   2.827
  130POPC   H2R17320   5.171   5.424   2.794
  130POPC   H2S17321   5.026   5.325   2.840
  130POPC    C317322   4.659   5.496   2.659
  130POPC    HX17323   4.627   5.393   2.689
  130POPC    HY17324   4.582   5.533   2.587
  130POPC   O3117325   4.672   5.589   2.768
  130POPC   C3117326   4.652   5.539   2.890
  130POPC   O3217327   4.607   5.429   2.915
  130POPC   C3217328   4.698   5.640   2.996
  130POPC   H2X17329   4.631   5.727   2.993
  130POPC   H2Y17330   4.799   5.676   2.971
  130POPC   C2317331   5.052   5.507   2.959
  130POPC   H3R17332   4.945   5.531   2.975
  130POPC   H3S17333   5.107   5.604   2.949
  130POPC   C2417334   5.096   5.436   3.086
  130POPC   H4R17335   5.201   5.399   3.077
  130POPC   H4S17336   5.029   5.349   3.104
  130POPC   C2517337   5.086   5.534   3.203
  130POPC   H5R17338   4.989   5.588   3.197
  130POPC   H5S17339   5.167   5.610   3.191
  130POPC   C2617340   5.095   5.467   3.341
  130POPC   H6R17341   5.178   5.394   3.343
  130POPC   H6S17342   5.000   5.411   3.359
  130POPC   C2717343   5.117   5.569   3.454
  130POPC   H7R17344   5.096   5.520   3.551
  130POPC   H7S17345   5.044   5.653   3.443
  130POPC   C2817346   5.261   5.623   3.454
  130POPC   H8R17347   5.277   5.681   3.360
  130POPC   H8S17348   5.330   5.536   3.448
  130POPC   C2917349   5.297   5.710   3.570
  130POPC   H9117350   5.294   5.819   3.550
  130POPC  C21017351   5.327   5.669   3.694
  130POPC  H10117352   5.366   5.744   3.764
  130POPC  C21117353   5.331   5.529   3.749
  130POPC  H11R17354   5.436   5.492   3.748
  130POPC  H11S17355   5.274   5.459   3.686
  130POPC  C21217356   5.280   5.521   3.895
  130POPC  H12R17357   5.326   5.602   3.956
  130POPC  H12S17358   5.318   5.425   3.938
  130POPC  C21317359   5.127   5.522   3.915
  130POPC  H13R17360   5.103   5.440   3.986
  130POPC  H13S17361   5.076   5.499   3.819
  130POPC  C21417362   5.071   5.653   3.974
  130POPC  H14R17363   5.075   5.729   3.893
  130POPC  H14S17364   5.136   5.687   4.058
  130POPC  C21517365   4.925   5.649   4.024
  130POPC  H15R17366   4.859   5.621   3.938
  130POPC  H15S17367   4.896   5.752   4.055
  130POPC  C21617368   4.900   5.554   4.142
  130POPC  H16R17369   4.895   5.615   4.235
  130POPC  H16S17370   4.986   5.485   4.155
  130POPC  C21717371   4.771   5.471   4.128
  130POPC  H17R17372   4.685   5.540   4.112
  130POPC  H17S17373   4.753   5.419   4.225
  130POPC  C21817374   4.775   5.367   4.015
  130POPC  H18R17375   4.687   5.301   4.019
  130POPC  H18S17376   4.865   5.305   4.025
  130POPC  H18T17377   4.781   5.415   3.915
  130POPC   C3317378   4.690   5.585   3.140
  130POPC   H3X17379   4.766   5.505   3.154
  130POPC   H3Y17380   4.590   5.539   3.157
  130POPC   C3417381   4.711   5.696   3.245
  130POPC   H4X17382   4.658   5.788   3.212
  130POPC   H4Y17383   4.819   5.722   3.251
  130POPC   C3517384   4.660   5.658   3.385
  130POPC   H5X17385   4.549   5.649   3.383
  130POPC   H5Y17386   4.685   5.739   3.457
  130POPC   C3617387   4.718   5.525   3.433
  130POPC   H6X17388   4.829   5.530   3.435
  130POPC   H6Y17389   4.688   5.447   3.359
  130POPC   C3717390   4.666   5.482   3.570
  130POPC   H7X17391   4.571   5.536   3.591
  130POPC   H7Y17392   4.738   5.510   3.649
  130POPC   C3817393   4.637   5.331   3.572
  130POPC   H8X17394   4.556   5.309   3.498
  130POPC   H8Y17395   4.599   5.301   3.673
  130POPC   C3917396   4.756   5.244   3.536
  130POPC   H9X17397   4.785   5.259   3.429
  130POPC   H9Y17398   4.723   5.140   3.550
  130POPC  C31017399   4.878   5.269   3.624
  130POPC  H10X17400   4.849   5.249   3.730
  130POPC  H10Y17401   4.910   5.375   3.617
  130POPC  C31117402   4.997   5.181   3.586
  130POPC  H11X17403   5.022   5.198   3.479
  130POPC  H11Y17404   4.969   5.074   3.597
  130POPC  C31217405   5.120   5.209   3.672
  130POPC  H12X17406   5.145   5.316   3.654
  130POPC  H12Y17407   5.206   5.148   3.636
  130POPC  C31317408   5.100   5.187   3.823
  130POPC  H13X17409   5.031   5.264   3.862
  130POPC  H13Y17410   5.198   5.201   3.873
  130POPC  C31417411   5.043   5.048   3.857
  130POPC  H14X17412   5.095   4.974   3.792
  130POPC  H14Y17413   4.935   5.044   3.832
  130POPC  C31517414   5.065   5.006   4.003
  130POPC  H15X17415   5.172   5.022   4.029
  130POPC  H15Y17416   5.044   4.897   4.012
  130POPC  C31617417   4.977   5.081   4.104
  130POPC  H16X17418   4.870   5.066   4.081
  130POPC  H16Y17419   5.000   5.189   4.100
  130POPC  H16Z17420   4.997   5.047   4.208
  131POPC     N17421   4.395   5.279   2.262
  131POPC   C1217422   4.273   5.257   2.173
  131POPC  H12A17423   4.222   5.166   2.206
  131POPC  H12B17424   4.308   5.236   2.073
  131POPC   C1317425   4.439   5.422   2.260
  131POPC  H13A17426   4.537   5.433   2.305
  131POPC  H13B17427   4.444   5.460   2.158
  131POPC  H13C17428   4.367   5.483   2.314
  131POPC   C1417429   4.358   5.237   2.399
  131POPC  H14A17430   4.292   5.150   2.397
  131POPC  H14B17431   4.443   5.218   2.465
  131POPC  H14C17432   4.300   5.314   2.451
  131POPC   C1517433   4.506   5.192   2.212
  131POPC  H15A17434   4.530   5.216   2.109
  131POPC  H15B17435   4.479   5.087   2.215
  131POPC  H15C17436   4.597   5.209   2.267
  131POPC   C1117437   4.162   5.366   2.163
  131POPC  H11A17438   4.092   5.338   2.081
  131POPC  H11B17439   4.209   5.462   2.134
  131POPC     P17440   4.020   5.276   2.370
  131POPC   O1317441   4.060   5.144   2.316
  131POPC   O1417442   3.878   5.307   2.392
  131POPC   O1217443   4.087   5.390   2.281
  131POPC   O1117444   4.099   5.301   2.507
  131POPC    C117445   4.133   5.440   2.530
  131POPC    HA17446   4.049   5.509   2.503
  131POPC    HB17447   4.219   5.468   2.466
  131POPC    C217448   4.174   5.477   2.675
  131POPC    HS17449   4.266   5.540   2.668
  131POPC   O2117450   4.195   5.365   2.762
  131POPC   C2117451   4.311   5.307   2.747
  131POPC   O2217452   4.394   5.334   2.661
  131POPC   C2217453   4.332   5.203   2.857
  131POPC   H2R17454   4.435   5.163   2.850
  131POPC   H2S17455   4.259   5.121   2.842
  131POPC    C317456   4.067   5.568   2.740
  131POPC    HX17457   4.046   5.647   2.664
  131POPC    HY17458   4.112   5.617   2.829
  131POPC   O3117459   3.944   5.500   2.767
  131POPC   C3117460   3.939   5.438   2.885
  131POPC   O3217461   4.018   5.457   2.977
  131POPC   C3217462   3.817   5.345   2.890
  131POPC   H2X17463   3.785   5.325   2.786
  131POPC   H2Y17464   3.735   5.397   2.942
  131POPC   C2317465   4.312   5.266   2.997
  131POPC   H3R17466   4.215   5.321   2.999
  131POPC   H3S17467   4.392   5.340   3.018
  131POPC   C2417468   4.304   5.164   3.111
  131POPC   H4R17469   4.403   5.115   3.125
  131POPC   H4S17470   4.231   5.085   3.083
  131POPC   C2517471   4.258   5.230   3.242
  131POPC   H5R17472   4.156   5.272   3.227
  131POPC   H5S17473   4.326   5.316   3.265
  131POPC   C2617474   4.255   5.136   3.364
  131POPC   H6R17475   4.209   5.195   3.447
  131POPC   H6S17476   4.359   5.109   3.394
  131POPC   C2717477   4.173   5.009   3.340
  131POPC   H7R17478   4.230   4.939   3.275
  131POPC   H7S17479   4.082   5.040   3.284
  131POPC   C2817480   4.126   4.937   3.468
  131POPC   H8R17481   4.053   4.857   3.443
  131POPC   H8S17482   4.069   5.010   3.529
  131POPC   C2917483   4.240   4.874   3.543
  131POPC   H9117484   4.278   4.779   3.503
  131POPC  C21017485   4.297   4.928   3.650
  131POPC  H10117486   4.378   4.874   3.700
  131POPC  C21117487   4.256   5.059   3.711
  131POPC  H11R17488   4.211   5.128   3.637
  131POPC  H11S17489   4.346   5.112   3.749
  131POPC  C21217490   4.152   5.045   3.822
  131POPC  H12R17491   4.071   4.974   3.793
  131POPC  H12S17492   4.104   5.144   3.837
  131POPC  C21317493   4.213   5.003   3.954
  131POPC  H13R17494   4.299   5.068   3.979
  131POPC  H13S17495   4.247   4.897   3.953
  131POPC  C21417496   4.107   5.023   4.060
  131POPC  H14R17497   4.018   4.965   4.031
  131POPC  H14S17498   4.079   5.131   4.067
  131POPC  C21517499   4.148   4.972   4.196
  131POPC  H15R17500   4.233   5.030   4.237
  131POPC  H15S17501   4.174   4.865   4.186
  131POPC  C21617502   4.026   4.985   4.283
  131POPC  H16R17503   3.956   4.902   4.255
  131POPC  H16S17504   3.981   5.083   4.254
  131POPC  C21717505   4.047   4.993   4.432
  131POPC  H17R17506   3.970   5.062   4.476
  131POPC  H17S17507   4.146   5.037   4.455
  131POPC  C21817508   4.027   4.855   4.492
  131POPC  H18R17509   4.013   4.860   4.602
  131POPC  H18S17510   4.111   4.788   4.470
  131POPC  H18T17511   3.939   4.808   4.445
  131POPC   C3317512   3.843   5.209   2.962
  131POPC   H3X17513   3.922   5.154   2.906
  131POPC   H3Y17514   3.750   5.149   2.954
  131POPC   C3417515   3.885   5.217   3.110
  131POPC   H4X17516   3.956   5.299   3.130
  131POPC   H4Y17517   3.940   5.125   3.134
  131POPC   C3517518   3.770   5.225   3.211
  131POPC   H5X17519   3.696   5.146   3.188
  131POPC   H5Y17520   3.717   5.322   3.200
  131POPC   C3617521   3.817   5.207   3.356
  131POPC   H6X17522   3.897   5.130   3.362
  131POPC   H6Y17523   3.732   5.173   3.419
  131POPC   C3717524   3.865   5.342   3.408
  131POPC   H7X17525   3.775   5.407   3.407
  131POPC   H7Y17526   3.941   5.383   3.338
  131POPC   C3817527   3.920   5.345   3.550
  131POPC   H8X17528   4.013   5.285   3.556
  131POPC   H8Y17529   3.845   5.301   3.619
  131POPC   C3917530   3.947   5.491   3.592
  131POPC   H9X17531   3.860   5.529   3.649
  131POPC   H9Y17532   3.957   5.552   3.499
  131POPC  C31017533   4.076   5.511   3.671
  131POPC  H10X17534   4.074   5.440   3.756
  131POPC  H10Y17535   4.079   5.614   3.713
  131POPC  C31117536   4.202   5.488   3.586
  131POPC  H11X17537   4.233   5.579   3.532
  131POPC  H11Y17538   4.180   5.412   3.507
  131POPC  C31217539   4.317   5.433   3.671
  131POPC  H12X17540   4.399   5.402   3.604
  131POPC  H12Y17541   4.277   5.341   3.718
  131POPC  C31317542   4.368   5.531   3.778
  131POPC  H13X17543   4.281   5.575   3.831
  131POPC  H13Y17544   4.421   5.616   3.730
  131POPC  C31417545   4.461   5.469   3.884
  131POPC  H14X17546   4.471   5.542   3.968
  131POPC  H14Y17547   4.562   5.454   3.843
  131POPC  C31517548   4.408   5.338   3.942
  131POPC  H15X17549   4.473   5.306   4.026
  131POPC  H15Y17550   4.417   5.259   3.865
  131POPC  C31617551   4.263   5.348   3.990
  131POPC  H16X17552   4.244   5.449   4.032
  131POPC  H16Y17553   4.242   5.273   4.069
  131POPC  H16Z17554   4.191   5.333   3.908
  132POPC     N17555   3.698   4.508   2.202
  132POPC   C1217556   3.836   4.568   2.184
  132POPC  H12A17557   3.840   4.665   2.232
  132POPC  H12B17558   3.854   4.583   2.078
  132POPC   C1317559   3.706   4.360   2.182
  132POPC  H13A17560   3.618   4.308   2.218
  132POPC  H13B17561   3.725   4.328   2.081
  132POPC  H13C17562   3.788   4.324   2.244
  132POPC   C1417563   3.657   4.528   2.346
  132POPC  H14A17564   3.649   4.632   2.375
  132POPC  H14B17565   3.567   4.473   2.368
  132POPC  H14C17566   3.736   4.487   2.409
  132POPC   C1517567   3.598   4.567   2.110
  132POPC  H15A17568   3.505   4.514   2.118
  132POPC  H15B17569   3.634   4.561   2.008
  132POPC  H15C17570   3.581   4.673   2.127
  132POPC   C1117571   3.955   4.484   2.239
  132POPC  H11A17572   4.048   4.545   2.242
  132POPC  H11B17573   3.974   4.401   2.168
  132POPC     P17574   3.981   4.466   2.503
  132POPC   O1317575   4.117   4.414   2.519
  132POPC   O1417576   3.880   4.427   2.605
  132POPC   O1217577   3.925   4.423   2.363
  132POPC   O1117578   3.980   4.623   2.490
  132POPC    C117579   4.089   4.708   2.526
  132POPC    HA17580   4.090   4.795   2.458
  132POPC    HB17581   4.188   4.656   2.514
  132POPC    C217582   4.076   4.761   2.671
  132POPC    HS17583   4.167   4.824   2.691
  132POPC   O2117584   4.066   4.649   2.761
  132POPC   C2117585   4.183   4.598   2.794
  132POPC   O2217586   4.289   4.656   2.787
  132POPC   C2217587   4.164   4.460   2.857
  132POPC   H2R17588   4.265   4.418   2.875
  132POPC   H2S17589   4.113   4.396   2.782
  132POPC    C317590   3.955   4.857   2.691
  132POPC    HX17591   3.929   4.908   2.595
  132POPC    HY17592   3.987   4.936   2.762
  132POPC   O3117593   3.843   4.789   2.752
  132POPC   C3117594   3.755   4.735   2.670
  132POPC   O3217595   3.740   4.760   2.552
  132POPC   C3217596   3.658   4.650   2.750
  132POPC   H2X17597   3.715   4.567   2.796
  132POPC   H2Y17598   3.585   4.608   2.678
  132POPC   C2317599   4.083   4.463   2.988
  132POPC   H3R17600   4.075   4.358   3.024
  132POPC   H3S17601   3.979   4.497   2.967
  132POPC   C2417602   4.148   4.546   3.100
  132POPC   H4R17603   4.258   4.530   3.101
  132POPC   H4S17604   4.108   4.509   3.198
  132POPC   C2517605   4.117   4.696   3.096
  132POPC   H5R17606   4.169   4.748   3.012
  132POPC   H5S17607   4.156   4.741   3.190
  132POPC   C2617608   3.966   4.724   3.088
  132POPC   H6R17609   3.914   4.641   3.139
  132POPC   H6S17610   3.932   4.727   2.982
  132POPC   C2717611   3.929   4.854   3.159
  132POPC   H7R17612   3.987   4.935   3.112
  132POPC   H7S17613   3.961   4.844   3.265
  132POPC   C2817614   3.779   4.887   3.163
  132POPC   H8R17615   3.749   4.932   3.066
  132POPC   H8S17616   3.765   4.964   3.242
  132POPC   C2917617   3.693   4.768   3.193
  132POPC   H9117618   3.682   4.700   3.109
  132POPC  C21017619   3.646   4.727   3.311
  132POPC  H10117620   3.581   4.638   3.316
  132POPC  C21117621   3.670   4.793   3.442
  132POPC  H11R17622   3.623   4.894   3.445
  132POPC  H11S17623   3.780   4.808   3.457
  132POPC  C21217624   3.616   4.708   3.557
  132POPC  H12R17625   3.650   4.603   3.555
  132POPC  H12S17626   3.505   4.707   3.554
  132POPC  C21317627   3.666   4.771   3.686
  132POPC  H13R17628   3.646   4.880   3.671
  132POPC  H13S17629   3.776   4.758   3.694
  132POPC  C21417630   3.598   4.724   3.814
  132POPC  H14R17631   3.618   4.617   3.832
  132POPC  H14S17632   3.488   4.732   3.799
  132POPC  C21517633   3.640   4.808   3.935
  132POPC  H15R17634   3.742   4.777   3.966
  132POPC  H15S17635   3.571   4.786   4.019
  132POPC  C21617636   3.643   4.960   3.910
  132POPC  H16R17637   3.620   5.011   4.006
  132POPC  H16S17638   3.565   4.990   3.837
  132POPC  C21717639   3.781   5.008   3.863
  132POPC  H17R17640   3.807   4.965   3.765
  132POPC  H17S17641   3.854   4.966   3.935
  132POPC  C21817642   3.802   5.159   3.853
  132POPC  H18R17643   3.878   5.180   3.776
  132POPC  H18S17644   3.843   5.199   3.947
  132POPC  H18T17645   3.707   5.211   3.828
  132POPC   C3317646   3.586   4.737   2.855
  132POPC   H3X17647   3.554   4.832   2.805
  132POPC   H3Y17648   3.658   4.768   2.932
  132POPC   C3417649   3.457   4.676   2.913
  132POPC   H4X17650   3.396   4.639   2.829
  132POPC   H4Y17651   3.401   4.760   2.961
  132POPC   C3517652   3.467   4.564   3.019
  132POPC   H5X17653   3.362   4.540   3.042
  132POPC   H5Y17654   3.507   4.602   3.115
  132POPC   C3617655   3.538   4.433   2.979
  132POPC   H6X17656   3.544   4.428   2.869
  132POPC   H6Y17657   3.476   4.347   3.012
  132POPC   C3717658   3.679   4.415   3.041
  132POPC   H7X17659   3.738   4.508   3.023
  132POPC   H7Y17660   3.731   4.332   2.988
  132POPC   C3817661   3.676   4.383   3.191
  132POPC   H8X17662   3.623   4.287   3.207
  132POPC   H8Y17663   3.615   4.459   3.243
  132POPC   C3917664   3.814   4.377   3.258
  132POPC   H9X17665   3.877   4.460   3.220
  132POPC   H9Y17666   3.865   4.282   3.233
  132POPC  C31017667   3.806   4.394   3.411
  132POPC  H10X17668   3.737   4.318   3.453
  132POPC  H10Y17669   3.761   4.493   3.432
  132POPC  C31117670   3.941   4.386   3.484
  132POPC  H11X17671   3.977   4.488   3.507
  132POPC  H11Y17672   4.015   4.339   3.415
  132POPC  C31217673   3.937   4.301   3.612
  132POPC  H12X17674   4.040   4.294   3.652
  132POPC  H12Y17675   3.904   4.198   3.584
  132POPC  C31317676   3.843   4.349   3.723
  132POPC  H13X17677   3.843   4.273   3.805
  132POPC  H13Y17678   3.739   4.354   3.682
  132POPC  C31417679   3.877   4.486   3.785
  132POPC  H14X17680   3.795   4.513   3.855
  132POPC  H14Y17681   3.880   4.562   3.704
  132POPC  C31517682   4.008   4.491   3.865
  132POPC  H15X17683   4.032   4.598   3.883
  132POPC  H15Y17684   4.091   4.448   3.806
  132POPC  C31617685   3.999   4.422   4.002
  132POPC  H16X17686   4.090   4.443   4.062
  132POPC  H16Y17687   3.988   4.312   3.991
  132POPC  H16Z17688   3.910   4.458   4.058
  133POPC     N17689   5.735   4.558   2.209
  133POPC   C1217690   5.586   4.591   2.220
  133POPC  H12A17691   5.543   4.536   2.304
  133POPC  H12B17692   5.536   4.557   2.130
  133POPC   C1317693   5.805   4.604   2.331
  133POPC  H13A17694   5.784   4.709   2.349
  133POPC  H13B17695   5.766   4.551   2.417
  133POPC  H13C17696   5.912   4.585   2.328
  133POPC   C1417697   5.757   4.410   2.194
  133POPC  H14A17698   5.861   4.392   2.172
  133POPC  H14B17699   5.731   4.356   2.284
  133POPC  H14C17700   5.699   4.368   2.112
  133POPC   C1517701   5.795   4.627   2.090
  133POPC  H15A17702   5.742   4.598   1.999
  133POPC  H15B17703   5.900   4.604   2.080
  133POPC  H15C17704   5.782   4.735   2.101
  133POPC   C1117705   5.547   4.740   2.243
  133POPC  H11A17706   5.437   4.751   2.223
  133POPC  H11B17707   5.598   4.804   2.168
  133POPC     P17708   5.475   4.773   2.491
  133POPC   O1317709   5.427   4.634   2.493
  133POPC   O1417710   5.375   4.880   2.473
  133POPC   O1217711   5.582   4.785   2.374
  133POPC   O1117712   5.568   4.806   2.615
  133POPC    C117713   5.678   4.722   2.651
  133POPC    HA17714   5.738   4.775   2.728
  133POPC    HB17715   5.745   4.704   2.565
  133POPC    C217716   5.634   4.587   2.715
  133POPC    HS17717   5.584   4.526   2.636
  133POPC   O2117718   5.542   4.620   2.821
  133POPC   C2117719   5.468   4.518   2.861
  133POPC   O2217720   5.482   4.402   2.824
  133POPC   C2217721   5.368   4.570   2.965
  133POPC   H2R17722   5.276   4.511   2.949
  133POPC   H2S17723   5.346   4.676   2.945
  133POPC    C317724   5.757   4.506   2.767
  133POPC    HX17725   5.818   4.479   2.678
  133POPC    HY17726   5.726   4.409   2.812
  133POPC   O3117727   5.838   4.586   2.855
  133POPC   C3117728   5.798   4.585   2.982
  133POPC   O3217729   5.714   4.511   3.030
  133POPC   C3217730   5.878   4.687   3.063
  133POPC   H2X17731   5.861   4.788   3.019
  133POPC   H2Y17732   5.985   4.660   3.052
  133POPC   C2317733   5.420   4.551   3.109
  133POPC   H3R17734   5.511   4.613   3.125
  133POPC   H3S17735   5.450   4.444   3.121
  133POPC   C2417736   5.319   4.586   3.219
  133POPC   H4R17737   5.217   4.560   3.184
  133POPC   H4S17738   5.319   4.695   3.239
  133POPC   C2517739   5.346   4.507   3.348
  133POPC   H5R17740   5.356   4.399   3.322
  133POPC   H5S17741   5.260   4.516   3.418
  133POPC   C2617742   5.473   4.551   3.422
  133POPC   H6R17743   5.561   4.548   3.354
  133POPC   H6S17744   5.492   4.479   3.505
  133POPC   C2717745   5.461   4.691   3.484
  133POPC   H7R17746   5.363   4.700   3.535
  133POPC   H7S17747   5.465   4.768   3.403
  133POPC   C2817748   5.574   4.715   3.586
  133POPC   H8R17749   5.668   4.678   3.539
  133POPC   H8S17750   5.555   4.648   3.672
  133POPC   C2917751   5.595   4.858   3.632
  133POPC   H9117752   5.686   4.905   3.593
  133POPC  C21017753   5.514   4.930   3.712
  133POPC  H10117754   5.544   5.033   3.737
  133POPC  C21117755   5.384   4.884   3.773
  133POPC  H11R17756   5.338   4.806   3.710
  133POPC  H11S17757   5.314   4.971   3.771
  133POPC  C21217758   5.387   4.832   3.919
  133POPC  H12R17759   5.283   4.829   3.958
  133POPC  H12S17760   5.443   4.907   3.979
  133POPC  C21317761   5.450   4.692   3.942
  133POPC  H13R17762   5.496   4.693   4.044
  133POPC  H13S17763   5.536   4.682   3.873
  133POPC  C21417764   5.357   4.568   3.930
  133POPC  H14R17765   5.412   4.493   3.868
  133POPC  H14S17766   5.265   4.593   3.876
  133POPC  C21517767   5.324   4.498   4.064
  133POPC  H15R17768   5.370   4.563   4.141
  133POPC  H15S17769   5.374   4.399   4.068
  133POPC  C21617770   5.178   4.475   4.110
  133POPC  H16R17771   5.115   4.563   4.088
  133POPC  H16S17772   5.183   4.467   4.221
  133POPC  C21717773   5.115   4.341   4.069
  133POPC  H17R17774   5.189   4.287   4.008
  133POPC  H17S17775   5.026   4.353   4.005
  133POPC  C21817776   5.071   4.254   4.187
  133POPC  H18R17777   5.150   4.180   4.213
  133POPC  H18S17778   4.978   4.197   4.164
  133POPC  H18T17779   5.053   4.315   4.277
  133POPC   C3317780   5.838   4.684   3.212
  133POPC   H3X17781   5.827   4.578   3.246
  133POPC   H3Y17782   5.739   4.733   3.228
  133POPC   C3417783   5.945   4.748   3.300
  133POPC   H4X17784   5.950   4.857   3.279
  133POPC   H4Y17785   6.044   4.705   3.269
  133POPC   C3517786   5.927   4.724   3.451
  133POPC   H5X17787   5.907   4.617   3.471
  133POPC   H5Y17788   5.841   4.785   3.485
  133POPC   C3617789   6.055   4.768   3.524
  133POPC   H6X17790   6.074   4.873   3.493
  133POPC   H6Y17791   6.137   4.705   3.483
  133POPC   C3717792   6.064   4.762   3.679
  133POPC   H7X17793   6.123   4.851   3.711
  133POPC   H7Y17794   6.125   4.673   3.706
  133POPC   C3817795   5.932   4.758   3.759
  133POPC   H8X17796   5.908   4.650   3.775
  133POPC   H8Y17797   5.849   4.801   3.699
  133POPC   C3917798   5.933   4.829   3.897
  133POPC   H9X17799   5.887   4.930   3.886
  133POPC   H9Y17800   6.037   4.844   3.931
  133POPC  C31017801   5.854   4.744   3.999
  133POPC  H10X17802   5.898   4.642   3.991
  133POPC  H10Y17803   5.748   4.738   3.965
  133POPC  C31117804   5.855   4.778   4.150
  133POPC  H11X17805   5.784   4.860   4.172
  133POPC  H11Y17806   5.955   4.807   4.186
  133POPC  C31217807   5.815   4.648   4.224
  133POPC  H12X17808   5.905   4.584   4.234
  133POPC  H12Y17809   5.747   4.598   4.153
  133POPC  C31317810   5.740   4.653   4.359
  133POPC  H13X17811   5.736   4.549   4.398
  133POPC  H13Y17812   5.635   4.683   4.344
  133POPC  C31417813   5.804   4.741   4.467
  133POPC  H14X17814   5.894   4.788   4.423
  133POPC  H14Y17815   5.835   4.675   4.551
  133POPC  C31517816   5.710   4.847   4.525
  133POPC  H15X17817   5.642   4.881   4.444
  133POPC  H15Y17818   5.768   4.936   4.557
  133POPC  C31617819   5.631   4.797   4.647
  133POPC  H16X17820   5.541   4.860   4.664
  133POPC  H16Y17821   5.695   4.802   4.738
  133POPC  H16Z17822   5.598   4.692   4.634
  134POPC     N17823   4.439   3.685   2.126
  134POPC   C1217824   4.545   3.675   2.236
  134POPC  H12A17825   4.606   3.765   2.234
  134POPC  H12B17826   4.611   3.593   2.213
  134POPC   C1317827   4.365   3.815   2.137
  134POPC  H13A17828   4.278   3.816   2.073
  134POPC  H13B17829   4.334   3.829   2.242
  134POPC  H13C17830   4.427   3.899   2.110
  134POPC   C1417831   4.507   3.676   1.992
  134POPC  H14A17832   4.545   3.576   1.973
  134POPC  H14B17833   4.439   3.704   1.913
  134POPC  H14C17834   4.589   3.748   1.989
  134POPC   C1517835   4.343   3.570   2.135
  134POPC  H15A17836   4.293   3.571   2.230
  134POPC  H15B17837   4.396   3.474   2.129
  134POPC  H15C17838   4.269   3.572   2.056
  134POPC   C1117839   4.505   3.654   2.385
  134POPC  H11A17840   4.600   3.647   2.445
  134POPC  H11B17841   4.455   3.555   2.394
  134POPC     P17842   4.365   3.742   2.586
  134POPC   O1317843   4.379   3.869   2.659
  134POPC   O1417844   4.423   3.618   2.644
  134POPC   O1217845   4.425   3.761   2.438
  134POPC   O1117846   4.211   3.719   2.552
  134POPC    C117847   4.182   3.695   2.415
  134POPC    HA17848   4.239   3.607   2.380
  134POPC    HB17849   4.208   3.784   2.354
  134POPC    C217850   4.033   3.663   2.388
  134POPC    HS17851   4.011   3.684   2.281
  134POPC   O2117852   3.947   3.742   2.475
  134POPC   C2117853   3.962   3.873   2.449
  134POPC   O2217854   4.007   3.918   2.345
  134POPC   C2217855   3.920   3.962   2.565
  134POPC   H2R17856   3.810   3.959   2.574
  134POPC   H2S17857   3.950   4.066   2.536
  134POPC    C317858   4.016   3.509   2.409
  134POPC    HX17859   4.086   3.460   2.338
  134POPC    HY17860   3.916   3.475   2.379
  134POPC   O3117861   4.051   3.461   2.540
  134POPC   C3117862   3.954   3.469   2.630
  134POPC   O3217863   3.841   3.510   2.609
  134POPC   C3217864   3.998   3.396   2.756
  134POPC   H2X17865   4.062   3.310   2.726
  134POPC   H2Y17866   3.907   3.355   2.805
  134POPC   C2317867   3.990   3.927   2.699
  134POPC   H3R17868   4.091   3.885   2.683
  134POPC   H3S17869   3.929   3.849   2.750
  134POPC   C2417870   4.007   4.049   2.791
  134POPC   H4R17871   3.933   4.128   2.762
  134POPC   H4S17872   4.108   4.093   2.778
  134POPC   C2517873   3.983   4.010   2.937
  134POPC   H5R17874   3.897   3.940   2.941
  134POPC   H5S17875   3.956   4.101   2.996
  134POPC   C2617876   4.104   3.942   3.001
  134POPC   H6R17877   4.191   4.011   2.994
  134POPC   H6S17878   4.129   3.849   2.944
  134POPC   C2717879   4.077   3.907   3.147
  134POPC   H7R17880   3.999   3.827   3.151
  134POPC   H7S17881   4.035   3.997   3.198
  134POPC   C2817882   4.203   3.860   3.220
  134POPC   H8R17883   4.279   3.942   3.216
  134POPC   H8S17884   4.247   3.774   3.165
  134POPC   C2917885   4.169   3.822   3.361
  134POPC   H9117886   4.159   3.714   3.380
  134POPC  C21017887   4.152   3.909   3.463
  134POPC  H10117888   4.129   3.869   3.563
  134POPC  C21117889   4.164   4.058   3.452
  134POPC  H11R17890   4.089   4.107   3.518
  134POPC  H11S17891   4.142   4.095   3.350
  134POPC  C21217892   4.305   4.106   3.490
  134POPC  H12R17893   4.312   4.216   3.474
  134POPC  H12S17894   4.377   4.058   3.419
  134POPC  C21317895   4.349   4.072   3.633
  134POPC  H13R17896   4.460   4.082   3.638
  134POPC  H13S17897   4.328   3.966   3.657
  134POPC  C21417898   4.289   4.165   3.740
  134POPC  H14R17899   4.273   4.266   3.697
  134POPC  H14S17900   4.364   4.176   3.822
  134POPC  C21517901   4.159   4.113   3.802
  134POPC  H15R17902   4.089   4.080   3.723
  134POPC  H15S17903   4.109   4.195   3.858
  134POPC  C21617904   4.184   3.997   3.899
  134POPC  H16R17905   4.256   3.927   3.852
  134POPC  H16S17906   4.090   3.941   3.920
  134POPC  C21717907   4.243   4.047   4.032
  134POPC  H17R17908   4.160   4.045   4.105
  134POPC  H17S17909   4.274   4.154   4.022
  134POPC  C21817910   4.362   3.964   4.080
  134POPC  H18R17911   4.332   3.857   4.085
  134POPC  H18S17912   4.445   3.976   4.006
  134POPC  H18T17913   4.400   3.993   4.180
  134POPC   C3317914   4.076   3.483   2.856
  134POPC   H3X17915   4.007   3.551   2.910
  134POPC   H3Y17916   4.153   3.546   2.804
  134POPC   C3417917   4.149   3.392   2.956
  134POPC   H4X17918   4.225   3.332   2.902
  134POPC   H4Y17919   4.076   3.321   3.001
  134POPC   C3517920   4.216   3.472   3.068
  134POPC   H5X17921   4.138   3.530   3.122
  134POPC   H5Y17922   4.288   3.545   3.025
  134POPC   C3617923   4.288   3.381   3.168
  134POPC   H6X17924   4.374   3.330   3.118
  134POPC   H6Y17925   4.217   3.303   3.204
  134POPC   C3717926   4.337   3.462   3.288
  134POPC   H7X17927   4.252   3.524   3.322
  134POPC   H7Y17928   4.419   3.530   3.255
  134POPC   C3817929   4.384   3.376   3.406
  134POPC   H8X17930   4.456   3.299   3.371
  134POPC   H8Y17931   4.295   3.323   3.448
  134POPC   C3917932   4.450   3.461   3.516
  134POPC   H9X17933   4.550   3.493   3.481
  134POPC   H9Y17934   4.463   3.397   3.606
  134POPC  C31017935   4.369   3.587   3.551
  134POPC  H10X17936   4.266   3.557   3.582
  134POPC  H10Y17937   4.360   3.652   3.461
  134POPC  C31117938   4.433   3.674   3.660
  134POPC  H11X17939   4.363   3.757   3.683
  134POPC  H11Y17940   4.526   3.718   3.620
  134POPC  C31217941   4.465   3.597   3.789
  134POPC  H12X17942   4.509   3.669   3.862
  134POPC  H12Y17943   4.543   3.522   3.765
  134POPC  C31317944   4.345   3.527   3.854
  134POPC  H13X17945   4.381   3.457   3.933
  134POPC  H13Y17946   4.291   3.466   3.779
  134POPC  C31417947   4.250   3.628   3.919
  134POPC  H14X17948   4.259   3.724   3.864
  134POPC  H14Y17949   4.286   3.646   4.023
  134POPC  C31517950   4.102   3.590   3.917
  134POPC  H15X17951   4.068   3.584   3.811
  134POPC  H15Y17952   4.045   3.674   3.964
  134POPC  C31617953   4.067   3.460   3.988
  134POPC  H16X17954   3.993   3.480   4.069
  134POPC  H16Y17955   4.157   3.414   4.034
  134POPC  H16Z17956   4.021   3.387   3.918
  135POPC     N17957   5.499   3.854   2.257
  135POPC   C1217958   5.432   3.880   2.392
  135POPC  H12A17959   5.466   3.975   2.430
  135POPC  H12B17960   5.466   3.804   2.462
  135POPC   C1317961   5.445   3.946   2.153
  135POPC  H13A17962   5.463   4.049   2.180
  135POPC  H13B17963   5.491   3.928   2.056
  135POPC  H13C17964   5.338   3.931   2.145
  135POPC   C1417965   5.647   3.870   2.267
  135POPC  H14A17966   5.690   3.802   2.341
  135POPC  H14B17967   5.697   3.852   2.174
  135POPC  H14C17968   5.677   3.968   2.305
  135POPC   C1517969   5.466   3.715   2.215
  135POPC  H15A17970   5.357   3.705   2.224
  135POPC  H15B17971   5.512   3.645   2.283
  135POPC  H15C17972   5.496   3.698   2.113
  135POPC   C1117973   5.277   3.878   2.394
  135POPC  H11A17974   5.236   3.950   2.321
  135POPC  H11B17975   5.247   3.913   2.496
  135POPC     P17976   5.071   3.717   2.399
  135POPC   O1317977   5.064   3.634   2.520
  135POPC   O1417978   5.018   3.654   2.276
  135POPC   O1217979   5.226   3.747   2.369
  135POPC   O1117980   5.005   3.860   2.421
  135POPC    C117981   4.922   3.885   2.535
  135POPC    HA17982   4.879   3.792   2.581
  135POPC    HB17983   4.835   3.947   2.503
  135POPC    C217984   4.994   3.964   2.649
  135POPC    HS17985   5.034   4.057   2.602
  135POPC   O2117986   5.099   3.884   2.703
  135POPC   C2117987   5.204   3.944   2.753
  135POPC   O2217988   5.227   4.064   2.748
  135POPC   C2217989   5.296   3.836   2.812
  135POPC   H2R17990   5.389   3.834   2.751
  135POPC   H2S17991   5.245   3.738   2.800
  135POPC    C317992   4.896   4.004   2.763
  135POPC    HX17993   4.806   4.050   2.717
  135POPC    HY17994   4.944   4.084   2.824
  135POPC   O3117995   4.854   3.889   2.840
  135POPC   C3117996   4.909   3.878   2.961
  135POPC   O3217997   4.986   3.958   3.011
  135POPC   C3217998   4.855   3.755   3.033
  135POPC   H2X17999   4.873   3.667   2.968
  135POPC   H2Y18000   4.746   3.768   3.046
  135POPC   C2318001   5.332   3.856   2.961
  135POPC   H3R18002   5.242   3.887   3.018
  135POPC   H3S18003   5.408   3.937   2.970
  135POPC   C2418004   5.387   3.726   3.023
  135POPC   H4R18005   5.456   3.677   2.951
  135POPC   H4S18006   5.302   3.656   3.042
  135POPC   C2518007   5.464   3.750   3.154
  135POPC   H5R18008   5.554   3.811   3.130
  135POPC   H5S18009   5.501   3.652   3.193
  135POPC   C2618010   5.384   3.821   3.264
  135POPC   H6R18011   5.306   3.753   3.303
  135POPC   H6S18012   5.334   3.911   3.224
  135POPC   C2718013   5.477   3.864   3.379
  135POPC   H7R18014   5.551   3.934   3.335
  135POPC   H7S18015   5.530   3.773   3.415
  135POPC   C2818016   5.411   3.933   3.499
  135POPC   H8R18017   5.485   3.939   3.582
  135POPC   H8S18018   5.328   3.868   3.535
  135POPC   C2918019   5.365   4.072   3.462
  135POPC   H9118020   5.445   4.147   3.448
  135POPC  C21018021   5.237   4.108   3.443
  135POPC  H10118022   5.214   4.212   3.413
  135POPC  C21118023   5.119   4.015   3.455
  135POPC  H11R18024   5.141   3.917   3.407
  135POPC  H11S18025   5.032   4.057   3.399
  135POPC  C21218026   5.075   3.988   3.600
  135POPC  H12R18027   5.154   3.928   3.652
  135POPC  H12S18028   4.983   3.925   3.598
  135POPC  C21318029   5.048   4.116   3.680
  135POPC  H13R18030   4.982   4.183   3.619
  135POPC  H13S18031   5.144   4.170   3.695
  135POPC  C21418032   4.982   4.094   3.817
  135POPC  H14R18033   4.877   4.062   3.802
  135POPC  H14S18034   4.980   4.192   3.868
  135POPC  C21518035   5.054   3.993   3.909
  135POPC  H15R18036   5.036   3.889   3.872
  135POPC  H15S18037   5.006   4.001   4.009
  135POPC  C21618038   5.205   4.018   3.921
  135POPC  H16R18039   5.223   4.126   3.908
  135POPC  H16S18040   5.260   3.969   3.838
  135POPC  C21718041   5.266   3.976   4.056
  135POPC  H17R18042   5.307   3.874   4.046
  135POPC  H17S18043   5.186   3.970   4.133
  135POPC  C21818044   5.377   4.068   4.106
  135POPC  H18R18045   5.340   4.172   4.118
  135POPC  H18S18046   5.462   4.070   4.035
  135POPC  H18T18047   5.414   4.033   4.205
  135POPC   C3318048   4.922   3.736   3.171
  135POPC   H3X18049   4.916   3.831   3.230
  135POPC   H3Y18050   5.030   3.714   3.156
  135POPC   C3418051   4.857   3.626   3.256
  135POPC   H4X18052   4.868   3.528   3.204
  135POPC   H4Y18053   4.749   3.648   3.266
  135POPC   C3518054   4.917   3.614   3.398
  135POPC   H5X18055   4.861   3.537   3.455
  135POPC   H5Y18056   4.904   3.711   3.451
  135POPC   C3618057   5.066   3.577   3.398
  135POPC   H6X18058   5.122   3.654   3.341
  135POPC   H6Y18059   5.080   3.480   3.345
  135POPC   C3718060   5.129   3.569   3.538
  135POPC   H7X18061   5.079   3.489   3.597
  135POPC   H7Y18062   5.114   3.666   3.591
  135POPC   C3818063   5.280   3.539   3.530
  135POPC   H8X18064   5.332   3.621   3.475
  135POPC   H8Y18065   5.291   3.447   3.470
  135POPC   C3918066   5.349   3.517   3.665
  135POPC   H9X18067   5.449   3.470   3.649
  135POPC   H9Y18068   5.288   3.444   3.723
  135POPC  C31018069   5.369   3.647   3.744
  135POPC  H10X18070   5.297   3.724   3.708
  135POPC  H10Y18071   5.471   3.687   3.724
  135POPC  C31118072   5.346   3.629   3.895
  135POPC  H11X18073   5.386   3.719   3.946
  135POPC  H11Y18074   5.402   3.541   3.933
  135POPC  C31218075   5.196   3.614   3.923
  135POPC  H12X18076   5.162   3.516   3.884
  135POPC  H12Y18077   5.143   3.692   3.863
  135POPC  C31318078   5.149   3.629   4.068
  135POPC  H13X18079   5.038   3.624   4.066
  135POPC  H13Y18080   5.174   3.729   4.108
  135POPC  C31418081   5.199   3.523   4.166
  135POPC  H14X18082   5.307   3.539   4.186
  135POPC  H14Y18083   5.188   3.422   4.123
  135POPC  C31518084   5.119   3.532   4.297
  135POPC  H15X18085   5.012   3.510   4.275
  135POPC  H15Y18086   5.126   3.636   4.336
  135POPC  C31618087   5.163   3.435   4.406
  135POPC  H16X18088   5.153   3.330   4.371
  135POPC  H16Y18089   5.103   3.448   4.499
  135POPC  H16Z18090   5.269   3.454   4.432
  136POPC     N18091   4.439   6.035   2.143
  136POPC   C1218092   4.421   6.145   2.247
  136POPC  H12A18093   4.378   6.100   2.336
  136POPC  H12B18094   4.349   6.216   2.209
  136POPC   C1318095   4.305   5.987   2.102
  136POPC  H13A18096   4.248   6.069   2.059
  136POPC  H13B18097   4.318   5.911   2.025
  136POPC  H13C18098   4.254   5.946   2.188
  136POPC   C1418099   4.507   6.092   2.023
  136POPC  H14A18100   4.447   6.171   1.978
  136POPC  H14B18101   4.604   6.132   2.051
  136POPC  H14C18102   4.523   6.016   1.947
  136POPC   C1518103   4.516   5.921   2.200
  136POPC  H15A18104   4.607   5.960   2.246
  136POPC  H15B18105   4.542   5.849   2.122
  136POPC  H15C18106   4.461   5.872   2.279
  136POPC   C1118107   4.546   6.223   2.291
  136POPC  H11A18108   4.510   6.305   2.357
  136POPC  H11B18109   4.595   6.272   2.203
  136POPC     P18110   4.718   6.188   2.484
  136POPC   O1318111   4.690   6.332   2.505
  136POPC   O1418112   4.857   6.144   2.469
  136POPC   O1218113   4.640   6.138   2.355
  136POPC   O1118114   4.650   6.102   2.596
  136POPC    C118115   4.605   5.968   2.577
  136POPC    HA18116   4.689   5.896   2.588
  136POPC    HB18117   4.560   5.953   2.476
  136POPC    C218118   4.496   5.935   2.683
  136POPC    HS18119   4.440   5.844   2.651
  136POPC   O2118120   4.406   6.044   2.703
  136POPC   C2118121   4.337   6.086   2.601
  136POPC   O2218122   4.316   6.025   2.497
  136POPC   C2218123   4.265   6.213   2.649
  136POPC   H2R18124   4.313   6.243   2.744
  136POPC   H2S18125   4.161   6.185   2.673
  136POPC    C318126   4.562   5.909   2.819
  136POPC    HX18127   4.628   5.997   2.839
  136POPC    HY18128   4.629   5.821   2.809
  136POPC   O3118129   4.472   5.896   2.931
  136POPC   C3118130   4.392   5.790   2.936
  136POPC   O3218131   4.375   5.710   2.845
  136POPC   C3218132   4.334   5.772   3.078
  136POPC   H2X18133   4.369   5.672   3.113
  136POPC   H2Y18134   4.223   5.768   3.071
  136POPC   C2318135   4.261   6.335   2.555
  136POPC   H3R18136   4.192   6.314   2.469
  136POPC   H3S18137   4.362   6.356   2.514
  136POPC   C2418138   4.209   6.457   2.632
  136POPC   H4R18139   4.109   6.434   2.676
  136POPC   H4S18140   4.195   6.542   2.562
  136POPC   C2518141   4.302   6.506   2.745
  136POPC   H5R18142   4.297   6.436   2.832
  136POPC   H5S18143   4.267   6.605   2.782
  136POPC   C2618144   4.450   6.516   2.703
  136POPC   H6R18145   4.455   6.561   2.601
  136POPC   H6S18146   4.492   6.413   2.695
  136POPC   C2718147   4.538   6.599   2.797
  136POPC   H7R18148   4.503   6.705   2.795
  136POPC   H7S18149   4.643   6.598   2.758
  136POPC   C2818150   4.540   6.552   2.944
  136POPC   H8R18151   4.436   6.557   2.982
  136POPC   H8S18152   4.600   6.624   3.003
  136POPC   C2918153   4.599   6.413   2.958
  136POPC   H9118154   4.684   6.391   2.892
  136POPC  C21018155   4.552   6.315   3.037
  136POPC  H10118156   4.602   6.217   3.037
  136POPC  C21118157   4.431   6.323   3.127
  136POPC  H11R18158   4.350   6.271   3.074
  136POPC  H11S18159   4.396   6.428   3.142
  136POPC  C21218160   4.445   6.258   3.266
  136POPC  H12R18161   4.502   6.163   3.258
  136POPC  H12S18162   4.343   6.232   3.302
  136POPC  C21318163   4.509   6.352   3.369
  136POPC  H13R18164   4.440   6.438   3.385
  136POPC  H13S18165   4.604   6.392   3.328
  136POPC  C21418166   4.536   6.284   3.504
  136POPC  H14R18167   4.614   6.206   3.491
  136POPC  H14S18168   4.443   6.234   3.538
  136POPC  C21518169   4.582   6.385   3.611
  136POPC  H15R18170   4.498   6.454   3.632
  136POPC  H15S18171   4.665   6.446   3.569
  136POPC  C21618172   4.629   6.323   3.744
  136POPC  H16R18173   4.636   6.405   3.818
  136POPC  H16S18174   4.731   6.281   3.731
  136POPC  C21718175   4.537   6.214   3.799
  136POPC  H17R18176   4.561   6.117   3.750
  136POPC  H17S18177   4.432   6.238   3.773
  136POPC  C21818178   4.546   6.197   3.951
  136POPC  H18R18179   4.518   6.292   4.002
  136POPC  H18S18180   4.649   6.170   3.982
  136POPC  H18T18181   4.477   6.119   3.986
  136POPC   C3318182   4.378   5.879   3.182
  136POPC   H3X18183   4.333   5.977   3.158
  136POPC   H3Y18184   4.488   5.892   3.177
  136POPC   C3418185   4.341   5.842   3.327
  136POPC   H4X18186   4.359   5.733   3.343
  136POPC   H4Y18187   4.232   5.859   3.340
  136POPC   C3518188   4.420   5.923   3.431
  136POPC   H5X18189   4.393   6.030   3.420
  136POPC   H5Y18190   4.529   5.914   3.411
  136POPC   C3618191   4.395   5.884   3.578
  136POPC   H6X18192   4.443   5.960   3.644
  136POPC   H6Y18193   4.443   5.786   3.600
  136POPC   C3718194   4.246   5.875   3.610
  136POPC   H7X18195   4.213   5.770   3.598
  136POPC   H7Y18196   4.191   5.936   3.535
  136POPC   C3818197   4.199   5.926   3.747
  136POPC   H8X18198   4.098   5.881   3.764
  136POPC   H8Y18199   4.185   6.036   3.742
  136POPC   C3918200   4.287   5.892   3.866
  136POPC   H9X18201   4.368   5.967   3.877
  136POPC   H9Y18202   4.335   5.794   3.846
  136POPC  C31018203   4.206   5.883   3.996
  136POPC  H10X18204   4.099   5.860   3.972
  136POPC  H10Y18205   4.207   5.981   4.048
  136POPC  C31118206   4.257   5.774   4.089
  136POPC  H11X18207   4.235   5.675   4.042
  136POPC  H11Y18208   4.201   5.776   4.186
  136POPC  C31218209   4.408   5.783   4.116
  136POPC  H12X18210   4.466   5.793   4.021
  136POPC  H12Y18211   4.443   5.687   4.159
  136POPC  C31318212   4.447   5.895   4.212
  136POPC  H13X18213   4.372   5.902   4.294
  136POPC  H13Y18214   4.445   5.992   4.158
  136POPC  C31418215   4.585   5.869   4.274
  136POPC  H14X18216   4.621   5.962   4.322
  136POPC  H14Y18217   4.657   5.843   4.194
  136POPC  C31518218   4.578   5.758   4.380
  136POPC  H15X18219   4.556   5.660   4.331
  136POPC  H15Y18220   4.493   5.781   4.449
  136POPC  C31618221   4.705   5.741   4.465
  136POPC  H16X18222   4.728   5.836   4.518
  136POPC  H16Y18223   4.792   5.715   4.401
  136POPC  H16Z18224   4.690   5.661   4.540
  137POPC     N18225   3.359   5.165   2.128
  137POPC   C1218226   3.242   5.123   2.214
  137POPC  H12A18227   3.220   5.020   2.188
  137POPC  H12B18228   3.156   5.185   2.189
  137POPC   C1318229   3.480   5.082   2.159
  137POPC  H13A18230   3.462   4.976   2.142
  137POPC  H13B18231   3.564   5.112   2.097
  137POPC  H13C18232   3.509   5.098   2.263
  137POPC   C1418233   3.323   5.154   1.985
  137POPC  H14A18234   3.228   5.204   1.964
  137POPC  H14B18235   3.399   5.202   1.924
  137POPC  H14C18236   3.311   5.049   1.958
  137POPC   C1518237   3.400   5.307   2.156
  137POPC  H15A18238   3.321   5.378   2.142
  137POPC  H15B18239   3.488   5.336   2.099
  137POPC  H15C18240   3.429   5.314   2.262
  137POPC   C1118241   3.259   5.135   2.366
  137POPC  H11A18242   3.352   5.080   2.395
  137POPC  H11B18243   3.174   5.086   2.418
  137POPC     P18244   3.365   5.319   2.510
  137POPC   O1318245   3.320   5.451   2.560
  137POPC   O1418246   3.498   5.306   2.447
  137POPC   O1218247   3.260   5.273   2.401
  137POPC   O1118248   3.340   5.202   2.611
  137POPC    C118249   3.233   5.209   2.705
  137POPC    HA18250   3.175   5.114   2.700
  137POPC    HB18251   3.162   5.294   2.690
  137POPC    C218252   3.300   5.218   2.842
  137POPC    HS18253   3.223   5.195   2.920
  137POPC   O2118254   3.360   5.348   2.860
  137POPC   C2118255   3.275   5.439   2.900
  137POPC   O2218256   3.157   5.419   2.928
  137POPC   C2218257   3.346   5.573   2.920
  137POPC   H2R18258   3.318   5.639   2.835
  137POPC   H2S18259   3.456   5.557   2.918
  137POPC    C318260   3.412   5.111   2.851
  137POPC    HX18261   3.510   5.156   2.821
  137POPC    HY18262   3.391   5.031   2.777
  137POPC   O3118263   3.416   5.051   2.982
  137POPC   C3118264   3.456   5.137   3.075
  137POPC   O3218265   3.511   5.244   3.056
  137POPC   C3218266   3.412   5.087   3.210
  137POPC   H2X18267   3.467   5.147   3.285
  137POPC   H2Y18268   3.442   4.981   3.220
  137POPC   C2318269   3.304   5.635   3.056
  137POPC   H3R18270   3.194   5.624   3.071
  137POPC   H3S18271   3.327   5.744   3.055
  137POPC   C2418272   3.379   5.570   3.173
  137POPC   H4R18273   3.484   5.603   3.167
  137POPC   H4S18274   3.380   5.459   3.165
  137POPC   C2518275   3.326   5.611   3.311
  137POPC   H5R18276   3.229   5.558   3.330
  137POPC   H5S18277   3.304   5.720   3.310
  137POPC   C2618278   3.425   5.581   3.425
  137POPC   H6R18279   3.384   5.634   3.514
  137POPC   H6S18280   3.524   5.626   3.405
  137POPC   C2718281   3.442   5.431   3.454
  137POPC   H7R18282   3.505   5.385   3.374
  137POPC   H7S18283   3.341   5.385   3.447
  137POPC   C2818284   3.502   5.399   3.592
  137POPC   H8R18285   3.607   5.434   3.595
  137POPC   H8S18286   3.503   5.289   3.608
  137POPC   C2918287   3.418   5.467   3.698
  137POPC   H9118288   3.310   5.469   3.677
  137POPC  C21018289   3.460   5.515   3.816
  137POPC  H10118290   3.385   5.560   3.883
  137POPC  C21118291   3.599   5.513   3.874
  137POPC  H11R18292   3.645   5.614   3.879
  137POPC  H11S18293   3.668   5.447   3.816
  137POPC  C21218294   3.577   5.456   4.015
  137POPC  H12R18295   3.503   5.373   4.009
  137POPC  H12S18296   3.533   5.534   4.080
  137POPC  C21318297   3.698   5.394   4.086
  137POPC  H13R18298   3.735   5.463   4.165
  137POPC  H13S18299   3.781   5.378   4.014
  137POPC  C21418300   3.651   5.264   4.151
  137POPC  H14R18301   3.597   5.203   4.075
  137POPC  H14S18302   3.578   5.293   4.229
  137POPC  C21518303   3.759   5.177   4.214
  137POPC  H15R18304   3.818   5.237   4.286
  137POPC  H15S18305   3.828   5.143   4.134
  137POPC  C21618306   3.704   5.051   4.282
  137POPC  H16R18307   3.787   4.984   4.305
  137POPC  H16S18308   3.635   4.995   4.215
  137POPC  C21718309   3.638   5.079   4.415
  137POPC  H17R18310   3.544   5.125   4.384
  137POPC  H17S18311   3.701   5.149   4.475
  137POPC  C21818312   3.599   4.960   4.500
  137POPC  H18R18313   3.548   4.987   4.594
  137POPC  H18S18314   3.691   4.908   4.531
  137POPC  H18T18315   3.533   4.892   4.443
  137POPC   C3318316   3.260   5.105   3.227
  137POPC   H3X18317   3.205   5.023   3.177
  137POPC   H3Y18318   3.226   5.201   3.182
  137POPC   C3418319   3.224   5.110   3.375
  137POPC   H4X18320   3.115   5.127   3.388
  137POPC   H4Y18321   3.277   5.196   3.421
  137POPC   C3518322   3.267   4.983   3.448
  137POPC   H5X18323   3.376   4.965   3.434
  137POPC   H5Y18324   3.212   4.895   3.408
  137POPC   C3618325   3.242   4.998   3.596
  137POPC   H6X18326   3.132   4.998   3.617
  137POPC   H6Y18327   3.282   5.098   3.628
  137POPC   C3718328   3.311   4.890   3.678
  137POPC   H7X18329   3.421   4.907   3.672
  137POPC   H7Y18330   3.290   4.790   3.633
  137POPC   C3818331   3.267   4.891   3.824
  137POPC   H8X18332   3.330   4.824   3.887
  137POPC   H8Y18333   3.161   4.857   3.829
  137POPC   C3918334   3.271   5.029   3.884
  137POPC   H9X18335   3.201   5.089   3.822
  137POPC   H9Y18336   3.373   5.073   3.874
  137POPC  C31018337   3.226   5.036   4.029
  137POPC  H10X18338   3.287   4.968   4.093
  137POPC  H10Y18339   3.119   5.004   4.036
  137POPC  C31118340   3.242   5.180   4.076
  137POPC  H11X18341   3.350   5.197   4.095
  137POPC  H11Y18342   3.186   5.195   4.171
  137POPC  C31218343   3.196   5.280   3.969
  137POPC  H12X18344   3.108   5.239   3.915
  137POPC  H12Y18345   3.278   5.297   3.895
  137POPC  C31318346   3.148   5.411   4.025
  137POPC  H13X18347   3.058   5.382   4.086
  137POPC  H13Y18348   3.115   5.482   3.947
  137POPC  C31418349   3.243   5.484   4.117
  137POPC  H14X18350   3.286   5.574   4.068
  137POPC  H14Y18351   3.327   5.418   4.148
  137POPC  C31518352   3.162   5.522   4.239
  137POPC  H15X18353   3.121   5.428   4.283
  137POPC  H15Y18354   3.077   5.588   4.210
  137POPC  C31618355   3.248   5.590   4.339
  137POPC  H16X18356   3.348   5.546   4.339
  137POPC  H16Y18357   3.205   5.582   4.441
  137POPC  H16Z18358   3.259   5.696   4.310
  138POPC     N18359   5.902   5.216   2.239
  138POPC   C1218360   5.917   5.345   2.163
  138POPC  H12A18361   5.833   5.359   2.096
  138POPC  H12B18362   6.006   5.338   2.100
  138POPC   C1318363   6.033   5.183   2.302
  138POPC  H13A18364   6.059   5.264   2.372
  138POPC  H13B18365   6.031   5.088   2.355
  138POPC  H13C18366   6.113   5.177   2.229
  138POPC   C1418367   5.804   5.236   2.350
  138POPC  H14A18368   5.707   5.265   2.312
  138POPC  H14B18369   5.796   5.151   2.416
  138POPC  H14C18370   5.839   5.321   2.410
  138POPC   C1518371   5.857   5.110   2.144
  138POPC  H15A18372   5.928   5.098   2.063
  138POPC  H15B18373   5.760   5.131   2.099
  138POPC  H15C18374   5.850   5.016   2.197
  138POPC   C1118375   5.922   5.475   2.245
  138POPC  H11A18376   5.818   5.506   2.272
  138POPC  H11B18377   5.962   5.547   2.171
  138POPC     P18378   6.055   5.611   2.414
  138POPC   O1318379   6.115   5.597   2.548
  138POPC   O1418380   5.952   5.715   2.388
  138POPC   O1218381   6.002   5.471   2.364
  138POPC   O1118382   6.165   5.636   2.305
  138POPC    C118383   6.250   5.535   2.252
  138POPC    HA18384   6.265   5.557   2.145
  138POPC    HB18385   6.204   5.433   2.256
  138POPC    C218386   6.389   5.542   2.319
  138POPC    HS18387   6.462   5.496   2.249
  138POPC   O2118388   6.397   5.475   2.446
  138POPC   C2118389   6.348   5.354   2.457
  138POPC   O2218390   6.337   5.271   2.367
  138POPC   C2218391   6.318   5.326   2.605
  138POPC   H2R18392   6.327   5.421   2.663
  138POPC   H2S18393   6.394   5.255   2.642
  138POPC    C318394   6.429   5.692   2.336
  138POPC    HX18395   6.403   5.741   2.240
  138POPC    HY18396   6.538   5.702   2.350
  138POPC   O3118397   6.359   5.759   2.443
  138POPC   C3118398   6.408   5.743   2.565
  138POPC   O3218399   6.516   5.693   2.591
  138POPC   C3218400   6.319   5.820   2.662
  138POPC   H2X18401   6.213   5.803   2.633
  138POPC   H2Y18402   6.341   5.928   2.651
  138POPC   C2318403   6.176   5.268   2.627
  138POPC   H3R18404   6.164   5.177   2.565
  138POPC   H3S18405   6.099   5.342   2.597
  138POPC   C2418406   6.151   5.227   2.773
  138POPC   H4R18407   6.244   5.183   2.814
  138POPC   H4S18408   6.072   5.150   2.777
  138POPC   C2518409   6.103   5.342   2.862
  138POPC   H5R18410   5.999   5.370   2.832
  138POPC   H5S18411   6.167   5.432   2.846
  138POPC   C2618412   6.104   5.306   3.012
  138POPC   H6R18413   6.049   5.211   3.030
  138POPC   H6S18414   6.051   5.386   3.067
  138POPC   C2718415   6.248   5.295   3.066
  138POPC   H7R18416   6.302   5.386   3.032
  138POPC   H7S18417   6.299   5.208   3.020
  138POPC   C2818418   6.258   5.282   3.219
  138POPC   H8R18419   6.216   5.183   3.248
  138POPC   H8S18420   6.191   5.357   3.266
  138POPC   C2918421   6.401   5.296   3.266
  138POPC   H9118422   6.451   5.201   3.291
  138POPC  C21018423   6.474   5.408   3.275
  138POPC  H10118424   6.579   5.399   3.308
  138POPC  C21118425   6.432   5.549   3.240
  138POPC  H11R18426   6.399   5.550   3.133
  138POPC  H11S18427   6.520   5.616   3.245
  138POPC  C21218428   6.318   5.611   3.323
  138POPC  H12R18429   6.233   5.541   3.329
  138POPC  H12S18430   6.282   5.701   3.268
  138POPC  C21318431   6.354   5.658   3.464
  138POPC  H13R18432   6.279   5.733   3.498
  138POPC  H13S18433   6.453   5.709   3.460
  138POPC  C21418434   6.359   5.546   3.568
  138POPC  H14R18435   6.423   5.582   3.652
  138POPC  H14S18436   6.408   5.455   3.527
  138POPC  C21518437   6.222   5.508   3.627
  138POPC  H15R18438   6.161   5.453   3.552
  138POPC  H15S18439   6.168   5.601   3.654
  138POPC  C21618440   6.242   5.423   3.753
  138POPC  H16R18441   6.320   5.474   3.814
  138POPC  H16S18442   6.281   5.322   3.726
  138POPC  C21718443   6.121   5.409   3.844
  138POPC  H17R18444   6.060   5.322   3.812
  138POPC  H17S18445   6.059   5.500   3.837
  138POPC  C21818446   6.166   5.392   3.990
  138POPC  H18R18447   6.244   5.313   3.996
  138POPC  H18S18448   6.081   5.364   4.055
  138POPC  H18T18449   6.209   5.486   4.028
  138POPC   C3318450   6.338   5.776   2.808
  138POPC   H3X18451   6.444   5.782   2.840
  138POPC   H3Y18452   6.305   5.669   2.818
  138POPC   C3418453   6.252   5.863   2.899
  138POPC   H4X18454   6.165   5.898   2.839
  138POPC   H4Y18455   6.311   5.953   2.929
  138POPC   C3518456   6.197   5.797   3.025
  138POPC   H5X18457   6.217   5.866   3.109
  138POPC   H5Y18458   6.249   5.701   3.047
  138POPC   C3618459   6.045   5.778   3.026
  138POPC   H6X18460   6.014   5.694   2.960
  138POPC   H6Y18461   5.998   5.871   2.985
  138POPC   C3718462   5.991   5.761   3.169
  138POPC   H7X18463   5.892   5.809   3.175
  138POPC   H7Y18464   6.057   5.816   3.239
  138POPC   C3818465   5.982   5.615   3.213
  138POPC   H8X18466   6.072   5.561   3.177
  138POPC   H8Y18467   5.893   5.567   3.165
  138POPC   C3918468   5.974   5.598   3.366
  138POPC   H9X18469   6.067   5.638   3.411
  138POPC   H9Y18470   5.967   5.490   3.392
  138POPC  C31018471   5.858   5.675   3.429
  138POPC  H10X18472   5.762   5.632   3.392
  138POPC  H10Y18473   5.866   5.781   3.397
  138POPC  C31118474   5.859   5.678   3.582
  138POPC  H11X18475   5.782   5.751   3.615
  138POPC  H11Y18476   5.958   5.714   3.619
  138POPC  C31218477   5.826   5.544   3.648
  138POPC  H12X18478   5.912   5.474   3.636
  138POPC  H12Y18479   5.738   5.498   3.598
  138POPC  C31318480   5.795   5.565   3.796
  138POPC  H13X18481   5.705   5.631   3.805
  138POPC  H13Y18482   5.880   5.621   3.841
  138POPC  C31418483   5.771   5.436   3.874
  138POPC  H14X18484   5.844   5.360   3.839
  138POPC  H14Y18485   5.669   5.397   3.853
  138POPC  C31518486   5.791   5.456   4.025
  138POPC  H15X18487   5.711   5.522   4.064
  138POPC  H15Y18488   5.888   5.509   4.041
  138POPC  C31618489   5.793   5.325   4.102
  138POPC  H16X18490   5.875   5.260   4.062
  138POPC  H16Y18491   5.697   5.270   4.090
  138POPC  H16Z18492   5.812   5.342   4.210
  139POPC     N18493   3.633   3.486   2.317
  139POPC   C1218494   3.593   3.591   2.418
  139POPC  H12A18495   3.668   3.595   2.498
  139POPC  H12B18496   3.499   3.561   2.463
  139POPC   C1318497   3.731   3.545   2.221
  139POPC  H13A18498   3.816   3.589   2.269
  139POPC  H13B18499   3.757   3.478   2.141
  139POPC  H13C18500   3.679   3.629   2.172
  139POPC   C1418501   3.685   3.364   2.383
  139POPC  H14A18502   3.731   3.301   2.308
  139POPC  H14B18503   3.759   3.388   2.459
  139POPC  H14C18504   3.605   3.308   2.431
  139POPC   C1518505   3.510   3.451   2.238
  139POPC  H15A18506   3.437   3.401   2.299
  139POPC  H15B18507   3.535   3.388   2.153
  139POPC  H15C18508   3.465   3.544   2.202
  139POPC   C1118509   3.575   3.736   2.365
  139POPC  H11A18510   3.669   3.793   2.385
  139POPC  H11B18511   3.496   3.780   2.431
  139POPC     P18512   3.418   3.822   2.176
  139POPC   O1318513   3.304   3.728   2.190
  139POPC   O1418514   3.445   3.871   2.040
  139POPC   O1218515   3.545   3.743   2.225
  139POPC   O1118516   3.419   3.940   2.282
  139POPC    C118517   3.307   3.937   2.370
  139POPC    HA18518   3.279   3.833   2.400
  139POPC    HB18519   3.218   3.983   2.320
  139POPC    C218520   3.327   4.012   2.503
  139POPC    HS18521   3.296   4.118   2.482
  139POPC   O2118522   3.458   4.002   2.564
  139POPC   C2118523   3.521   4.118   2.569
  139POPC   O2218524   3.509   4.210   2.490
  139POPC   C2218525   3.598   4.135   2.704
  139POPC   H2R18526   3.531   4.201   2.763
  139POPC   H2S18527   3.692   4.191   2.683
  139POPC    C318528   3.220   3.954   2.599
  139POPC    HX18529   3.153   3.880   2.549
  139POPC    HY18530   3.158   4.044   2.614
  139POPC   O3118531   3.268   3.897   2.723
  139POPC   C3118532   3.266   3.989   2.817
  139POPC   O3218533   3.288   4.108   2.802
  139POPC   C3218534   3.207   3.929   2.943
  139POPC   H2X18535   3.274   3.850   2.981
  139POPC   H2Y18536   3.110   3.883   2.916
  139POPC   C2318537   3.626   4.012   2.797
  139POPC   H3R18538   3.723   3.964   2.768
  139POPC   H3S18539   3.546   3.936   2.784
  139POPC   C2418540   3.635   4.047   2.947
  139POPC   H4R18541   3.547   4.107   2.979
  139POPC   H4S18542   3.725   4.112   2.962
  139POPC   C2518543   3.649   3.920   3.034
  139POPC   H5R18544   3.707   3.846   2.976
  139POPC   H5S18545   3.548   3.876   3.050
  139POPC   C2618546   3.720   3.937   3.170
  139POPC   H6R18547   3.815   3.993   3.157
  139POPC   H6S18548   3.746   3.836   3.210
  139POPC   C2718549   3.634   4.007   3.275
  139POPC   H7R18550   3.551   3.941   3.302
  139POPC   H7S18551   3.588   4.096   3.227
  139POPC   C2818552   3.706   4.050   3.404
  139POPC   H8R18553   3.646   4.133   3.446
  139POPC   H8S18554   3.806   4.092   3.379
  139POPC   C2918555   3.719   3.941   3.508
  139POPC   H9118556   3.810   3.880   3.498
  139POPC  C21018557   3.630   3.910   3.605
  139POPC  H10118558   3.655   3.826   3.672
  139POPC  C21118559   3.497   3.975   3.634
  139POPC  H11R18560   3.443   3.914   3.710
  139POPC  H11S18561   3.433   3.973   3.543
  139POPC  C21218562   3.499   4.120   3.686
  139POPC  H12R18563   3.395   4.151   3.707
  139POPC  H12S18564   3.535   4.188   3.605
  139POPC  C21318565   3.588   4.143   3.809
  139POPC  H13R18566   3.600   4.253   3.822
  139POPC  H13S18567   3.689   4.100   3.792
  139POPC  C21418568   3.531   4.089   3.941
  139POPC  H14R18569   3.608   4.100   4.021
  139POPC  H14S18570   3.506   3.981   3.932
  139POPC  C21518571   3.407   4.169   3.981
  139POPC  H15R18572   3.327   4.151   3.906
  139POPC  H15S18573   3.431   4.278   3.978
  139POPC  C21618574   3.349   4.137   4.119
  139POPC  H16R18575   3.426   4.155   4.197
  139POPC  H16S18576   3.317   4.030   4.123
  139POPC  C21718577   3.231   4.229   4.145
  139POPC  H17R18578   3.163   4.225   4.057
  139POPC  H17S18579   3.269   4.333   4.153
  139POPC  C21818580   3.152   4.196   4.270
  139POPC  H18R18581   3.124   4.088   4.273
  139POPC  H18S18582   3.059   4.256   4.267
  139POPC  H18T18583   3.208   4.221   4.362
  139POPC   C3318584   3.178   4.039   3.046
  139POPC   H3X18585   3.081   4.087   3.020
  139POPC   H3Y18586   3.256   4.119   3.041
  139POPC   C3418587   3.176   3.991   3.191
  139POPC   H4X18588   3.092   3.922   3.209
  139POPC   H4Y18589   3.159   4.080   3.254
  139POPC   C3518590   3.309   3.930   3.236
  139POPC   H5X18591   3.355   3.999   3.310
  139POPC   H5Y18592   3.378   3.924   3.149
  139POPC   C3618593   3.294   3.790   3.298
  139POPC   H6X18594   3.250   3.722   3.223
  139POPC   H6Y18595   3.223   3.801   3.383
  139POPC   C3718596   3.426   3.728   3.347
  139POPC   H7X18597   3.470   3.793   3.425
  139POPC   H7Y18598   3.498   3.724   3.262
  139POPC   C3818599   3.413   3.587   3.407
  139POPC   H8X18600   3.514   3.546   3.429
  139POPC   H8Y18601   3.366   3.522   3.330
  139POPC   C3918602   3.328   3.584   3.535
  139POPC   H9X18603   3.262   3.495   3.531
  139POPC   H9Y18604   3.263   3.674   3.537
  139POPC  C31018605   3.405   3.581   3.667
  139POPC  H10X18606   3.489   3.654   3.665
  139POPC  H10Y18607   3.448   3.480   3.682
  139POPC  C31118608   3.309   3.616   3.783
  139POPC  H11X18609   3.215   3.558   3.766
  139POPC  H11Y18610   3.282   3.724   3.778
  139POPC  C31218611   3.358   3.579   3.923
  139POPC  H12X18612   3.375   3.469   3.922
  139POPC  H12Y18613   3.278   3.599   3.997
  139POPC  C31318614   3.488   3.647   3.972
  139POPC  H13X18615   3.464   3.746   4.018
  139POPC  H13Y18616   3.557   3.664   3.887
  139POPC  C31418617   3.555   3.554   4.074
  139POPC  H14X18618   3.564   3.454   4.025
  139POPC  H14Y18619   3.488   3.543   4.162
  139POPC  C31518620   3.695   3.590   4.121
  139POPC  H15X18621   3.692   3.685   4.180
  139POPC  H15Y18622   3.761   3.606   4.033
  139POPC  C31618623   3.751   3.477   4.207
  139POPC  H16X18624   3.692   3.464   4.300
  139POPC  H16Y18625   3.856   3.498   4.235
  139POPC  H16Z18626   3.750   3.381   4.151
  140POPC     N18627   6.255   3.890   2.181
  140POPC   C1218628   6.258   3.848   2.327
  140POPC  H12A18629   6.294   3.931   2.389
  140POPC  H12B18630   6.326   3.765   2.339
  140POPC   C1318631   6.220   4.035   2.169
  140POPC  H13A18632   6.289   4.099   2.224
  140POPC  H13B18633   6.224   4.068   2.065
  140POPC  H13C18634   6.121   4.050   2.211
  140POPC   C1418635   6.387   3.867   2.116
  140POPC  H14A18636   6.383   3.903   2.014
  140POPC  H14B18637   6.465   3.926   2.163
  140POPC  H14C18638   6.417   3.763   2.115
  140POPC   C1518639   6.149   3.817   2.105
  140POPC  H15A18640   6.173   3.714   2.086
  140POPC  H15B18641   6.129   3.865   2.010
  140POPC  H15C18642   6.057   3.822   2.165
  140POPC   C1118643   6.124   3.807   2.390
  140POPC  H11A18644   6.145   3.778   2.496
  140POPC  H11B18645   6.084   3.716   2.339
  140POPC     P18646   5.906   3.912   2.474
  140POPC   O1318647   5.844   3.779   2.456
  140POPC   O1418648   5.823   4.030   2.439
  140POPC   O1218649   6.033   3.916   2.379
  140POPC   O1118650   5.969   3.928   2.619
  140POPC    C118651   5.962   4.053   2.687
  140POPC    HA18652   5.908   4.037   2.783
  140POPC    HB18653   5.905   4.132   2.632
  140POPC    C218654   6.100   4.116   2.719
  140POPC    HS18655   6.149   4.143   2.624
  140POPC   O2118656   6.183   4.026   2.793
  140POPC   C2118657   6.264   3.947   2.726
  140POPC   O2218658   6.305   3.961   2.612
  140POPC   C2218659   6.301   3.834   2.822
  140POPC   H2R18660   6.298   3.873   2.926
  140POPC   H2S18661   6.405   3.802   2.801
  140POPC    C318662   6.079   4.244   2.804
  140POPC    HX18663   6.037   4.323   2.739
  140POPC    HY18664   6.179   4.277   2.841
  140POPC   O3118665   5.987   4.215   2.912
  140POPC   C3118666   5.991   4.304   3.010
  140POPC   O3218667   6.059   4.405   3.009
  140POPC   C3218668   5.898   4.259   3.123
  140POPC   H2X18669   5.882   4.150   3.113
  140POPC   H2Y18670   5.800   4.308   3.112
  140POPC   C2318671   6.203   3.715   2.807
  140POPC   H3R18672   6.239   3.649   2.725
  140POPC   H3S18673   6.102   3.751   2.777
  140POPC   C2418674   6.184   3.630   2.935
  140POPC   H4R18675   6.282   3.591   2.967
  140POPC   H4S18676   6.118   3.544   2.908
  140POPC   C2518677   6.123   3.701   3.057
  140POPC   H5R18678   6.201   3.764   3.106
  140POPC   H5S18679   6.094   3.623   3.131
  140POPC   C2618680   6.002   3.788   3.023
  140POPC   H6R18681   5.926   3.725   2.972
  140POPC   H6S18682   6.033   3.868   2.951
  140POPC   C2718683   5.940   3.855   3.145
  140POPC   H7R18684   5.863   3.927   3.106
  140POPC   H7S18685   6.017   3.914   3.199
  140POPC   C2818686   5.873   3.756   3.241
  140POPC   H8R18687   5.950   3.691   3.287
  140POPC   H8S18688   5.804   3.691   3.183
  140POPC   C2918689   5.795   3.835   3.343
  140POPC   H9118690   5.741   3.920   3.300
  140POPC  C21018691   5.793   3.818   3.476
  140POPC  H10118692   5.731   3.884   3.539
  140POPC  C21118693   5.873   3.714   3.548
  140POPC  H11R18694   5.873   3.617   3.492
  140POPC  H11S18695   5.833   3.693   3.649
  140POPC  C21218696   6.016   3.767   3.558
  140POPC  H12R18697   6.019   3.847   3.635
  140POPC  H12S18698   6.051   3.811   3.462
  140POPC  C21318699   6.112   3.655   3.593
  140POPC  H13R18700   6.147   3.606   3.499
  140POPC  H13S18701   6.059   3.578   3.653
  140POPC  C21418702   6.231   3.706   3.674
  140POPC  H14R18703   6.195   3.778   3.750
  140POPC  H14S18704   6.303   3.757   3.606
  140POPC  C21518705   6.298   3.591   3.747
  140POPC  H15R18706   6.408   3.604   3.748
  140POPC  H15S18707   6.274   3.497   3.691
  140POPC  C21618708   6.246   3.575   3.889
  140POPC  H16R18709   6.261   3.468   3.919
  140POPC  H16S18710   6.137   3.595   3.893
  140POPC  C21718711   6.320   3.662   3.989
  140POPC  H17R18712   6.301   3.770   3.971
  140POPC  H17S18713   6.430   3.646   3.976
  140POPC  C21818714   6.278   3.623   4.129
  140POPC  H18R18715   6.355   3.654   4.201
  140POPC  H18S18716   6.270   3.513   4.137
  140POPC  H18T18717   6.180   3.666   4.157
  140POPC   C3318718   5.958   4.289   3.262
  140POPC   H3X18719   5.891   4.246   3.340
  140POPC   H3Y18720   5.966   4.399   3.280
  140POPC   C3418721   6.097   4.224   3.274
  140POPC   H4X18722   6.173   4.283   3.217
  140POPC   H4Y18723   6.088   4.126   3.223
  140POPC   C3518724   6.147   4.200   3.417
  140POPC   H5X18725   6.062   4.205   3.488
  140POPC   H5Y18726   6.218   4.281   3.445
  140POPC   C3618727   6.212   4.061   3.429
  140POPC   H6X18728   6.211   4.009   3.331
  140POPC   H6Y18729   6.151   4.000   3.498
  140POPC   C3718730   6.359   4.061   3.475
  140POPC   H7X18731   6.421   4.123   3.406
  140POPC   H7Y18732   6.393   3.957   3.466
  140POPC   C3818733   6.381   4.106   3.620
  140POPC   H8X18734   6.332   4.204   3.634
  140POPC   H8Y18735   6.490   4.117   3.638
  140POPC   C3918736   6.328   4.007   3.724
  140POPC   H9X18737   6.398   3.921   3.730
  140POPC   H9Y18738   6.230   3.970   3.687
  140POPC  C31018739   6.307   4.067   3.863
  140POPC  H10X18740   6.399   4.122   3.894
  140POPC  H10Y18741   6.289   3.986   3.936
  140POPC  C31118742   6.185   4.159   3.867
  140POPC  H11X18743   6.196   4.242   3.794
  140POPC  H11Y18744   6.180   4.204   3.969
  140POPC  C31218745   6.055   4.084   3.836
  140POPC  H12X18746   6.066   3.978   3.865
  140POPC  H12Y18747   6.037   4.086   3.726
  140POPC  C31318748   5.933   4.139   3.910
  140POPC  H13X18749   5.844   4.082   3.874
  140POPC  H13Y18750   5.917   4.246   3.884
  140POPC  C31418751   5.945   4.123   4.062
  140POPC  H14X18752   6.004   4.209   4.101
  140POPC  H14Y18753   5.999   4.029   4.088
  140POPC  C31518754   5.808   4.123   4.129
  140POPC  H15X18755   5.746   4.192   4.068
  140POPC  H15Y18756   5.818   4.164   4.232
  140POPC  C31618757   5.734   3.990   4.135
  140POPC  H16X18758   5.646   3.999   4.203
  140POPC  H16Y18759   5.799   3.909   4.173
  140POPC  H16Z18760   5.695   3.962   4.034
  141POPC     N18761   5.574   6.220   2.143
  141POPC   C1218762   5.593   6.097   2.230
  141POPC  H12A18763   5.690   6.106   2.279
  141POPC  H12B18764   5.597   6.008   2.169
  141POPC   C1318765   5.614   6.345   2.218
  141POPC  H13A18766   5.555   6.354   2.311
  141POPC  H13B18767   5.718   6.341   2.249
  141POPC  H13C18768   5.597   6.434   2.160
  141POPC   C1418769   5.655   6.212   2.018
  141POPC  H14A18770   5.761   6.203   2.039
  141POPC  H14B18771   5.624   6.129   1.956
  141POPC  H14C18772   5.645   6.302   1.957
  141POPC   C1518773   5.431   6.236   2.103
  141POPC  H15A18774   5.418   6.328   2.048
  141POPC  H15B18775   5.367   6.240   2.192
  141POPC  H15C18776   5.398   6.153   2.042
  141POPC   C1118777   5.488   6.075   2.342
  141POPC  H11A18778   5.520   5.990   2.407
  141POPC  H11B18779   5.390   6.045   2.296
  141POPC     P18780   5.345   6.257   2.468
  141POPC   O1318781   5.243   6.227   2.365
  141POPC   O1418782   5.376   6.400   2.496
  141POPC   O1218783   5.480   6.192   2.420
  141POPC   O1118784   5.319   6.176   2.603
  141POPC    C118785   5.427   6.162   2.697
  141POPC    HA18786   5.445   6.259   2.747
  141POPC    HB18787   5.520   6.132   2.644
  141POPC    C218788   5.407   6.051   2.807
  141POPC    HS18789   5.383   5.955   2.756
  141POPC   O2118790   5.304   6.087   2.901
  141POPC   C2118791   5.246   5.989   2.971
  141POPC   O2218792   5.263   5.869   2.958
  141POPC   C2218793   5.149   6.054   3.070
  141POPC   H2R18794   5.047   6.039   3.029
  141POPC   H2S18795   5.169   6.163   3.075
  141POPC    C318796   5.544   6.036   2.881
  141POPC    HX18797   5.567   6.135   2.926
  141POPC    HY18798   5.622   6.012   2.806
  141POPC   O3118799   5.539   5.933   2.982
  141POPC   C3118800   5.644   5.932   3.062
  141POPC   O3218801   5.742   6.005   3.052
  141POPC   C3218802   5.621   5.824   3.168
  141POPC   H2X18803   5.694   5.743   3.150
  141POPC   H2Y18804   5.519   5.782   3.157
  141POPC   C2318805   5.160   5.992   3.212
  141POPC   H3R18806   5.251   6.032   3.262
  141POPC   H3S18807   5.171   5.881   3.204
  141POPC   C2418808   5.036   6.020   3.298
  141POPC   H4R18809   4.950   5.965   3.253
  141POPC   H4S18810   5.013   6.128   3.297
  141POPC   C2518811   5.056   5.973   3.443
  141POPC   H5R18812   5.126   6.043   3.494
  141POPC   H5S18813   5.103   5.873   3.442
  141POPC   C2618814   4.925   5.963   3.522
  141POPC   H6R18815   4.867   5.877   3.480
  141POPC   H6S18816   4.864   6.055   3.508
  141POPC   C2718817   4.947   5.939   3.673
  141POPC   H7R18818   5.023   5.859   3.686
  141POPC   H7S18819   4.851   5.902   3.716
  141POPC   C2818820   4.989   6.067   3.749
  141POPC   H8R18821   4.907   6.141   3.736
  141POPC   H8S18822   5.078   6.110   3.699
  141POPC   C2918823   5.015   6.047   3.896
  141POPC   H9118824   4.933   6.079   3.963
  141POPC  C21018825   5.126   5.995   3.952
  141POPC  H10118826   5.130   5.981   4.061
  141POPC  C21118827   5.248   5.944   3.879
  141POPC  H11R18828   5.242   5.965   3.770
  141POPC  H11S18829   5.251   5.835   3.891
  141POPC  C21218830   5.385   5.995   3.930
  141POPC  H12R18831   5.370   6.098   3.970
  141POPC  H12S18832   5.456   6.003   3.845
  141POPC  C21318833   5.448   5.906   4.039
  141POPC  H13R18834   5.367   5.863   4.103
  141POPC  H13S18835   5.510   5.972   4.101
  141POPC  C21418836   5.544   5.794   3.993
  141POPC  H14R18837   5.519   5.757   3.892
  141POPC  H14S18838   5.532   5.709   4.064
  141POPC  C21518839   5.692   5.836   4.000
  141POPC  H15R18840   5.756   5.746   3.997
  141POPC  H15S18841   5.709   5.884   4.098
  141POPC  C21618842   5.736   5.929   3.885
  141POPC  H16R18843   5.667   6.016   3.879
  141POPC  H16S18844   5.728   5.873   3.789
  141POPC  C21718845   5.879   5.982   3.903
  141POPC  H17R18846   5.906   6.040   3.811
  141POPC  H17S18847   5.949   5.896   3.909
  141POPC  C21818848   5.895   6.072   4.026
  141POPC  H18R18849   5.862   6.020   4.119
  141POPC  H18S18850   5.832   6.163   4.015
  141POPC  H18T18851   6.000   6.102   4.040
  141POPC   C3318852   5.637   5.880   3.311
  141POPC   H3X18853   5.735   5.932   3.322
  141POPC   H3Y18854   5.635   5.795   3.383
  141POPC   C3418855   5.524   5.972   3.353
  141POPC   H4X18856   5.430   5.912   3.357
  141POPC   H4Y18857   5.510   6.053   3.278
  141POPC   C3518858   5.550   6.034   3.490
  141POPC   H5X18859   5.588   5.958   3.562
  141POPC   H5Y18860   5.450   6.067   3.527
  141POPC   C3618861   5.647   6.153   3.483
  141POPC   H6X18862   5.613   6.221   3.401
  141POPC   H6Y18863   5.749   6.118   3.458
  141POPC   C3718864   5.652   6.237   3.612
  141POPC   H7X18865   5.714   6.327   3.595
  141POPC   H7Y18866   5.701   6.178   3.693
  141POPC   C3818867   5.512   6.279   3.658
  141POPC   H8X18868   5.456   6.188   3.689
  141POPC   H8Y18869   5.456   6.327   3.574
  141POPC   C3918870   5.512   6.370   3.781
  141POPC   H9X18871   5.562   6.467   3.759
  141POPC   H9Y18872   5.573   6.316   3.856
  141POPC  C31018873   5.369   6.393   3.833
  141POPC  H10X18874   5.314   6.296   3.835
  141POPC  H10Y18875   5.317   6.458   3.758
  141POPC  C31118876   5.359   6.459   3.972
  141POPC  H11X18877   5.259   6.508   3.981
  141POPC  H11Y18878   5.436   6.539   3.980
  141POPC  C31218879   5.375   6.364   4.092
  141POPC  H12X18880   5.303   6.280   4.086
  141POPC  H12Y18881   5.350   6.420   4.184
  141POPC  C31318882   5.519   6.311   4.103
  141POPC  H13X18883   5.584   6.382   4.047
  141POPC  H13Y18884   5.526   6.212   4.054
  141POPC  C31418885   5.581   6.307   4.243
  141POPC  H14X18886   5.601   6.410   4.275
  141POPC  H14Y18887   5.679   6.256   4.233
  141POPC  C31518888   5.497   6.239   4.351
  141POPC  H15X18889   5.404   6.298   4.367
  141POPC  H15Y18890   5.554   6.241   4.447
  141POPC  C31618891   5.460   6.096   4.316
  141POPC  H16X18892   5.552   6.041   4.286
  141POPC  H16Y18893   5.389   6.097   4.230
  141POPC  H16Z18894   5.413   6.042   4.401
  142POPC     N18895   3.711   6.178   2.122
  142POPC   C1218896   3.858   6.169   2.163
  142POPC  H12A18897   3.905   6.264   2.139
  142POPC  H12B18898   3.906   6.096   2.098
  142POPC   C1318899   3.708   6.239   1.983
  142POPC  H13A18900   3.762   6.179   1.910
  142POPC  H13B18901   3.608   6.253   1.948
  142POPC  H13C18902   3.756   6.337   1.984
  142POPC   C1418903   3.649   6.042   2.126
  142POPC  H14A18904   3.657   6.003   2.228
  142POPC  H14B18905   3.544   6.043   2.101
  142POPC  H14C18906   3.697   5.969   2.062
  142POPC   C1518907   3.640   6.270   2.215
  142POPC  H15A18908   3.673   6.372   2.203
  142POPC  H15B18909   3.655   6.240   2.319
  142POPC  H15C18910   3.533   6.274   2.199
  142POPC   C1118911   3.896   6.134   2.308
  142POPC  H11A18912   3.860   6.215   2.375
  142POPC  H11B18913   4.007   6.131   2.316
  142POPC     P18914   3.763   5.981   2.475
  142POPC   O1318915   3.653   5.890   2.437
  142POPC   O1418916   3.724   6.111   2.537
  142POPC   O1218917   3.845   6.005   2.340
  142POPC   O1118918   3.875   5.911   2.562
  142POPC    C118919   3.957   5.994   2.645
  142POPC    HA18920   3.909   6.090   2.677
  142POPC    HB18921   4.051   6.017   2.592
  142POPC    C218922   3.986   5.916   2.774
  142POPC    HS18923   4.036   5.823   2.744
  142POPC   O2118924   3.858   5.890   2.838
  142POPC   C2118925   3.866   5.785   2.918
  142POPC   O2218926   3.969   5.744   2.969
  142POPC   C2218927   3.734   5.711   2.931
  142POPC   H2R18928   3.728   5.642   2.844
  142POPC   H2S18929   3.649   5.781   2.924
  142POPC    C318930   4.084   5.994   2.867
  142POPC    HX18931   4.186   5.982   2.823
  142POPC    HY18932   4.084   5.941   2.965
  142POPC   O3118933   4.054   6.134   2.877
  142POPC   C3118934   4.109   6.186   2.986
  142POPC   O3218935   4.174   6.122   3.067
  142POPC   C3218936   4.074   6.332   3.004
  142POPC   H2X18937   4.023   6.370   2.914
  142POPC   H2Y18938   4.168   6.389   3.019
  142POPC   C2318939   3.733   5.630   3.063
  142POPC   H3R18940   3.824   5.567   3.071
  142POPC   H3S18941   3.647   5.560   3.063
  142POPC   C2418942   3.733   5.718   3.188
  142POPC   H4R18943   3.634   5.714   3.237
  142POPC   H4S18944   3.753   5.823   3.163
  142POPC   C2518945   3.839   5.680   3.292
  142POPC   H5R18946   3.941   5.696   3.251
  142POPC   H5S18947   3.828   5.572   3.312
  142POPC   C2618948   3.817   5.759   3.420
  142POPC   H6R18949   3.788   5.693   3.505
  142POPC   H6S18950   3.729   5.822   3.401
  142POPC   C2718951   3.933   5.851   3.457
  142POPC   H7R18952   3.969   5.904   3.366
  142POPC   H7S18953   4.016   5.787   3.493
  142POPC   C2818954   3.896   5.953   3.567
  142POPC   H8R18955   3.990   5.986   3.615
  142POPC   H8S18956   3.837   5.902   3.646
  142POPC   C2918957   3.826   6.076   3.516
  142POPC   H9118958   3.716   6.077   3.522
  142POPC  C21018959   3.887   6.184   3.465
  142POPC  H10118960   3.825   6.269   3.431
  142POPC  C21118961   4.035   6.202   3.449
  142POPC  H11R18962   4.068   6.160   3.351
  142POPC  H11S18963   4.093   6.145   3.525
  142POPC  C21218964   4.074   6.351   3.461
  142POPC  H12R18965   4.003   6.414   3.403
  142POPC  H12S18966   4.175   6.366   3.416
  142POPC  C21318967   4.077   6.397   3.606
  142POPC  H13R18968   3.988   6.357   3.660
  142POPC  H13S18969   4.073   6.508   3.611
  142POPC  C21418970   4.205   6.351   3.678
  142POPC  H14R18971   4.290   6.409   3.635
  142POPC  H14S18972   4.226   6.243   3.658
  142POPC  C21518973   4.198   6.376   3.829
  142POPC  H15R18974   4.120   6.453   3.844
  142POPC  H15S18975   4.295   6.418   3.863
  142POPC  C21618976   4.168   6.249   3.911
  142POPC  H16R18977   4.249   6.175   3.892
  142POPC  H16S18978   4.072   6.204   3.878
  142POPC  C21718979   4.165   6.276   4.062
  142POPC  H17R18980   4.265   6.317   4.091
  142POPC  H17S18981   4.152   6.181   4.118
  142POPC  C21818982   4.056   6.374   4.105
  142POPC  H18R18983   4.084   6.424   4.199
  142POPC  H18S18984   3.959   6.322   4.117
  142POPC  H18T18985   4.042   6.453   4.030
  142POPC   C3318986   3.989   6.338   3.133
  142POPC   H3X18987   3.962   6.441   3.162
  142POPC   H3Y18988   4.055   6.303   3.214
  142POPC   C3418989   3.863   6.249   3.128
  142POPC   H4X18990   3.797   6.274   3.214
  142POPC   H4Y18991   3.895   6.143   3.141
  142POPC   C3518992   3.783   6.263   2.999
  142POPC   H5X18993   3.850   6.256   2.910
  142POPC   H5Y18994   3.739   6.366   2.997
  142POPC   C3618995   3.671   6.161   2.971
  142POPC   H6X18996   3.684   6.125   2.866
  142POPC   H6Y18997   3.577   6.218   2.976
  142POPC   C3718998   3.654   6.039   3.063
  142POPC   H7X18999   3.754   5.999   3.086
  142POPC   H7Y19000   3.598   5.963   3.003
  142POPC   C3819001   3.569   6.069   3.187
  142POPC   H8X19002   3.496   6.145   3.154
  142POPC   H8Y19003   3.633   6.114   3.266
  142POPC   C3919004   3.477   5.960   3.244
  142POPC   H9X19005   3.502   5.864   3.193
  142POPC   H9Y19006   3.371   5.981   3.219
  142POPC  C31019007   3.492   5.941   3.397
  142POPC  H10X19008   3.598   5.950   3.422
  142POPC  H10Y19009   3.458   5.839   3.423
  142POPC  C31119010   3.424   6.040   3.492
  142POPC  H11X19011   3.320   6.058   3.458
  142POPC  H11Y19012   3.478   6.137   3.490
  142POPC  C31219013   3.419   5.985   3.637
  142POPC  H12X19014   3.394   5.877   3.635
  142POPC  H12Y19015   3.337   6.037   3.691
  142POPC  C31319016   3.548   6.004   3.721
  142POPC  H13X19017   3.577   6.111   3.719
  142POPC  H13Y19018   3.630   5.944   3.676
  142POPC  C31419019   3.531   5.960   3.868
  142POPC  H14X19020   3.532   5.848   3.872
  142POPC  H14Y19021   3.432   5.994   3.904
  142POPC  C31519022   3.638   6.015   3.964
  142POPC  H15X19023   3.621   5.970   4.065
  142POPC  H15Y19024   3.621   6.125   3.976
  142POPC  C31619025   3.783   5.992   3.922
  142POPC  H16X19026   3.852   6.033   3.999
  142POPC  H16Y19027   3.804   6.044   3.826
  142POPC  H16Z19028   3.804   5.884   3.910
  143POPC     N19029   5.058   3.100   2.241
  143POPC   C1219030   4.989   2.967   2.210
  143POPC  H12A19031   5.042   2.917   2.129
  143POPC  H12B19032   4.888   2.988   2.174
  143POPC   C1319033   5.177   3.078   2.329
  143POPC  H13A19034   5.256   3.027   2.276
  143POPC  H13B19035   5.211   3.172   2.368
  143POPC  H13C19036   5.145   3.016   2.412
  143POPC   C1419037   5.098   3.168   2.114
  143POPC  H14A19038   5.012   3.190   2.052
  143POPC  H14B19039   5.150   3.259   2.136
  143POPC  H14C19040   5.163   3.104   2.054
  143POPC   C1519041   4.962   3.186   2.316
  143POPC  H15A19042   4.933   3.135   2.408
  143POPC  H15B19043   4.868   3.198   2.262
  143POPC  H15C19044   5.002   3.284   2.340
  143POPC   C1119045   4.968   2.866   2.326
  143POPC  H11A19046   5.066   2.835   2.367
  143POPC  H11B19047   4.923   2.771   2.286
  143POPC     P19048   4.729   2.927   2.411
  143POPC   O1319049   4.686   2.800   2.348
  143POPC   O1419050   4.698   3.052   2.338
  143POPC   O1219051   4.887   2.922   2.430
  143POPC   O1119052   4.681   2.934   2.563
  143POPC    C119053   4.662   3.061   2.627
  143POPC    HA19054   4.568   3.055   2.686
  143POPC    HB19055   4.644   3.144   2.555
  143POPC    C219056   4.779   3.106   2.722
  143POPC    HS19057   4.821   3.198   2.674
  143POPC   O2119058   4.880   3.003   2.735
  143POPC   C2119059   4.998   3.052   2.768
  143POPC   O2219060   5.024   3.170   2.783
  143POPC   C2219061   5.100   2.940   2.781
  143POPC   H2R19062   5.202   2.982   2.777
  143POPC   H2S19063   5.088   2.876   2.691
  143POPC    C319064   4.726   3.145   2.864
  143POPC    HX19065   4.672   3.241   2.855
  143POPC    HY19066   4.814   3.163   2.931
  143POPC   O3119067   4.636   3.044   2.913
  143POPC   C3119068   4.667   2.977   3.023
  143POPC   O3219069   4.763   3.000   3.095
  143POPC   C3219070   4.558   2.868   3.051
  143POPC   H2X19071   4.597   2.774   3.009
  143POPC   H2Y19072   4.469   2.898   2.993
  143POPC   C2319073   5.080   2.854   2.907
  143POPC   H3R19074   5.119   2.753   2.882
  143POPC   H3S19075   4.971   2.842   2.929
  143POPC   C2419076   5.152   2.893   3.037
  143POPC   H4R19077   5.105   2.985   3.078
  143POPC   H4S19078   5.259   2.912   3.016
  143POPC   C2519079   5.145   2.779   3.140
  143POPC   H5R19080   5.231   2.710   3.132
  143POPC   H5S19081   5.055   2.722   3.113
  143POPC   C2619082   5.124   2.818   3.286
  143POPC   H6R19083   5.079   2.730   3.338
  143POPC   H6S19084   5.053   2.903   3.293
  143POPC   C2719085   5.252   2.848   3.363
  143POPC   H7R19086   5.299   2.935   3.314
  143POPC   H7S19087   5.320   2.761   3.351
  143POPC   C2819088   5.220   2.872   3.511
  143POPC   H8R19089   5.175   2.780   3.554
  143POPC   H8S19090   5.145   2.953   3.520
  143POPC   C2919091   5.347   2.910   3.581
  143POPC   H9119092   5.416   2.966   3.518
  143POPC  C21019093   5.385   2.881   3.707
  143POPC  H10119094   5.487   2.910   3.738
  143POPC  C21119095   5.309   2.804   3.810
  143POPC  H11R19096   5.347   2.701   3.814
  143POPC  H11S19097   5.201   2.798   3.788
  143POPC  C21219098   5.333   2.868   3.948
  143POPC  H12R19099   5.294   2.972   3.950
  143POPC  H12S19100   5.443   2.871   3.967
  143POPC  C21319101   5.270   2.788   4.063
  143POPC  H13R19102   5.317   2.819   4.158
  143POPC  H13S19103   5.292   2.680   4.049
  143POPC  C21419104   5.120   2.812   4.079
  143POPC  H14R19105   5.071   2.755   3.999
  143POPC  H14S19106   5.100   2.920   4.066
  143POPC  C21519107   5.063   2.767   4.214
  143POPC  H15R19108   5.017   2.854   4.266
  143POPC  H15S19109   5.147   2.731   4.277
  143POPC  C21619110   4.958   2.657   4.199
  143POPC  H16R19111   4.986   2.590   4.115
  143POPC  H16S19112   4.858   2.700   4.173
  143POPC  C21719113   4.950   2.572   4.326
  143POPC  H17R19114   5.051   2.565   4.372
  143POPC  H17S19115   4.920   2.468   4.299
  143POPC  C21819116   4.851   2.626   4.429
  143POPC  H18R19117   4.749   2.618   4.388
  143POPC  H18S19118   4.869   2.733   4.451
  143POPC  H18T19119   4.856   2.568   4.523
  143POPC   C3319120   4.526   2.850   3.204
  143POPC   H3X19121   4.455   2.929   3.236
  143POPC   H3Y19122   4.625   2.878   3.243
  143POPC   C3419123   4.489   2.709   3.268
  143POPC   H4X19124   4.547   2.634   3.212
  143POPC   H4Y19125   4.385   2.689   3.236
  143POPC   C3519126   4.496   2.675   3.428
  143POPC   H5X19127   4.412   2.601   3.434
  143POPC   H5Y19128   4.457   2.758   3.487
  143POPC   C3619129   4.617   2.592   3.499
  143POPC   H6X19130   4.695   2.591   3.426
  143POPC   H6Y19131   4.576   2.489   3.497
  143POPC   C3719132   4.695   2.596   3.644
  143POPC   H7X19133   4.742   2.497   3.648
  143POPC   H7Y19134   4.624   2.583   3.727
  143POPC   C3819135   4.829   2.679   3.681
  143POPC   H8X19136   4.804   2.779   3.646
  143POPC   H8Y19137   4.920   2.645   3.630
  143POPC   C3919138   4.888   2.735   3.816
  143POPC   H9X19139   4.976   2.670   3.838
  143POPC   H9Y19140   4.821   2.730   3.903
  143POPC  C31019141   4.950   2.881   3.796
  143POPC  H10X19142   5.009   2.873   3.702
  143POPC  H10Y19143   5.021   2.910   3.875
  143POPC  C31119144   4.855   3.001   3.777
  143POPC  H11X19145   4.765   2.986   3.837
  143POPC  H11Y19146   4.830   3.000   3.669
  143POPC  C31219147   4.895   3.149   3.802
  143POPC  H12X19148   4.813   3.210   3.758
  143POPC  H12Y19149   4.988   3.176   3.749
  143POPC  C31319150   4.901   3.190   3.950
  143POPC  H13X19151   4.979   3.128   4.000
  143POPC  H13Y19152   4.804   3.167   4.000
  143POPC  C31419153   4.935   3.339   3.970
  143POPC  H14X19154   5.033   3.358   3.921
  143POPC  H14Y19155   4.947   3.358   4.079
  143POPC  C31519156   4.832   3.439   3.915
  143POPC  H15X19157   4.825   3.431   3.804
  143POPC  H15Y19158   4.870   3.542   3.936
  143POPC  C31619159   4.693   3.425   3.977
  143POPC  H16X19160   4.635   3.518   3.963
  143POPC  H16Y19161   4.702   3.407   4.086
  143POPC  H16Z19162   4.638   3.340   3.932
  144POPC     N19163   2.940   4.600   2.390
  144POPC   C1219164   3.062   4.509   2.401
  144POPC  H12A19165   3.036   4.421   2.461
  144POPC  H12B19166   3.142   4.560   2.455
  144POPC   C1319167   2.970   4.724   2.312
  144POPC  H13A19168   3.005   4.696   2.213
  144POPC  H13B19169   2.880   4.783   2.299
  144POPC  H13C19170   3.046   4.785   2.359
  144POPC   C1419171   2.832   4.527   2.316
  144POPC  H14A19172   2.866   4.505   2.216
  144POPC  H14B19173   2.818   4.429   2.361
  144POPC  H14C19174   2.738   4.580   2.314
  144POPC   C1519175   2.890   4.630   2.529
  144POPC  H15A19176   2.962   4.684   2.588
  144POPC  H15B19177   2.868   4.536   2.581
  144POPC  H15C19178   2.796   4.685   2.529
  144POPC   C1119179   3.122   4.447   2.274
  144POPC  H11A19180   3.217   4.394   2.301
  144POPC  H11B19181   3.151   4.525   2.200
  144POPC     P19182   3.043   4.201   2.215
  144POPC   O1319183   3.173   4.172   2.150
  144POPC   O1419184   2.923   4.145   2.151
  144POPC   O1219185   3.026   4.360   2.215
  144POPC   O1119186   3.047   4.165   2.372
  144POPC    C119187   2.944   4.091   2.439
  144POPC    HA19188   2.984   3.995   2.477
  144POPC    HB19189   2.863   4.062   2.368
  144POPC    C219190   2.870   4.163   2.558
  144POPC    HS19191   2.788   4.092   2.585
  144POPC   O2119192   2.821   4.293   2.520
  144POPC   C2119193   2.691   4.289   2.495
  144POPC   O2219194   2.633   4.200   2.435
  144POPC   C2219195   2.627   4.405   2.567
  144POPC   H2R19196   2.519   4.382   2.576
  144POPC   H2S19197   2.637   4.496   2.505
  144POPC    C319198   2.946   4.184   2.695
  144POPC    HX19199   3.021   4.107   2.719
  144POPC    HY19200   2.866   4.161   2.769
  144POPC   O3119201   2.991   4.316   2.731
  144POPC   C3119202   3.106   4.360   2.685
  144POPC   O3219203   3.170   4.311   2.594
  144POPC   C3219204   3.144   4.492   2.753
  144POPC   H2X19205   3.098   4.575   2.695
  144POPC   H2Y19206   3.254   4.502   2.744
  144POPC   C2319207   2.686   4.423   2.709
  144POPC   H3R19208   2.796   4.424   2.708
  144POPC   H3S19209   2.656   4.337   2.773
  144POPC   C2419210   2.646   4.555   2.772
  144POPC   H4R19211   2.542   4.546   2.807
  144POPC   H4S19212   2.647   4.635   2.695
  144POPC   C2519213   2.737   4.595   2.888
  144POPC   H5R19214   2.703   4.691   2.932
  144POPC   H5S19215   2.837   4.615   2.845
  144POPC   C2619216   2.750   4.491   3.001
  144POPC   H6R19217   2.835   4.520   3.067
  144POPC   H6S19218   2.774   4.390   2.960
  144POPC   C2719219   2.626   4.484   3.091
  144POPC   H7R19220   2.540   4.454   3.029
  144POPC   H7S19221   2.606   4.585   3.129
  144POPC   C2819222   2.640   4.388   3.210
  144POPC   H8R19223   2.555   4.403   3.281
  144POPC   H8S19224   2.733   4.413   3.266
  144POPC   C2919225   2.638   4.248   3.155
  144POPC   H9119226   2.544   4.219   3.106
  144POPC  C21019227   2.736   4.156   3.165
  144POPC  H10119228   2.722   4.057   3.119
  144POPC  C21119229   2.867   4.177   3.236
  144POPC  H11R19230   2.894   4.284   3.249
  144POPC  H11S19231   2.949   4.129   3.180
  144POPC  C21219232   2.848   4.110   3.372
  144POPC  H12R19233   2.834   4.000   3.356
  144POPC  H12S19234   2.757   4.151   3.422
  144POPC  C21319235   2.963   4.130   3.470
  144POPC  H13R19236   2.954   4.229   3.519
  144POPC  H13S19237   3.060   4.129   3.416
  144POPC  C21419238   2.970   4.017   3.574
  144POPC  H14R19239   2.989   3.922   3.519
  144POPC  H14S19240   2.874   4.007   3.628
  144POPC  C21519241   3.084   4.040   3.673
  144POPC  H15R19242   3.172   4.077   3.616
  144POPC  H15S19243   3.115   3.944   3.720
  144POPC  C21619244   3.047   4.144   3.780
  144POPC  H16R19245   2.988   4.227   3.735
  144POPC  H16S19246   3.143   4.187   3.816
  144POPC  C21719247   2.975   4.089   3.903
  144POPC  H17R19248   2.873   4.053   3.876
  144POPC  H17S19249   2.961   4.175   3.974
  144POPC  C21819250   3.053   3.979   3.973
  144POPC  H18R19251   3.026   3.879   3.932
  144POPC  H18S19252   3.035   3.979   4.083
  144POPC  H18T19253   3.162   3.993   3.958
  144POPC   C3319254   3.102   4.509   2.901
  144POPC   H3X19255   2.993   4.514   2.911
  144POPC   H3Y19256   3.143   4.606   2.937
  144POPC   C3419257   3.151   4.397   2.993
  144POPC   H4X19258   3.255   4.370   2.966
  144POPC   H4Y19259   3.087   4.306   2.978
  144POPC   C3519260   3.144   4.439   3.141
  144POPC   H5X19261   3.040   4.421   3.177
  144POPC   H5Y19262   3.162   4.549   3.149
  144POPC   C3619263   3.246   4.368   3.230
  144POPC   H6X19264   3.347   4.411   3.218
  144POPC   H6Y19265   3.252   4.261   3.200
  144POPC   C3719266   3.206   4.373   3.378
  144POPC   H7X19267   3.270   4.303   3.436
  144POPC   H7Y19268   3.100   4.339   3.386
  144POPC   C3819269   3.213   4.513   3.439
  144POPC   H8X19270   3.158   4.585   3.374
  144POPC   H8Y19271   3.318   4.547   3.446
  144POPC   C3919272   3.148   4.517   3.579
  144POPC   H9X19273   3.043   4.482   3.571
  144POPC   H9Y19274   3.144   4.623   3.611
  144POPC  C31019275   3.222   4.431   3.682
  144POPC  H10X19276   3.331   4.455   3.681
  144POPC  H10Y19277   3.211   4.324   3.653
  144POPC  C31119278   3.169   4.450   3.825
  144POPC  H11X19279   3.209   4.371   3.892
  144POPC  H11Y19280   3.058   4.441   3.824
  144POPC  C31219281   3.211   4.584   3.884
  144POPC  H12X19282   3.221   4.653   3.799
  144POPC  H12Y19283   3.311   4.576   3.932
  144POPC  C31319284   3.110   4.643   3.983
  144POPC  H13X19285   3.012   4.660   3.932
  144POPC  H13Y19286   3.145   4.742   4.019
  144POPC  C31419287   3.089   4.553   4.103
  144POPC  H14X19288   3.188   4.529   4.146
  144POPC  H14Y19289   3.042   4.457   4.070
  144POPC  C31519290   3.001   4.618   4.208
  144POPC  H15X19291   2.915   4.668   4.160
  144POPC  H15Y19292   3.058   4.696   4.262
  144POPC  C31619293   2.949   4.513   4.305
  144POPC  H16X19294   2.884   4.441   4.251
  144POPC  H16Y19295   2.892   4.561   4.387
  144POPC  H16Z19296   3.032   4.455   4.351
  145POPC     N19297   6.586   4.891   2.413
  145POPC   C1219298   6.459   4.814   2.374
  145POPC  H12A19299   6.374   4.881   2.370
  145POPC  H12B19300   6.436   4.740   2.450
  145POPC   C1319301   6.682   4.788   2.465
  145POPC  H13A19302   6.690   4.708   2.391
  145POPC  H13B19303   6.781   4.828   2.484
  145POPC  H13C19304   6.645   4.740   2.555
  145POPC   C1419305   6.643   4.953   2.288
  145POPC  H14A19306   6.652   4.873   2.214
  145POPC  H14B19307   6.574   5.023   2.241
  145POPC  H14C19308   6.740   4.998   2.300
  145POPC   C1519309   6.558   4.993   2.518
  145POPC  H15A19310   6.643   5.058   2.532
  145POPC  H15B19311   6.535   4.946   2.613
  145POPC  H15C19312   6.472   5.054   2.491
  145POPC   C1119313   6.462   4.737   2.238
  145POPC  H11A19314   6.486   4.805   2.154
  145POPC  H11B19315   6.357   4.704   2.217
  145POPC     P19316   6.498   4.480   2.235
  145POPC   O1319317   6.591   4.383   2.295
  145POPC   O1419318   6.456   4.449   2.096
  145POPC   O1219319   6.557   4.629   2.241
  145POPC   O1119320   6.370   4.492   2.325
  145POPC    C119321   6.284   4.379   2.334
  145POPC    HA19322   6.318   4.291   2.273
  145POPC    HB19323   6.185   4.407   2.292
  145POPC    C219324   6.270   4.333   2.480
  145POPC    HS19325   6.187   4.258   2.477
  145POPC   O2119326   6.239   4.436   2.574
  145POPC   C2119327   6.143   4.519   2.552
  145POPC   O2219328   6.058   4.515   2.464
  145POPC   C2219329   6.141   4.619   2.668
  145POPC   H2R19330   6.244   4.626   2.710
  145POPC   H2S19331   6.076   4.577   2.747
  145POPC    C319332   6.397   4.261   2.535
  145POPC    HX19333   6.441   4.200   2.454
  145POPC    HY19334   6.366   4.190   2.615
  145POPC   O3119335   6.497   4.353   2.585
  145POPC   C3119336   6.485   4.390   2.712
  145POPC   O3219337   6.404   4.344   2.790
  145POPC   C3219338   6.592   4.493   2.745
  145POPC   H2X19339   6.543   4.592   2.759
  145POPC   H2Y19340   6.662   4.499   2.659
  145POPC   C2319341   6.090   4.759   2.628
  145POPC   H3R19342   5.980   4.754   2.611
  145POPC   H3S19343   6.137   4.794   2.533
  145POPC   C2419344   6.119   4.863   2.737
  145POPC   H4R19345   6.082   4.825   2.834
  145POPC   H4S19346   6.061   4.955   2.714
  145POPC   C2519347   6.269   4.899   2.747
  145POPC   H5R19348   6.288   4.989   2.686
  145POPC   H5S19349   6.330   4.817   2.705
  145POPC   C2619350   6.316   4.923   2.892
  145POPC   H6R19351   6.247   4.994   2.941
  145POPC   H6S19352   6.417   4.969   2.889
  145POPC   C2719353   6.324   4.795   2.977
  145POPC   H7R19354   6.365   4.711   2.915
  145POPC   H7S19355   6.222   4.765   3.010
  145POPC   C2819356   6.415   4.810   3.101
  145POPC   H8R19357   6.521   4.817   3.067
  145POPC   H8S19358   6.406   4.717   3.162
  145POPC   C2919359   6.382   4.933   3.182
  145POPC   H9119360   6.378   5.026   3.123
  145POPC  C21019361   6.365   4.944   3.315
  145POPC  H10119362   6.339   5.042   3.357
  145POPC  C21119363   6.373   4.836   3.419
  145POPC  H11R19364   6.364   4.734   3.375
  145POPC  H11S19365   6.291   4.849   3.491
  145POPC  C21219366   6.502   4.845   3.502
  145POPC  H12R19367   6.591   4.827   3.437
  145POPC  H12S19368   6.498   4.763   3.577
  145POPC  C21319369   6.518   4.978   3.577
  145POPC  H13R19370   6.424   5.004   3.630
  145POPC  H13S19371   6.540   5.059   3.504
  145POPC  C21419372   6.634   4.969   3.678
  145POPC  H14R19373   6.674   5.068   3.704
  145POPC  H14S19374   6.717   4.916   3.627
  145POPC  C21519375   6.594   4.895   3.806
  145POPC  H15R19376   6.510   4.826   3.781
  145POPC  H15S19377   6.553   4.965   3.882
  145POPC  C21619378   6.708   4.812   3.863
  145POPC  H16R19379   6.756   4.865   3.948
  145POPC  H16S19380   6.786   4.796   3.785
  145POPC  C21719381   6.656   4.674   3.904
  145POPC  H17R19382   6.606   4.633   3.813
  145POPC  H17S19383   6.579   4.685   3.982
  145POPC  C21819384   6.762   4.574   3.948
  145POPC  H18R19385   6.832   4.555   3.864
  145POPC  H18S19386   6.713   4.479   3.977
  145POPC  H18T19387   6.822   4.609   4.034
  145POPC   C3319388   6.673   4.453   2.870
  145POPC   H3X19389   6.777   4.490   2.856
  145POPC   H3Y19390   6.679   4.342   2.880
  145POPC   C3419391   6.622   4.513   3.001
  145POPC   H4X19392   6.533   4.456   3.036
  145POPC   H4Y19393   6.590   4.618   2.984
  145POPC   C3519394   6.733   4.511   3.106
  145POPC   H5X19395   6.817   4.575   3.070
  145POPC   H5Y19396   6.771   4.407   3.114
  145POPC   C3619397   6.689   4.561   3.244
  145POPC   H6X19398   6.629   4.653   3.235
  145POPC   H6Y19399   6.781   4.587   3.300
  145POPC   C3719400   6.614   4.453   3.322
  145POPC   H7X19401   6.662   4.354   3.303
  145POPC   H7Y19402   6.509   4.446   3.285
  145POPC   C3819403   6.615   4.479   3.473
  145POPC   H8X19404   6.561   4.574   3.494
  145POPC   H8Y19405   6.720   4.490   3.508
  145POPC   C3919406   6.548   4.365   3.550
  145POPC   H9X19407   6.607   4.272   3.531
  145POPC   H9Y19408   6.446   4.348   3.508
  145POPC  C31019409   6.538   4.388   3.701
  145POPC  H10X19410   6.629   4.441   3.737
  145POPC  H10Y19411   6.539   4.289   3.752
  145POPC  C31119412   6.409   4.461   3.743
  145POPC  H11X19413   6.324   4.418   3.686
  145POPC  H11Y19414   6.415   4.568   3.716
  145POPC  C31219415   6.379   4.446   3.893
  145POPC  H12X19416   6.454   4.503   3.951
  145POPC  H12Y19417   6.389   4.339   3.924
  145POPC  C31319418   6.239   4.495   3.934
  145POPC  H13X19419   6.160   4.422   3.904
  145POPC  H13Y19420   6.216   4.589   3.880
  145POPC  C31419421   6.229   4.521   4.085
  145POPC  H14X19422   6.325   4.492   4.135
  145POPC  H14Y19423   6.150   4.455   4.126
  145POPC  C31519424   6.195   4.666   4.118
  145POPC  H15X19425   6.189   4.679   4.228
  145POPC  H15Y19426   6.093   4.683   4.078
  145POPC  C31619427   6.287   4.774   4.060
  145POPC  H16X19428   6.352   4.815   4.139
  145POPC  H16Y19429   6.229   4.860   4.020
  145POPC  H16Z19430   6.351   4.735   3.978
  146POPC     N19431   3.809   2.943   2.240
  146POPC   C1219432   3.888   3.073   2.258
  146POPC  H12A19433   3.821   3.154   2.234
  146POPC  H12B19434   3.965   3.075   2.180
  146POPC   C1319435   3.738   2.899   2.363
  146POPC  H13A19436   3.805   2.899   2.448
  146POPC  H13B19437   3.651   2.962   2.385
  146POPC  H13C19438   3.695   2.801   2.350
  146POPC   C1419439   3.707   2.958   2.130
  146POPC  H14A19440   3.748   3.008   2.042
  146POPC  H14B19441   3.673   2.860   2.096
  146POPC  H14C19442   3.620   3.012   2.165
  146POPC   C1519443   3.905   2.839   2.195
  146POPC  H15A19444   3.985   2.829   2.268
  146POPC  H15B19445   3.953   2.870   2.103
  146POPC  H15C19446   3.857   2.743   2.182
  146POPC   C1119447   3.959   3.112   2.392
  146POPC  H11A19448   3.880   3.132   2.467
  146POPC  H11B19449   4.012   3.208   2.375
  146POPC     P19450   4.183   2.962   2.380
  146POPC   O1319451   4.298   2.973   2.471
  146POPC   O1419452   4.191   3.019   2.243
  146POPC   O1219453   4.049   3.016   2.447
  146POPC   O1119454   4.151   2.806   2.372
  146POPC    C119455   4.054   2.747   2.461
  146POPC    HA19456   3.981   2.697   2.397
  146POPC    HB19457   3.997   2.820   2.523
  146POPC    C219458   4.115   2.646   2.563
  146POPC    HS19459   4.189   2.584   2.508
  146POPC   O2119460   4.014   2.560   2.621
  146POPC   C2119461   3.923   2.506   2.542
  146POPC   O2219462   3.938   2.476   2.425
  146POPC   C2219463   3.791   2.492   2.616
  146POPC   H2R19464   3.783   2.386   2.648
  146POPC   H2S19465   3.712   2.518   2.541
  146POPC    C319466   4.193   2.720   2.678
  146POPC    HX19467   4.253   2.800   2.631
  146POPC    HY19468   4.267   2.651   2.718
  146POPC   O3119469   4.116   2.777   2.787
  146POPC   C3119470   4.117   2.704   2.900
  146POPC   O3219471   4.137   2.584   2.906
  146POPC   C3219472   4.095   2.791   3.025
  146POPC   H2X19473   4.123   2.728   3.111
  146POPC   H2Y19474   3.988   2.807   3.036
  146POPC   C2319475   3.774   2.585   2.738
  146POPC   H3R19476   3.860   2.570   2.807
  146POPC   H3S19477   3.681   2.557   2.794
  146POPC   C2419478   3.763   2.734   2.702
  146POPC   H4R19479   3.669   2.756   2.647
  146POPC   H4S19480   3.847   2.762   2.636
  146POPC   C2519481   3.776   2.817   2.830
  146POPC   H5R19482   3.861   2.773   2.884
  146POPC   H5S19483   3.687   2.802   2.894
  146POPC   C2619484   3.807   2.967   2.810
  146POPC   H6R19485   3.722   3.019   2.760
  146POPC   H6S19486   3.896   2.975   2.743
  146POPC   C2719487   3.836   3.037   2.943
  146POPC   H7R19488   3.886   3.135   2.926
  146POPC   H7S19489   3.909   2.975   2.998
  146POPC   C2819490   3.714   3.054   3.034
  146POPC   H8R19491   3.658   2.958   3.035
  146POPC   H8S19492   3.648   3.131   2.987
  146POPC   C2919493   3.748   3.096   3.175
  146POPC   H9119494   3.820   3.179   3.183
  146POPC  C21019495   3.701   3.040   3.287
  146POPC  H10119496   3.735   3.078   3.385
  146POPC  C21119497   3.604   2.923   3.294
  146POPC  H11R19498   3.658   2.828   3.275
  146POPC  H11S19499   3.527   2.931   3.215
  146POPC  C21219500   3.530   2.913   3.428
  146POPC  H12R19501   3.458   2.829   3.422
  146POPC  H12S19502   3.468   3.003   3.444
  146POPC  C21319503   3.616   2.896   3.554
  146POPC  H13R19504   3.554   2.854   3.637
  146POPC  H13S19505   3.650   2.997   3.586
  146POPC  C21419506   3.740   2.810   3.535
  146POPC  H14R19507   3.799   2.842   3.446
  146POPC  H14S19508   3.715   2.702   3.520
  146POPC  C21519509   3.828   2.826   3.657
  146POPC  H15R19510   3.832   2.932   3.691
  146POPC  H15S19511   3.928   2.803   3.620
  146POPC  C21619512   3.788   2.733   3.771
  146POPC  H16R19513   3.774   2.630   3.732
  146POPC  H16S19514   3.692   2.770   3.813
  146POPC  C21719515   3.896   2.725   3.879
  146POPC  H17R19516   3.934   2.828   3.900
  146POPC  H17S19517   3.976   2.661   3.837
  146POPC  C21819518   3.859   2.657   4.010
  146POPC  H18R19519   3.773   2.709   4.054
  146POPC  H18S19520   3.944   2.662   4.081
  146POPC  H18T19521   3.835   2.550   3.992
  146POPC   C3319522   4.177   2.924   3.029
  146POPC   H3X19523   4.176   2.975   2.930
  146POPC   H3Y19524   4.281   2.895   3.051
  146POPC   C3419525   4.135   3.027   3.136
  146POPC   H4X19526   4.054   3.093   3.097
  146POPC   H4Y19527   4.222   3.094   3.157
  146POPC   C3519528   4.087   2.968   3.269
  146POPC   H5X19529   3.998   2.903   3.252
  146POPC   H5Y19530   4.057   3.050   3.337
  146POPC   C3619531   4.198   2.887   3.336
  146POPC   H6X19532   4.288   2.951   3.346
  146POPC   H6Y19533   4.223   2.799   3.273
  146POPC   C3719534   4.158   2.839   3.474
  146POPC   H7X19535   4.075   2.900   3.513
  146POPC   H7Y19536   4.246   2.858   3.540
  146POPC   C3819537   4.123   2.690   3.477
  146POPC   H8X19538   4.196   2.632   3.417
  146POPC   H8Y19539   4.023   2.674   3.432
  146POPC   C3919540   4.124   2.639   3.622
  146POPC   H9X19541   4.064   2.547   3.635
  146POPC   H9Y19542   4.080   2.719   3.683
  146POPC  C31019543   4.262   2.626   3.684
  146POPC  H10X19544   4.310   2.725   3.672
  146POPC  H10Y19545   4.326   2.554   3.630
  146POPC  C31119546   4.253   2.598   3.835
  146POPC  H11X19547   4.349   2.556   3.871
  146POPC  H11Y19548   4.174   2.522   3.854
  146POPC  C31219549   4.224   2.730   3.908
  146POPC  H12X19550   4.131   2.775   3.872
  146POPC  H12Y19551   4.295   2.805   3.871
  146POPC  C31319552   4.218   2.730   4.061
  146POPC  H13X19553   4.314   2.702   4.107
  146POPC  H13Y19554   4.143   2.656   4.096
  146POPC  C31419555   4.178   2.871   4.106
  146POPC  H14X19556   4.078   2.893   4.063
  146POPC  H14Y19557   4.250   2.945   4.064
  146POPC  C31519558   4.169   2.891   4.257
  146POPC  H15X19559   4.270   2.906   4.299
  146POPC  H15Y19560   4.128   2.799   4.301
  146POPC  C31619561   4.079   3.010   4.292
  146POPC  H16X19562   3.989   3.011   4.226
  146POPC  H16Y19563   4.133   3.106   4.279
  146POPC  H16Z19564   4.043   3.002   4.396
  147POPC     N19565   5.643   3.285   2.261
  147POPC   C1219566   5.679   3.144   2.216
  147POPC  H12A19567   5.644   3.127   2.115
  147POPC  H12B19568   5.630   3.072   2.281
  147POPC   C1319569   5.676   3.300   2.406
  147POPC  H13A19570   5.659   3.400   2.443
  147POPC  H13B19571   5.622   3.230   2.468
  147POPC  H13C19572   5.781   3.274   2.422
  147POPC   C1419573   5.728   3.380   2.181
  147POPC  H14A19574   5.711   3.482   2.210
  147POPC  H14B19575   5.834   3.356   2.199
  147POPC  H14C19576   5.711   3.368   2.075
  147POPC   C1519577   5.500   3.319   2.239
  147POPC  H15A19578   5.472   3.307   2.135
  147POPC  H15B19579   5.481   3.422   2.268
  147POPC  H15C19580   5.435   3.256   2.298
  147POPC   C1119581   5.829   3.109   2.218
  147POPC  H11A19582   5.890   3.183   2.162
  147POPC  H11B19583   5.841   3.015   2.159
  147POPC     P19584   5.913   2.955   2.406
  147POPC   O1319585   6.001   2.891   2.305
  147POPC   O1419586   5.781   2.890   2.420
  147POPC   O1219587   5.881   3.101   2.352
  147POPC   O1119588   5.984   2.975   2.545
  147POPC    C119589   6.102   3.050   2.574
  147POPC    HA19590   6.129   3.116   2.488
  147POPC    HB19591   6.188   2.981   2.590
  147POPC    C219592   6.091   3.141   2.702
  147POPC    HS19593   6.177   3.211   2.697
  147POPC   O2119594   6.099   3.062   2.824
  147POPC   C2119595   6.118   3.131   2.935
  147POPC   O2219596   6.148   3.249   2.943
  147POPC   C2219597   6.086   3.043   3.056
  147POPC   H2R19598   6.132   3.090   3.145
  147POPC   H2S19599   6.131   2.943   3.041
  147POPC    C319600   5.960   3.225   2.702
  147POPC    HX19601   5.945   3.264   2.599
  147POPC    HY19602   5.975   3.312   2.771
  147POPC   O3119603   5.847   3.145   2.744
  147POPC   C3119604   5.737   3.213   2.767
  147POPC   O3219605   5.721   3.333   2.750
  147POPC   C3219606   5.629   3.119   2.819
  147POPC   H2X19607   5.679   3.031   2.866
  147POPC   H2Y19608   5.569   3.084   2.734
  147POPC   C2319609   5.932   3.032   3.075
  147POPC   H3R19610   5.889   2.968   2.994
  147POPC   H3S19611   5.887   3.133   3.064
  147POPC   C2419612   5.888   2.978   3.211
  147POPC   H4R19613   5.779   2.999   3.221
  147POPC   H4S19614   5.939   3.034   3.293
  147POPC   C2519615   5.910   2.827   3.231
  147POPC   H5R19616   6.020   2.808   3.241
  147POPC   H5S19617   5.874   2.771   3.142
  147POPC   C2619618   5.839   2.773   3.356
  147POPC   H6R19619   5.859   2.841   3.441
  147POPC   H6S19620   5.881   2.674   3.381
  147POPC   C2719621   5.687   2.756   3.339
  147POPC   H7R19622   5.666   2.671   3.270
  147POPC   H7S19623   5.645   2.848   3.292
  147POPC   C2819624   5.613   2.735   3.473
  147POPC   H8R19625   5.505   2.740   3.450
  147POPC   H8S19626   5.636   2.822   3.538
  147POPC   C2919627   5.640   2.604   3.543
  147POPC   H9119628   5.603   2.515   3.489
  147POPC  C21019629   5.701   2.586   3.661
  147POPC  H10119630   5.717   2.484   3.698
  147POPC  C21119631   5.758   2.694   3.751
  147POPC  H11R19632   5.697   2.788   3.747
  147POPC  H11S19633   5.859   2.722   3.713
  147POPC  C21219634   5.773   2.652   3.899
  147POPC  H12R19635   5.811   2.548   3.907
  147POPC  H12S19636   5.672   2.656   3.947
  147POPC  C21319637   5.870   2.745   3.973
  147POPC  H13R19638   5.859   2.847   3.931
  147POPC  H13S19639   5.975   2.713   3.953
  147POPC  C21419640   5.847   2.755   4.124
  147POPC  H14R19641   5.869   2.657   4.172
  147POPC  H14S19642   5.739   2.777   4.142
  147POPC  C21519643   5.930   2.866   4.191
  147POPC  H15R19644   5.896   2.878   4.296
  147POPC  H15S19645   5.912   2.962   4.139
  147POPC  C21619646   6.081   2.836   4.192
  147POPC  H16R19647   6.121   2.846   4.089
  147POPC  H16S19648   6.094   2.730   4.220
  147POPC  C21719649   6.161   2.924   4.291
  147POPC  H17R19650   6.267   2.889   4.291
  147POPC  H17S19651   6.122   2.906   4.394
  147POPC  C21819652   6.160   3.074   4.262
  147POPC  H18R19653   6.216   3.129   4.341
  147POPC  H18S19654   6.056   3.113   4.261
  147POPC  H18T19655   6.206   3.096   4.164
  147POPC   C3319656   5.541   3.190   2.924
  147POPC   H3X19657   5.483   3.273   2.877
  147POPC   H3Y19658   5.607   3.235   3.001
  147POPC   C3419659   5.444   3.093   2.991
  147POPC   H4X19660   5.502   3.007   3.032
  147POPC   H4Y19661   5.374   3.054   2.915
  147POPC   C3519662   5.366   3.157   3.107
  147POPC   H5X19663   5.294   3.083   3.148
  147POPC   H5Y19664   5.307   3.244   3.071
  147POPC   C3619665   5.460   3.198   3.220
  147POPC   H6X19666   5.514   3.292   3.193
  147POPC   H6Y19667   5.536   3.117   3.229
  147POPC   C3719668   5.389   3.217   3.354
  147POPC   H7X19669   5.332   3.125   3.379
  147POPC   H7Y19670   5.314   3.297   3.343
  147POPC   C3819671   5.486   3.246   3.470
  147POPC   H8X19672   5.430   3.235   3.566
  147POPC   H8Y19673   5.521   3.351   3.462
  147POPC   C3919674   5.610   3.155   3.471
  147POPC   H9X19675   5.675   3.180   3.385
  147POPC   H9Y19676   5.582   3.049   3.461
  147POPC  C31019677   5.691   3.173   3.599
  147POPC  H10X19678   5.629   3.142   3.686
  147POPC  H10Y19679   5.716   3.280   3.611
  147POPC  C31119680   5.821   3.091   3.597
  147POPC  H11X19681   5.871   3.102   3.498
  147POPC  H11Y19682   5.797   2.983   3.611
  147POPC  C31219683   5.918   3.137   3.707
  147POPC  H12X19684   5.950   3.241   3.685
  147POPC  H12Y19685   6.008   3.072   3.706
  147POPC  C31319686   5.851   3.132   3.845
  147POPC  H13X19687   5.811   3.030   3.861
  147POPC  H13Y19688   5.764   3.201   3.848
  147POPC  C31419689   5.944   3.171   3.960
  147POPC  H14X19690   6.036   3.108   3.959
  147POPC  H14Y19691   5.891   3.153   4.056
  147POPC  C31519692   5.981   3.319   3.956
  147POPC  H15X19693   5.888   3.378   3.941
  147POPC  H15Y19694   6.047   3.339   3.868
  147POPC  C31619695   6.050   3.366   4.084
  147POPC  H16X19696   5.991   3.336   4.173
  147POPC  H16Y19697   6.059   3.476   4.083
  147POPC  H16Z19698   6.151   3.322   4.092
  148POPC     N19699   6.206   6.090   2.259
  148POPC   C1219700   6.157   6.217   2.325
  148POPC  H12A19701   6.076   6.197   2.395
  148POPC  H12B19702   6.117   6.283   2.250
  148POPC   C1319703   6.285   6.011   2.357
  148POPC  H13A19704   6.222   5.974   2.437
  148POPC  H13B19705   6.330   5.923   2.313
  148POPC  H13C19706   6.363   6.074   2.400
  148POPC   C1419707   6.096   6.006   2.204
  148POPC  H14A19708   6.137   5.919   2.153
  148POPC  H14B19709   6.030   5.967   2.282
  148POPC  H14C19710   6.036   6.063   2.134
  148POPC   C1519711   6.295   6.134   2.145
  148POPC  H15A19712   6.241   6.198   2.075
  148POPC  H15B19713   6.335   6.051   2.090
  148POPC  H15C19714   6.375   6.199   2.183
  148POPC   C1119715   6.265   6.296   2.404
  148POPC  H11A19716   6.306   6.237   2.489
  148POPC  H11B19717   6.204   6.377   2.447
  148POPC     P19718   6.468   6.457   2.388
  148POPC   O1319719   6.492   6.567   2.290
  148POPC   O1419720   6.588   6.385   2.436
  148POPC   O1219721   6.370   6.349   2.323
  148POPC   O1119722   6.386   6.509   2.514
  148POPC    C119723   6.277   6.602   2.508
  148POPC    HA19724   6.197   6.570   2.439
  148POPC    HB19725   6.313   6.699   2.468
  148POPC    C219726   6.212   6.630   2.649
  148POPC    HS19727   6.159   6.728   2.639
  148POPC   O2119728   6.304   6.639   2.759
  148POPC   C2119729   6.425   6.685   2.736
  148POPC   O2219730   6.463   6.756   2.645
  148POPC   C2219731   6.515   6.640   2.852
  148POPC   H2R19732   6.458   6.578   2.924
  148POPC   H2S19733   6.546   6.734   2.903
  148POPC    C319734   6.104   6.526   2.694
  148POPC    HX19735   6.034   6.512   2.609
  148POPC    HY19736   6.047   6.574   2.776
  148POPC   O3119737   6.158   6.401   2.747
  148POPC   C3119738   6.117   6.287   2.693
  148POPC   O3219739   6.045   6.275   2.596
  148POPC   C3219740   6.168   6.169   2.772
  148POPC   H2X19741   6.277   6.179   2.789
  148POPC   H2Y19742   6.147   6.079   2.712
  148POPC   C2319743   6.638   6.565   2.799
  148POPC   H3R19744   6.710   6.552   2.883
  148POPC   H3S19745   6.687   6.626   2.719
  148POPC   C2419746   6.612   6.426   2.744
  148POPC   H4R19747   6.699   6.397   2.681
  148POPC   H4S19748   6.522   6.425   2.679
  148POPC   C2519749   6.594   6.322   2.854
  148POPC   H5R19750   6.494   6.334   2.899
  148POPC   H5S19751   6.670   6.338   2.933
  148POPC   C2619752   6.610   6.182   2.796
  148POPC   H6R19753   6.715   6.167   2.763
  148POPC   H6S19754   6.545   6.172   2.706
  148POPC   C2719755   6.575   6.074   2.898
  148POPC   H7R19756   6.590   5.974   2.850
  148POPC   H7S19757   6.468   6.085   2.924
  148POPC   C2819758   6.657   6.085   3.028
  148POPC   H8R19759   6.616   6.167   3.090
  148POPC   H8S19760   6.762   6.114   3.002
  148POPC   C2919761   6.659   5.954   3.102
  148POPC   H9119762   6.733   5.882   3.068
  148POPC  C21019763   6.571   5.912   3.194
  148POPC  H10119764   6.586   5.814   3.240
  148POPC  C21119765   6.450   5.987   3.242
  148POPC  H11R19766   6.361   5.924   3.224
  148POPC  H11S19767   6.433   6.083   3.187
  148POPC  C21219768   6.453   6.013   3.393
  148POPC  H12R19769   6.482   5.922   3.449
  148POPC  H12S19770   6.349   6.039   3.424
  148POPC  C21319771   6.544   6.129   3.433
  148POPC  H13R19772   6.516   6.218   3.372
  148POPC  H13S19773   6.651   6.106   3.412
  148POPC  C21419774   6.523   6.161   3.581
  148POPC  H14R19775   6.570   6.083   3.645
  148POPC  H14S19776   6.413   6.158   3.601
  148POPC  C21519777   6.573   6.300   3.619
  148POPC  H15R19778   6.556   6.367   3.532
  148POPC  H15S19779   6.682   6.295   3.638
  148POPC  C21619780   6.498   6.358   3.740
  148POPC  H16R19781   6.389   6.357   3.718
  148POPC  H16S19782   6.528   6.464   3.755
  148POPC  C21719783   6.524   6.281   3.869
  148POPC  H17R19784   6.634   6.281   3.889
  148POPC  H17S19785   6.492   6.175   3.854
  148POPC  C21819786   6.450   6.337   3.990
  148POPC  H18R19787   6.481   6.441   4.009
  148POPC  H18S19788   6.470   6.276   4.081
  148POPC  H18T19789   6.340   6.334   3.971
  148POPC   C3319790   6.091   6.162   2.905
  148POPC   H3X19791   6.102   6.061   2.950
  148POPC   H3Y19792   5.982   6.178   2.893
  148POPC   C3419793   6.150   6.259   3.006
  148POPC   H4X19794   6.118   6.363   2.985
  148POPC   H4Y19795   6.262   6.255   3.001
  148POPC   C3519796   6.108   6.219   3.145
  148POPC   H5X19797   6.138   6.113   3.166
  148POPC   H5Y19798   5.997   6.225   3.154
  148POPC   C3619799   6.173   6.309   3.248
  148POPC   H6X19800   6.151   6.416   3.227
  148POPC   H6Y19801   6.284   6.296   3.249
  148POPC   C3719802   6.115   6.268   3.381
  148POPC   H7X19803   6.137   6.160   3.400
  148POPC   H7Y19804   6.004   6.278   3.375
  148POPC   C3819805   6.164   6.350   3.498
  148POPC   H8X19806   6.132   6.456   3.484
  148POPC   H8Y19807   6.275   6.348   3.506
  148POPC   C3919808   6.099   6.289   3.620
  148POPC   H9X19809   6.155   6.198   3.652
  148POPC   H9Y19810   5.996   6.257   3.594
  148POPC  C31019811   6.087   6.388   3.733
  148POPC  H10X19812   6.029   6.477   3.698
  148POPC  H10Y19813   6.188   6.423   3.763
  148POPC  C31119814   6.014   6.321   3.847
  148POPC  H11X19815   6.083   6.247   3.894
  148POPC  H11Y19816   5.925   6.267   3.809
  148POPC  C31219817   5.969   6.422   3.950
  148POPC  H12X19818   5.921   6.365   4.032
  148POPC  H12Y19819   5.892   6.491   3.909
  148POPC  C31319820   6.090   6.501   3.998
  148POPC  H13X19821   6.130   6.565   3.916
  148POPC  H13Y19822   6.170   6.428   4.025
  148POPC  C31419823   6.067   6.588   4.119
  148POPC  H14X19824   6.003   6.675   4.094
  148POPC  H14Y19825   6.169   6.622   4.142
  148POPC  C31519826   6.017   6.513   4.242
  148POPC  H15X19827   6.103   6.461   4.291
  148POPC  H15Y19828   5.945   6.434   4.213
  148POPC  C31619829   5.942   6.599   4.341
  148POPC  H16X19830   6.001   6.674   4.396
  148POPC  H16Y19831   5.904   6.528   4.416
  148POPC  H16Z19832   5.860   6.654   4.291
  149POPC     N19833   4.311   6.822   2.288
  149POPC   C1219834   4.203   6.734   2.350
  149POPC  H12A19835   4.250   6.653   2.404
  149POPC  H12B19836   4.145   6.691   2.270
  149POPC   C1319837   4.395   6.888   2.395
  149POPC  H13A19838   4.475   6.947   2.352
  149POPC  H13B19839   4.331   6.953   2.455
  149POPC  H13C19840   4.439   6.814   2.462
  149POPC   C1419841   4.402   6.744   2.198
  149POPC  H14A19842   4.459   6.816   2.138
  149POPC  H14B19843   4.475   6.687   2.256
  149POPC  H14C19844   4.352   6.681   2.126
  149POPC   C1519845   4.247   6.927   2.202
  149POPC  H15A19846   4.194   6.883   2.118
  149POPC  H15B19847   4.322   6.994   2.161
  149POPC  H15C19848   4.172   6.981   2.260
  149POPC   C1119849   4.098   6.799   2.445
  149POPC  H11A19850   4.147   6.834   2.538
  149POPC  H11B19851   4.028   6.717   2.475
  149POPC     P19852   3.878   6.891   2.333
  149POPC   O1319853   3.864   6.755   2.275
  149POPC   O1419854   3.842   7.007   2.249
  149POPC   O1219855   4.029   6.908   2.383
  149POPC   O1119856   3.791   6.900   2.469
  149POPC    C119857   3.657   6.955   2.464
  149POPC    HA19858   3.589   6.889   2.404
  149POPC    HB19859   3.657   7.054   2.412
  149POPC    C219860   3.589   6.978   2.605
  149POPC    HS19861   3.505   7.050   2.590
  149POPC   O2119862   3.678   7.030   2.704
  149POPC   C2119863   3.753   7.131   2.667
  149POPC   O2219864   3.730   7.212   2.580
  149POPC   C2219865   3.879   7.128   2.755
  149POPC   H2R19866   3.961   7.090   2.691
  149POPC   H2S19867   3.863   7.056   2.838
  149POPC    C319868   3.528   6.852   2.673
  149POPC    HX19869   3.434   6.820   2.623
  149POPC    HY19870   3.499   6.880   2.777
  149POPC   O3119871   3.625   6.747   2.682
  149POPC   C3119872   3.634   6.669   2.575
  149POPC   O3219873   3.545   6.655   2.494
  149POPC   C3219874   3.769   6.596   2.572
  149POPC   H2X19875   3.812   6.615   2.472
  149POPC   H2Y19876   3.749   6.487   2.580
  149POPC   C2319877   3.913   7.266   2.813
  149POPC   H3R19878   3.834   7.295   2.886
  149POPC   H3S19879   3.913   7.341   2.731
  149POPC   C2419880   4.050   7.272   2.883
  149POPC   H4R19881   4.056   7.371   2.933
  149POPC   H4S19882   4.130   7.266   2.806
  149POPC   C2519883   4.077   7.166   2.991
  149POPC   H5R19884   4.087   7.066   2.942
  149POPC   H5S19885   3.992   7.161   3.062
  149POPC   C2619886   4.206   7.199   3.068
  149POPC   H6R19887   4.191   7.290   3.130
  149POPC   H6S19888   4.286   7.222   2.993
  149POPC   C2719889   4.258   7.084   3.157
  149POPC   H7R19890   4.361   7.110   3.191
  149POPC   H7S19891   4.266   6.993   3.094
  149POPC   C2819892   4.171   7.056   3.281
  149POPC   H8R19893   4.065   7.046   3.250
  149POPC   H8S19894   4.177   7.144   3.350
  149POPC   C2919895   4.217   6.930   3.350
  149POPC   H9119896   4.154   6.841   3.330
  149POPC  C21019897   4.323   6.918   3.433
  149POPC  H10119898   4.343   6.820   3.480
  149POPC  C21119899   4.417   7.029   3.472
  149POPC  H11R19900   4.392   7.124   3.419
  149POPC  H11S19901   4.522   7.003   3.444
  149POPC  C21219902   4.412   7.060   3.623
  149POPC  H12R19903   4.467   7.155   3.641
  149POPC  H12S19904   4.464   6.980   3.681
  149POPC  C21319905   4.269   7.074   3.677
  149POPC  H13R19906   4.226   6.973   3.697
  149POPC  H13S19907   4.206   7.121   3.598
  149POPC  C21419908   4.256   7.160   3.803
  149POPC  H14R19909   4.148   7.169   3.827
  149POPC  H14S19910   4.294   7.262   3.779
  149POPC  C21519911   4.331   7.110   3.927
  149POPC  H15R19912   4.440   7.107   3.904
  149POPC  H15S19913   4.299   7.006   3.952
  149POPC  C21619914   4.308   7.201   4.049
  149POPC  H16R19915   4.328   7.306   4.017
  149POPC  H16S19916   4.383   7.175   4.127
  149POPC  C21719917   4.167   7.193   4.109
  149POPC  H17R19918   4.094   7.162   4.031
  149POPC  H17S19919   4.137   7.294   4.144
  149POPC  C21819920   4.157   7.096   4.228
  149POPC  H18R19921   4.216   7.132   4.314
  149POPC  H18S19922   4.194   6.995   4.199
  149POPC  H18T19923   4.051   7.086   4.259
  149POPC   C3319924   3.867   6.639   2.683
  149POPC   H3X19925   3.869   6.750   2.693
  149POPC   H3Y19926   3.969   6.607   2.656
  149POPC   C3419927   3.830   6.572   2.815
  149POPC   H4X19928   3.844   6.462   2.802
  149POPC   H4Y19929   3.722   6.587   2.837
  149POPC   C3519930   3.913   6.619   2.934
  149POPC   H5X19931   4.021   6.619   2.910
  149POPC   H5Y19932   3.895   6.545   3.014
  149POPC   C3619933   3.868   6.753   2.994
  149POPC   H6X19934   3.865   6.832   2.917
  149POPC   H6Y19935   3.946   6.782   3.069
  149POPC   C3719936   3.732   6.740   3.064
  149POPC   H7X19937   3.724   6.638   3.108
  149POPC   H7Y19938   3.651   6.748   2.988
  149POPC   C3819939   3.709   6.839   3.178
  149POPC   H8X19940   3.602   6.830   3.211
  149POPC   H8Y19941   3.724   6.943   3.142
  149POPC   C3919942   3.798   6.810   3.299
  149POPC   H9X19943   3.906   6.824   3.272
  149POPC   H9Y19944   3.784   6.704   3.330
  149POPC  C31019945   3.767   6.902   3.417
  149POPC  H10X19946   3.659   6.892   3.443
  149POPC  H10Y19947   3.787   7.007   3.389
  149POPC  C31119948   3.851   6.865   3.538
  149POPC  H11X19949   3.959   6.883   3.515
  149POPC  H11Y19950   3.839   6.755   3.555
  149POPC  C31219951   3.813   6.942   3.665
  149POPC  H12X19952   3.709   6.916   3.693
  149POPC  H12Y19953   3.818   7.051   3.645
  149POPC  C31319954   3.907   6.909   3.781
  149POPC  H13X19955   3.862   6.948   3.876
  149POPC  H13Y19956   4.005   6.961   3.766
  149POPC  C31419957   3.932   6.759   3.793
  149POPC  H14X19958   4.006   6.726   3.717
  149POPC  H14Y19959   3.837   6.704   3.775
  149POPC  C31519960   3.982   6.721   3.931
  149POPC  H15X19961   3.989   6.610   3.934
  149POPC  H15Y19962   3.904   6.751   4.003
  149POPC  C31619963   4.116   6.784   3.969
  149POPC  H16X19964   4.151   6.745   4.068
  149POPC  H16Y19965   4.106   6.894   3.977
  149POPC  H16Z19966   4.194   6.760   3.894
  150POPC     N19967   2.983   5.856   2.158
  150POPC   C1219968   2.963   5.936   2.285
  150POPC  H12A19969   3.027   6.024   2.285
  150POPC  H12B19970   2.996   5.876   2.370
  150POPC   C1319971   2.924   5.721   2.180
  150POPC  H13A19972   2.920   5.666   2.086
  150POPC  H13B19973   2.981   5.668   2.255
  150POPC  H13C19974   2.823   5.735   2.218
  150POPC   C1419975   2.908   5.922   2.046
  150POPC  H14A19976   2.806   5.944   2.078
  150POPC  H14B19977   2.951   6.018   2.018
  150POPC  H14C19978   2.904   5.859   1.959
  150POPC   C1519979   3.125   5.837   2.121
  150POPC  H15A19980   3.133   5.777   2.031
  150POPC  H15B19981   3.180   5.788   2.201
  150POPC  H15C19982   3.172   5.932   2.096
  150POPC   C1119983   2.820   5.985   2.318
  150POPC  H11A19984   2.785   6.056   2.240
  150POPC  H11B19985   2.831   6.043   2.414
  150POPC     P19986   2.596   5.907   2.417
  150POPC   O1319987   2.485   5.933   2.322
  150POPC   O1419988   2.621   6.015   2.515
  150POPC   O1219989   2.727   5.877   2.331
  150POPC   O1119990   2.577   5.767   2.490
  150POPC    C119991   2.607   5.638   2.433
  150POPC    HA19992   2.649   5.644   2.331
  150POPC    HB19993   2.511   5.581   2.427
  150POPC    C219994   2.700   5.546   2.520
  150POPC    HS19995   2.704   5.446   2.472
  150POPC   O2119996   2.640   5.534   2.649
  150POPC   C2119997   2.699   5.454   2.737
  150POPC   O2219998   2.768   5.358   2.709
  150POPC   C2219999   2.676   5.511   2.877
  150POPC   H2R20000   2.774   5.508   2.930
  150POPC   H2S20001   2.604   5.445   2.929
  150POPC    C320002   2.848   5.597   2.531
  150POPC    HX20003   2.876   5.620   2.426
  150POPC    HY20004   2.913   5.513   2.566
  150POPC   O3120005   2.871   5.711   2.619
  150POPC   C3120006   2.988   5.771   2.593
  150POPC   O3220007   3.054   5.752   2.492
  150POPC   C3220008   3.036   5.858   2.711
  150POPC   H2X20009   3.068   5.956   2.670
  150POPC   H2Y20010   3.125   5.807   2.753
  150POPC   C2320011   2.624   5.657   2.871
  150POPC   H3R20012   2.529   5.660   2.813
  150POPC   H3S20013   2.696   5.720   2.815
  150POPC   C2420014   2.604   5.717   3.010
  150POPC   H4R20015   2.670   5.806   3.017
  150POPC   H4S20016   2.638   5.643   3.086
  150POPC   C2520017   2.459   5.762   3.038
  150POPC   H5R20018   2.399   5.746   2.945
  150POPC   H5S20019   2.458   5.871   3.056
  150POPC   C2620020   2.391   5.685   3.153
  150POPC   H6R20021   2.448   5.593   3.174
  150POPC   H6S20022   2.290   5.658   3.115
  150POPC   C2720023   2.367   5.765   3.282
  150POPC   H7R20024   2.286   5.836   3.253
  150POPC   H7S20025   2.457   5.824   3.306
  150POPC   C2820026   2.315   5.693   3.410
  150POPC   H8R20027   2.228   5.628   3.386
  150POPC   H8S20028   2.271   5.772   3.474
  150POPC   C2920029   2.423   5.620   3.485
  150POPC   H9120030   2.466   5.535   3.429
  150POPC  C21020031   2.470   5.646   3.610
  150POPC  H10120032   2.557   5.588   3.645
  150POPC  C21120033   2.426   5.756   3.704
  150POPC  H11R20034   2.380   5.706   3.792
  150POPC  H11S20035   2.344   5.813   3.660
  150POPC  C21220036   2.527   5.860   3.761
  150POPC  H12R20037   2.619   5.811   3.798
  150POPC  H12S20038   2.477   5.907   3.849
  150POPC  C21320039   2.559   5.976   3.665
  150POPC  H13R20040   2.462   6.013   3.625
  150POPC  H13S20041   2.619   5.937   3.580
  150POPC  C21420042   2.633   6.096   3.728
  150POPC  H14R20043   2.570   6.141   3.808
  150POPC  H14S20044   2.647   6.173   3.649
  150POPC  C21520045   2.771   6.062   3.787
  150POPC  H15R20046   2.826   6.000   3.711
  150POPC  H15S20047   2.758   5.998   3.876
  150POPC  C21620048   2.859   6.184   3.821
  150POPC  H16R20049   2.861   6.249   3.731
  150POPC  H16S20050   2.963   6.149   3.839
  150POPC  C21720051   2.815   6.270   3.941
  150POPC  H17R20052   2.709   6.301   3.926
  150POPC  H17S20053   2.876   6.364   3.939
  150POPC  C21820054   2.831   6.207   4.080
  150POPC  H18R20055   2.935   6.171   4.096
  150POPC  H18S20056   2.763   6.121   4.091
  150POPC  H18T20057   2.807   6.281   4.160
  150POPC   C3320058   2.933   5.878   2.825
  150POPC   H3X20059   2.906   5.779   2.868
  150POPC   H3Y20060   2.840   5.923   2.782
  150POPC   C3420061   2.984   5.970   2.937
  150POPC   H4X20062   3.015   6.067   2.894
  150POPC   H4Y20063   3.072   5.922   2.986
  150POPC   C3520064   2.874   5.993   3.041
  150POPC   H5X20065   2.843   5.892   3.076
  150POPC   H5Y20066   2.786   6.040   2.992
  150POPC   C3620067   2.914   6.075   3.165
  150POPC   H6X20068   2.958   6.172   3.133
  150POPC   H6Y20069   2.994   6.019   3.219
  150POPC   C3720070   2.796   6.101   3.261
  150POPC   H7X20071   2.727   6.176   3.217
  150POPC   H7Y20072   2.836   6.141   3.357
  150POPC   C3820073   2.708   5.979   3.291
  150POPC   H8X20074   2.652   5.949   3.200
  150POPC   H8Y20075   2.632   6.008   3.367
  150POPC   C3920076   2.791   5.862   3.343
  150POPC   H9X20077   2.841   5.895   3.437
  150POPC   H9Y20078   2.870   5.833   3.271
  150POPC  C31020079   2.706   5.739   3.370
  150POPC  H10X20080   2.651   5.710   3.278
  150POPC  H10Y20081   2.631   5.770   3.445
  150POPC  C31120082   2.785   5.619   3.422
  150POPC  H11X20083   2.861   5.590   3.346
  150POPC  H11Y20084   2.715   5.534   3.435
  150POPC  C31220085   2.852   5.649   3.556
  150POPC  H12X20086   2.773   5.686   3.625
  150POPC  H12Y20087   2.927   5.730   3.546
  150POPC  C31320088   2.918   5.525   3.615
  150POPC  H13X20089   3.011   5.502   3.557
  150POPC  H13Y20090   2.849   5.439   3.602
  150POPC  C31420091   2.951   5.537   3.764
  150POPC  H14X20092   3.030   5.613   3.781
  150POPC  H14Y20093   2.991   5.437   3.793
  150POPC  C31520094   2.829   5.569   3.852
  150POPC  H15X20095   2.739   5.524   3.803
  150POPC  H15Y20096   2.812   5.679   3.855
  150POPC  C31620097   2.840   5.515   3.995
  150POPC  H16X20098   2.885   5.415   3.998
  150POPC  H16Y20099   2.740   5.507   4.042
  150POPC  H16Z20100   2.906   5.579   4.057
  151POPC     N20101   4.916   6.730   2.389
  151POPC   C1220102   4.975   6.753   2.250
  151POPC  H12A20103   4.909   6.711   2.175
  151POPC  H12B20104   5.068   6.698   2.241
  151POPC   C1320105   4.776   6.780   2.391
  151POPC  H13A20106   4.731   6.768   2.488
  151POPC  H13B20107   4.777   6.886   2.367
  151POPC  H13C20108   4.717   6.733   2.314
  151POPC   C1420109   4.922   6.585   2.421
  151POPC  H14A20110   4.863   6.557   2.508
  151POPC  H14B20111   4.886   6.523   2.339
  151POPC  H14C20112   5.025   6.553   2.438
  151POPC   C1520113   4.995   6.811   2.488
  151POPC  H15A20114   4.975   6.779   2.590
  151POPC  H15B20115   4.972   6.917   2.477
  151POPC  H15C20116   5.102   6.804   2.470
  151POPC   C1120117   5.004   6.898   2.207
  151POPC  H11A20118   5.030   6.900   2.099
  151POPC  H11B20119   5.093   6.934   2.265
  151POPC     P20120   4.901   7.131   2.252
  151POPC   O1320121   4.774   7.169   2.316
  151POPC   O1420122   4.936   7.196   2.123
  151POPC   O1220123   4.888   6.977   2.228
  151POPC   O1120124   5.025   7.144   2.351
  151POPC    C120125   5.136   7.217   2.294
  151POPC    HA20126   5.104   7.306   2.234
  151POPC    HB20127   5.194   7.151   2.226
  151POPC    C220128   5.226   7.278   2.402
  151POPC    HS20129   5.317   7.320   2.353
  151POPC   O2120130   5.266   7.188   2.507
  151POPC   C2120131   5.287   7.061   2.482
  151POPC   O2220132   5.307   7.010   2.373
  151POPC   C2220133   5.310   6.983   2.613
  151POPC   H2R20134   5.413   7.002   2.648
  151POPC   H2S20135   5.303   6.875   2.585
  151POPC    C320136   5.147   7.401   2.460
  151POPC    HX20137   5.131   7.466   2.372
  151POPC    HY20138   5.207   7.456   2.535
  151POPC   O3120139   5.014   7.371   2.507
  151POPC   C3120140   5.013   7.304   2.620
  151POPC   O3220141   5.110   7.285   2.690
  151POPC   C3220142   4.872   7.259   2.657
  151POPC   H2X20143   4.831   7.198   2.574
  151POPC   H2Y20144   4.810   7.350   2.667
  151POPC   C2320145   5.215   7.012   2.731
  151POPC   H3R20146   5.109   7.017   2.696
  151POPC   H3S20147   5.242   7.112   2.773
  151POPC   C2420148   5.224   6.909   2.845
  151POPC   H4R20149   5.164   6.947   2.930
  151POPC   H4S20150   5.329   6.901   2.880
  151POPC   C2520151   5.172   6.772   2.802
  151POPC   H5R20152   5.237   6.731   2.722
  151POPC   H5S20153   5.069   6.783   2.761
  151POPC   C2620154   5.169   6.668   2.915
  151POPC   H6R20155   5.269   6.664   2.962
  151POPC   H6S20156   5.148   6.568   2.871
  151POPC   C2720157   5.061   6.695   3.022
  151POPC   H7R20158   4.962   6.707   2.973
  151POPC   H7S20159   5.083   6.792   3.072
  151POPC   C2820160   5.052   6.582   3.126
  151POPC   H8R20161   5.015   6.490   3.075
  151POPC   H8S20162   4.974   6.609   3.201
  151POPC   C2920163   5.183   6.551   3.196
  151POPC   H9120164   5.227   6.453   3.172
  151POPC  C21020165   5.248   6.636   3.277
  151POPC  H10120166   5.345   6.607   3.320
  151POPC  C21120167   5.198   6.774   3.310
  151POPC  H11R20168   5.087   6.774   3.311
  151POPC  H11S20169   5.230   6.846   3.231
  151POPC  C21220170   5.242   6.831   3.445
  151POPC  H12R20171   5.216   6.759   3.526
  151POPC  H12S20172   5.184   6.924   3.463
  151POPC  C21320173   5.391   6.867   3.452
  151POPC  H13R20174   5.421   6.924   3.361
  151POPC  H13S20175   5.451   6.773   3.453
  151POPC  C21420176   5.427   6.950   3.576
  151POPC  H14R20177   5.405   7.057   3.558
  151POPC  H14S20178   5.535   6.938   3.594
  151POPC  C21520179   5.352   6.903   3.701
  151POPC  H15R20180   5.374   6.794   3.713
  151POPC  H15S20181   5.242   6.915   3.685
  151POPC  C21620182   5.385   6.976   3.831
  151POPC  H16R20183   5.381   7.086   3.816
  151POPC  H16S20184   5.488   6.949   3.864
  151POPC  C21720185   5.284   6.937   3.940
  151POPC  H17R20186   5.187   6.987   3.918
  151POPC  H17S20187   5.320   6.977   4.037
  151POPC  C21820188   5.260   6.786   3.952
  151POPC  H18R20189   5.183   6.763   4.028
  151POPC  H18S20190   5.354   6.736   3.981
  151POPC  H18T20191   5.224   6.743   3.856
  151POPC   C3320192   4.868   7.180   2.791
  151POPC   H3X20193   4.941   7.222   2.864
  151POPC   H3Y20194   4.896   7.074   2.773
  151POPC   C3420195   4.729   7.188   2.855
  151POPC   H4X20196   4.654   7.154   2.780
  151POPC   H4Y20197   4.706   7.294   2.878
  151POPC   C3520198   4.709   7.104   2.983
  151POPC   H5X20199   4.724   6.996   2.960
  151POPC   H5Y20200   4.602   7.116   3.014
  151POPC   C3620201   4.797   7.144   3.103
  151POPC   H6X20202   4.733   7.148   3.194
  151POPC   H6Y20203   4.840   7.245   3.089
  151POPC   C3720204   4.912   7.046   3.129
  151POPC   H7X20205   4.989   7.058   3.049
  151POPC   H7Y20206   4.874   6.942   3.125
  151POPC   C3820207   4.978   7.068   3.266
  151POPC   H8X20208   5.062   6.997   3.276
  151POPC   H8Y20209   4.904   7.044   3.346
  151POPC   C3920210   5.033   7.210   3.288
  151POPC   H9X20211   4.948   7.282   3.292
  151POPC   H9Y20212   5.097   7.237   3.202
  151POPC  C31020213   5.114   7.223   3.418
  151POPC  H10X20214   5.166   7.321   3.418
  151POPC  H10Y20215   5.192   7.143   3.420
  151POPC  C31120216   5.027   7.214   3.544
  151POPC  H11X20217   4.973   7.117   3.546
  151POPC  H11Y20218   4.952   7.295   3.541
  151POPC  C31220219   5.108   7.229   3.674
  151POPC  H12X20220   5.170   7.321   3.667
  151POPC  H12Y20221   5.177   7.142   3.683
  151POPC  C31320222   5.020   7.238   3.800
  151POPC  H13X20223   4.955   7.328   3.793
  151POPC  H13Y20224   5.086   7.251   3.888
  151POPC  C31420225   4.932   7.113   3.821
  151POPC  H14X20226   4.997   7.023   3.809
  151POPC  H14Y20227   4.854   7.109   3.742
  151POPC  C31520228   4.866   7.107   3.959
  151POPC  H15X20229   4.945   7.118   4.037
  151POPC  H15Y20230   4.821   7.005   3.972
  151POPC  C31620231   4.756   7.211   3.981
  151POPC  H16X20232   4.676   7.200   3.906
  151POPC  H16Y20233   4.798   7.314   3.974
  151POPC  H16Z20234   4.711   7.199   4.082
  152POPC     N20235   2.590   5.103   2.174
  152POPC   C1220236   2.473   5.007   2.190
  152POPC  H12A20237   2.478   4.931   2.112
  152POPC  H12B20238   2.381   5.063   2.179
  152POPC   C1320239   2.717   5.033   2.208
  152POPC  H13A20240   2.727   4.944   2.147
  152POPC  H13B20241   2.802   5.097   2.193
  152POPC  H13C20242   2.710   5.003   2.312
  152POPC   C1420243   2.598   5.154   2.034
  152POPC  H14A20244   2.514   5.218   2.011
  152POPC  H14B20245   2.688   5.214   2.021
  152POPC  H14C20246   2.602   5.072   1.963
  152POPC   C1520247   2.570   5.220   2.265
  152POPC  H15A20248   2.465   5.252   2.268
  152POPC  H15B20249   2.631   5.304   2.241
  152POPC  H15C20250   2.585   5.189   2.369
  152POPC   C1120251   2.459   4.930   2.323
  152POPC  H11A20252   2.547   4.862   2.336
  152POPC  H11B20253   2.369   4.865   2.320
  152POPC     P20254   2.324   5.098   2.475
  152POPC   O1320255   2.212   5.059   2.386
  152POPC   O1420256   2.363   5.241   2.474
  152POPC   O1220257   2.454   5.017   2.434
  152POPC   O1120258   2.300   5.039   2.620
  152POPC    C120259   2.272   4.898   2.630
  152POPC    HA20260   2.341   4.836   2.567
  152POPC    HB20261   2.168   4.879   2.594
  152POPC    C220262   2.282   4.844   2.776
  152POPC    HS20263   2.219   4.752   2.785
  152POPC   O2120264   2.242   4.944   2.871
  152POPC   C2120265   2.115   4.973   2.855
  152POPC   O2220266   2.031   4.902   2.803
  152POPC   C2220267   2.085   5.109   2.912
  152POPC   H2R20268   2.038   5.168   2.830
  152POPC   H2S20269   2.180   5.157   2.941
  152POPC    C320270   2.424   4.802   2.814
  152POPC    HX20271   2.493   4.887   2.789
  152POPC    HY20272   2.449   4.716   2.749
  152POPC   O3120273   2.426   4.763   2.954
  152POPC   C3120274   2.502   4.836   3.034
  152POPC   O3220275   2.597   4.904   3.001
  152POPC   C3220276   2.455   4.823   3.179
  152POPC   H2X20277   2.505   4.736   3.226
  152POPC   H2Y20278   2.346   4.804   3.178
  152POPC   C2320279   1.985   5.097   3.029
  152POPC   H3R20280   1.892   5.046   2.994
  152POPC   H3S20281   1.956   5.200   3.060
  152POPC   C2420282   2.043   5.022   3.148
  152POPC   H4R20283   2.142   5.065   3.174
  152POPC   H4S20284   2.060   4.916   3.120
  152POPC   C2520285   1.949   5.029   3.269
  152POPC   H5R20286   1.858   4.968   3.249
  152POPC   H5S20287   1.915   5.134   3.284
  152POPC   C2620288   2.015   4.981   3.398
  152POPC   H6R20289   1.939   4.989   3.478
  152POPC   H6S20290   2.099   5.049   3.426
  152POPC   C2720291   2.068   4.837   3.390
  152POPC   H7R20292   2.147   4.831   3.312
  152POPC   H7S20293   1.986   4.770   3.354
  152POPC   C2820294   2.124   4.785   3.523
  152POPC   H8R20295   2.209   4.848   3.558
  152POPC   H8S20296   2.163   4.682   3.509
  152POPC   C2920297   2.011   4.784   3.621
  152POPC   H9120298   1.921   4.734   3.583
  152POPC  C21020299   2.005   4.837   3.745
  152POPC  H10120300   1.911   4.828   3.801
  152POPC  C21120301   2.113   4.911   3.816
  152POPC  H11R20302   2.209   4.854   3.818
  152POPC  H11S20303   2.083   4.927   3.922
  152POPC  C21220304   2.138   5.047   3.749
  152POPC  H12R20305   2.046   5.091   3.705
  152POPC  H12S20306   2.210   5.031   3.667
  152POPC  C21320307   2.194   5.147   3.848
  152POPC  H13R20308   2.243   5.230   3.794
  152POPC  H13S20309   2.270   5.096   3.911
  152POPC  C21420310   2.085   5.210   3.933
  152POPC  H14R20311   2.022   5.133   3.984
  152POPC  H14S20312   2.017   5.269   3.868
  152POPC  C21520313   2.150   5.302   4.034
  152POPC  H15R20314   2.075   5.369   4.080
  152POPC  H15S20315   2.221   5.363   3.974
  152POPC  C21620316   2.228   5.231   4.143
  152POPC  H16R20317   2.262   5.305   4.219
  152POPC  H16S20318   2.320   5.184   4.102
  152POPC  C21720319   2.146   5.122   4.212
  152POPC  H17R20320   2.144   5.031   4.148
  152POPC  H17S20321   2.041   5.154   4.227
  152POPC  C21820322   2.208   5.089   4.346
  152POPC  H18R20323   2.166   4.995   4.384
  152POPC  H18S20324   2.189   5.170   4.421
  152POPC  H18T20325   2.317   5.078   4.333
  152POPC   C3320326   2.487   4.951   3.259
  152POPC   H3X20327   2.448   5.039   3.203
  152POPC   H3Y20328   2.597   4.964   3.270
  152POPC   C3420329   2.422   4.949   3.397
  152POPC   H4X20330   2.466   4.872   3.463
  152POPC   H4Y20331   2.316   4.921   3.380
  152POPC   C3520332   2.419   5.087   3.464
  152POPC   H5X20333   2.325   5.095   3.522
  152POPC   H5Y20334   2.415   5.167   3.387
  152POPC   C3620335   2.534   5.109   3.561
  152POPC   H6X20336   2.630   5.116   3.506
  152POPC   H6Y20337   2.540   5.022   3.630
  152POPC   C3720338   2.510   5.237   3.643
  152POPC   H7X20339   2.417   5.225   3.701
  152POPC   H7Y20340   2.495   5.322   3.572
  152POPC   C3820341   2.623   5.272   3.740
  152POPC   H8X20342   2.602   5.373   3.781
  152POPC   H8Y20343   2.719   5.278   3.683
  152POPC   C3920344   2.638   5.175   3.858
  152POPC   H9X20345   2.615   5.070   3.828
  152POPC   H9Y20346   2.563   5.205   3.935
  152POPC  C31020347   2.779   5.177   3.919
  152POPC  H10X20348   2.817   5.277   3.894
  152POPC  H10Y20349   2.847   5.107   3.867
  152POPC  C31120350   2.781   5.153   4.071
  152POPC  H11X20351   2.694   5.205   4.117
  152POPC  H11Y20352   2.874   5.197   4.115
  152POPC  C31220353   2.776   5.004   4.105
  152POPC  H12X20354   2.871   4.957   4.069
  152POPC  H12Y20355   2.692   4.958   4.050
  152POPC  C31320356   2.759   4.974   4.255
  152POPC  H13X20357   2.835   5.029   4.314
  152POPC  H13Y20358   2.779   4.865   4.270
  152POPC  C31420359   2.617   5.003   4.307
  152POPC  H14X20360   2.543   4.949   4.244
  152POPC  H14Y20361   2.595   5.111   4.301
  152POPC  C31520362   2.601   4.957   4.452
  152POPC  H15X20363   2.671   5.014   4.513
  152POPC  H15Y20364   2.640   4.854   4.461
  152POPC  C31620365   2.464   4.976   4.517
  152POPC  H16X20366   2.432   5.082   4.508
  152POPC  H16Y20367   2.467   4.953   4.625
  152POPC  H16Z20368   2.387   4.912   4.469
  153POPC     N20369   6.801   5.514   2.355
  153POPC   C1220370   6.921   5.588   2.417
  153POPC  H12A20371   6.965   5.522   2.491
  153POPC  H12B20372   6.886   5.675   2.471
  153POPC   C1320373   6.747   5.598   2.244
  153POPC  H13A20374   6.667   5.548   2.191
  153POPC  H13B20375   6.712   5.694   2.281
  153POPC  H13C20376   6.827   5.617   2.173
  153POPC   C1420377   6.842   5.384   2.293
  153POPC  H14A20378   6.922   5.403   2.220
  153POPC  H14B20379   6.887   5.317   2.366
  153POPC  H14C20380   6.763   5.335   2.238
  153POPC   C1520381   6.703   5.490   2.465
  153POPC  H15A20382   6.758   5.473   2.558
  153POPC  H15B20383   6.637   5.574   2.488
  153POPC  H15C20384   6.640   5.405   2.444
  153POPC   C1120385   7.038   5.632   2.327
  153POPC  H11A20386   7.117   5.683   2.387
  153POPC  H11B20387   7.004   5.707   2.252
  153POPC     P20388   7.180   5.412   2.327
  153POPC   O1320389   7.313   5.467   2.354
  153POPC   O1420390   7.171   5.287   2.246
  153POPC   O1220391   7.090   5.521   2.257
  153POPC   O1120392   7.101   5.391   2.462
  153POPC    C120393   7.079   5.274   2.538
  153POPC    HA20394   7.168   5.255   2.601
  153POPC    HB20395   7.063   5.184   2.473
  153POPC    C220396   6.956   5.293   2.632
  153POPC    HS20397   6.864   5.294   2.570
  153POPC   O2120398   6.971   5.420   2.699
  153POPC   C2120399   6.896   5.455   2.803
  153POPC   O2220400   6.789   5.405   2.834
  153POPC   C2220401   6.975   5.563   2.878
  153POPC   H2R20402   7.046   5.610   2.806
  153POPC   H2S20403   7.037   5.513   2.955
  153POPC    C320404   6.945   5.176   2.733
  153POPC    HX20405   6.951   5.080   2.677
  153POPC    HY20406   6.846   5.178   2.784
  153POPC   O3120407   7.058   5.184   2.821
  153POPC   C3120408   7.034   5.155   2.949
  153POPC   O3220409   6.927   5.125   2.997
  153POPC   C3220410   7.169   5.168   3.021
  153POPC   H2X20411   7.249   5.183   2.946
  153POPC   H2Y20412   7.188   5.071   3.071
  153POPC   C2320413   6.890   5.674   2.942
  153POPC   H3R20414   6.835   5.634   3.030
  153POPC   H3S20415   6.815   5.711   2.869
  153POPC   C2420416   6.979   5.792   2.983
  153POPC   H4R20417   6.919   5.879   3.018
  153POPC   H4S20418   7.035   5.829   2.894
  153POPC   C2520419   7.081   5.758   3.093
  153POPC   H5R20420   7.138   5.851   3.115
  153POPC   H5S20421   7.155   5.684   3.056
  153POPC   C2620422   7.024   5.713   3.228
  153POPC   H6R20423   6.992   5.607   3.222
  153POPC   H6S20424   6.937   5.775   3.258
  153POPC   C2720425   7.137   5.730   3.331
  153POPC   H7R20426   7.155   5.837   3.351
  153POPC   H7S20427   7.228   5.692   3.280
  153POPC   C2820428   7.121   5.653   3.463
  153POPC   H8R20429   7.214   5.666   3.522
  153POPC   H8S20430   7.114   5.545   3.438
  153POPC   C2920431   7.005   5.702   3.546
  153POPC   H9120432   6.999   5.811   3.562
  153POPC  C21020433   6.913   5.621   3.601
  153POPC  H10120434   6.833   5.664   3.663
  153POPC  C21120435   6.915   5.472   3.588
  153POPC  H11R20436   7.019   5.433   3.599
  153POPC  H11S20437   6.880   5.441   3.486
  153POPC  C21220438   6.828   5.401   3.693
  153POPC  H12R20439   6.857   5.434   3.795
  153POPC  H12S20440   6.848   5.292   3.687
  153POPC  C21320441   6.679   5.425   3.667
  153POPC  H13R20442   6.658   5.392   3.562
  153POPC  H13S20443   6.654   5.533   3.673
  153POPC  C21420444   6.590   5.346   3.761
  153POPC  H14R20445   6.624   5.241   3.764
  153POPC  H14S20446   6.487   5.345   3.720
  153POPC  C21520447   6.588   5.394   3.907
  153POPC  H15R20448   6.682   5.362   3.956
  153POPC  H15S20449   6.504   5.340   3.958
  153POPC  C21620450   6.571   5.545   3.931
  153POPC  H16R20451   6.495   5.588   3.863
  153POPC  H16S20452   6.668   5.596   3.911
  153POPC  C21720453   6.528   5.569   4.076
  153POPC  H17R20454   6.593   5.503   4.136
  153POPC  H17S20455   6.424   5.533   4.089
  153POPC  C21820456   6.542   5.710   4.132
  153POPC  H18R20457   6.490   5.718   4.230
  153POPC  H18S20458   6.496   5.784   4.063
  153POPC  H18T20459   6.649   5.735   4.149
  153POPC   C3320460   7.176   5.285   3.120
  153POPC   H3X20461   7.164   5.382   3.067
  153POPC   H3Y20462   7.279   5.284   3.164
  153POPC   C3420463   7.076   5.277   3.236
  153POPC   H4X20464   6.972   5.273   3.197
  153POPC   H4Y20465   7.085   5.368   3.299
  153POPC   C3520466   7.103   5.154   3.323
  153POPC   H5X20467   7.206   5.165   3.362
  153POPC   H5Y20468   7.098   5.063   3.260
  153POPC   C3620469   7.003   5.138   3.438
  153POPC   H6X20470   6.903   5.115   3.394
  153POPC   H6Y20471   6.995   5.235   3.491
  153POPC   C3720472   7.040   5.028   3.540
  153POPC   H7X20473   7.043   4.930   3.488
  153POPC   H7Y20474   6.959   5.023   3.616
  153POPC   C3820475   7.174   5.050   3.613
  153POPC   H8X20476   7.257   5.072   3.543
  153POPC   H8Y20477   7.200   4.956   3.666
  153POPC   C3920478   7.162   5.162   3.716
  153POPC   H9X20479   7.078   5.132   3.783
  153POPC   H9Y20480   7.134   5.258   3.666
  153POPC  C31020481   7.287   5.186   3.801
  153POPC  H10X20482   7.347   5.267   3.756
  153POPC  H10Y20483   7.349   5.094   3.799
  153POPC  C31120484   7.250   5.222   3.947
  153POPC  H11X20485   7.343   5.254   4.000
  153POPC  H11Y20486   7.210   5.133   3.999
  153POPC  C31220487   7.147   5.336   3.950
  153POPC  H12X20488   7.053   5.307   3.899
  153POPC  H12Y20489   7.192   5.419   3.892
  153POPC  C31320490   7.106   5.386   4.090
  153POPC  H13X20491   7.196   5.391   4.156
  153POPC  H13Y20492   7.036   5.312   4.135
  153POPC  C31420493   7.038   5.523   4.085
  153POPC  H14X20494   7.013   5.552   4.189
  153POPC  H14Y20495   6.941   5.515   4.030
  153POPC  C31520496   7.121   5.636   4.020
  153POPC  H15X20497   7.070   5.733   4.039
  153POPC  H15Y20498   7.123   5.621   3.910
  153POPC  C31620499   7.265   5.644   4.071
  153POPC  H16X20500   7.322   5.553   4.044
  153POPC  H16Y20501   7.265   5.653   4.182
  153POPC  H16Z20502   7.318   5.732   4.028
  154POPC     N20503   2.452   3.601   2.258
  154POPC   C1220504   2.513   3.705   2.350
  154POPC  H12A20505   2.442   3.736   2.426
  154POPC  H12B20506   2.534   3.792   2.288
  154POPC   C1320507   2.508   3.616   2.121
  154POPC  H13A20508   2.481   3.709   2.073
  154POPC  H13B20509   2.618   3.618   2.124
  154POPC  H13C20510   2.480   3.536   2.053
  154POPC   C1420511   2.491   3.463   2.300
  154POPC  H14A20512   2.600   3.457   2.299
  154POPC  H14B20513   2.459   3.442   2.400
  154POPC  H14C20514   2.452   3.388   2.233
  154POPC   C1520515   2.304   3.615   2.254
  154POPC  H15A20516   2.260   3.544   2.185
  154POPC  H15B20517   2.271   3.714   2.220
  154POPC  H15C20518   2.260   3.599   2.351
  154POPC   C1120519   2.644   3.666   2.420
  154POPC  H11A20520   2.626   3.583   2.492
  154POPC  H11B20521   2.679   3.755   2.478
  154POPC     P20522   2.890   3.610   2.367
  154POPC   O1320523   2.935   3.725   2.449
  154POPC   O1420524   2.971   3.570   2.251
  154POPC   O1220525   2.739   3.627   2.323
  154POPC   O1120526   2.870   3.480   2.455
  154POPC    C120527   2.978   3.420   2.526
  154POPC    HA20528   3.077   3.465   2.498
  154POPC    HB20529   2.982   3.312   2.502
  154POPC    C220530   2.961   3.435   2.679
  154POPC    HS20531   2.917   3.340   2.717
  154POPC   O2120532   2.879   3.551   2.706
  154POPC   C2120533   2.766   3.529   2.770
  154POPC   O2220534   2.732   3.422   2.819
  154POPC   C2220535   2.682   3.657   2.772
  154POPC   H2R20536   2.601   3.640   2.698
  154POPC   H2S20537   2.743   3.743   2.739
  154POPC    C320538   3.099   3.451   2.747
  154POPC    HX20539   3.147   3.545   2.711
  154POPC    HY20540   3.164   3.367   2.714
  154POPC   O3120541   3.086   3.444   2.891
  154POPC   C3120542   3.049   3.560   2.943
  154POPC   O3220543   3.051   3.667   2.885
  154POPC   C3220544   2.994   3.541   3.082
  154POPC   H2X20545   3.070   3.484   3.140
  154POPC   H2Y20546   2.900   3.482   3.077
  154POPC   C2320547   2.616   3.683   2.910
  154POPC   H3R20548   2.682   3.749   2.970
  154POPC   H3S20549   2.605   3.587   2.966
  154POPC   C2420550   2.476   3.743   2.896
  154POPC   H4R20551   2.422   3.694   2.813
  154POPC   H4S20552   2.486   3.851   2.871
  154POPC   C2520553   2.392   3.730   3.023
  154POPC   H5R20554   2.390   3.623   3.054
  154POPC   H5S20555   2.287   3.761   3.002
  154POPC   C2620556   2.447   3.815   3.137
  154POPC   H6R20557   2.436   3.923   3.109
  154POPC   H6S20558   2.555   3.796   3.152
  154POPC   C2720559   2.375   3.791   3.270
  154POPC   H7R20560   2.418   3.702   3.322
  154POPC   H7S20561   2.268   3.769   3.249
  154POPC   C2820562   2.381   3.914   3.362
  154POPC   H8R20563   2.320   3.895   3.452
  154POPC   H8S20564   2.332   3.998   3.306
  154POPC   C2920565   2.522   3.955   3.395
  154POPC   H9120566   2.582   3.986   3.309
  154POPC  C21020567   2.579   3.956   3.516
  154POPC  H10120568   2.685   3.981   3.526
  154POPC  C21120569   2.513   3.916   3.645
  154POPC  H11R20570   2.406   3.945   3.646
  154POPC  H11S20571   2.561   3.968   3.730
  154POPC  C21220572   2.525   3.764   3.661
  154POPC  H12R20573   2.632   3.736   3.672
  154POPC  H12S20574   2.486   3.714   3.569
  154POPC  C21320575   2.447   3.708   3.779
  154POPC  H13R20576   2.468   3.599   3.788
  154POPC  H13S20577   2.339   3.718   3.756
  154POPC  C21420578   2.478   3.776   3.914
  154POPC  H14R20579   2.424   3.718   3.993
  154POPC  H14S20580   2.436   3.878   3.913
  154POPC  C21520581   2.627   3.783   3.950
  154POPC  H15R20582   2.678   3.858   3.885
  154POPC  H15S20583   2.673   3.684   3.931
  154POPC  C21620584   2.645   3.822   4.097
  154POPC  H16R20585   2.585   3.754   4.161
  154POPC  H16S20586   2.601   3.923   4.110
  154POPC  C21720587   2.788   3.832   4.153
  154POPC  H17R20588   2.772   3.831   4.262
  154POPC  H17S20589   2.828   3.932   4.125
  154POPC  C21820590   2.893   3.725   4.123
  154POPC  H18R20591   2.994   3.762   4.153
  154POPC  H18S20592   2.895   3.698   4.016
  154POPC  H18T20593   2.873   3.636   4.185
  154POPC   C3320594   2.968   3.680   3.140
  154POPC   H3X20595   2.889   3.734   3.082
  154POPC   H3Y20596   3.061   3.740   3.131
  154POPC   C3420597   2.927   3.677   3.287
  154POPC   H4X20598   2.823   3.638   3.293
  154POPC   H4Y20599   2.927   3.782   3.326
  154POPC   C3520600   3.019   3.591   3.373
  154POPC   H5X20601   3.125   3.608   3.346
  154POPC   H5Y20602   3.001   3.484   3.350
  154POPC   C3620603   3.000   3.618   3.522
  154POPC   H6X20604   3.037   3.720   3.545
  154POPC   H6Y20605   3.060   3.546   3.582
  154POPC   C3720606   2.854   3.606   3.565
  154POPC   H7X20607   2.791   3.675   3.505
  154POPC   H7Y20608   2.843   3.637   3.671
  154POPC   C3820609   2.805   3.461   3.549
  154POPC   H8X20610   2.821   3.413   3.647
  154POPC   H8Y20611   2.867   3.403   3.478
  154POPC   C3920612   2.660   3.451   3.502
  154POPC   H9X20613   2.657   3.434   3.392
  154POPC   H9Y20614   2.608   3.547   3.520
  154POPC  C31020615   2.582   3.341   3.575
  154POPC  H10X20616   2.623   3.241   3.547
  154POPC  H10Y20617   2.477   3.344   3.541
  154POPC  C31120618   2.584   3.358   3.728
  154POPC  H11X20619   2.480   3.355   3.766
  154POPC  H11Y20620   2.625   3.458   3.753
  154POPC  C31220621   2.665   3.249   3.799
  154POPC  H12X20622   2.770   3.246   3.763
  154POPC  H12Y20623   2.619   3.151   3.775
  154POPC  C31320624   2.664   3.269   3.951
  154POPC  H13X20625   2.689   3.172   4.000
  154POPC  H13Y20626   2.560   3.296   3.981
  154POPC  C31420627   2.762   3.374   4.003
  154POPC  H14X20628   2.744   3.472   3.953
  154POPC  H14Y20629   2.866   3.344   3.978
  154POPC  C31520630   2.748   3.391   4.155
  154POPC  H15X20631   2.835   3.448   4.193
  154POPC  H15Y20632   2.754   3.291   4.203
  154POPC  C31620633   2.617   3.459   4.195
  154POPC  H16X20634   2.602   3.551   4.135
  154POPC  H16Y20635   2.618   3.487   4.303
  154POPC  H16Z20636   2.530   3.393   4.177
  155POPC     N20637   6.907   3.926   2.160
  155POPC   C1220638   7.021   4.025   2.142
  155POPC  H12A20639   6.976   4.120   2.118
  155POPC  H12B20640   7.086   3.991   2.062
  155POPC   C1320641   6.807   3.998   2.244
  155POPC  H13A20642   6.861   4.037   2.330
  155POPC  H13B20643   6.765   4.084   2.192
  155POPC  H13C20644   6.730   3.932   2.278
  155POPC   C1420645   6.841   3.886   2.033
  155POPC  H14A20646   6.768   3.806   2.045
  155POPC  H14B20647   6.790   3.971   1.990
  155POPC  H14C20648   6.912   3.851   1.959
  155POPC   C1520649   6.961   3.805   2.228
  155POPC  H15A20650   6.884   3.735   2.255
  155POPC  H15B20651   7.010   3.836   2.320
  155POPC  H15C20652   7.037   3.758   2.168
  155POPC   C1120653   7.116   4.053   2.264
  155POPC  H11A20654   7.165   4.151   2.246
  155POPC  H11B20655   7.196   3.976   2.263
  155POPC     P20656   7.100   3.976   2.514
  155POPC   O1320657   7.215   4.047   2.573
  155POPC   O1420658   7.121   3.837   2.466
  155POPC   O1220659   7.048   4.058   2.390
  155POPC   O1120660   6.975   3.980   2.611
  155POPC    C120661   6.843   4.014   2.565
  155POPC    HA20662   6.798   3.929   2.511
  155POPC    HB20663   6.846   4.103   2.498
  155POPC    C220664   6.748   4.057   2.681
  155POPC    HS20665   6.668   4.123   2.640
  155POPC   O2120666   6.821   4.128   2.781
  155POPC   C2120667   6.884   4.237   2.740
  155POPC   O2220668   6.859   4.302   2.639
  155POPC   C2220669   6.987   4.276   2.846
  155POPC   H2R20670   6.988   4.387   2.852
  155POPC   H2S20671   7.085   4.240   2.811
  155POPC    C320672   6.677   3.936   2.750
  155POPC    HX20673   6.597   3.901   2.681
  155POPC    HY20674   6.626   3.971   2.843
  155POPC   O3120675   6.766   3.825   2.774
  155POPC   C3120676   6.835   3.832   2.889
  155POPC   O3220677   6.807   3.904   2.983
  155POPC   C3220678   6.954   3.735   2.886
  155POPC   H2X20679   7.041   3.797   2.857
  155POPC   H2Y20680   6.939   3.659   2.807
  155POPC   C2320681   6.952   4.214   2.983
  155POPC   H3R20682   6.966   4.104   2.980
  155POPC   H3S20683   6.844   4.232   3.005
  155POPC   C2420684   7.034   4.272   3.098
  155POPC   H4R20685   7.039   4.382   3.086
  155POPC   H4S20686   7.137   4.231   3.092
  155POPC   C2520687   6.973   4.241   3.235
  155POPC   H5R20688   6.884   4.306   3.253
  155POPC   H5S20689   7.046   4.265   3.315
  155POPC   C2620690   6.928   4.097   3.256
  155POPC   H6R20691   7.017   4.030   3.247
  155POPC   H6S20692   6.854   4.065   3.179
  155POPC   C2720693   6.865   4.081   3.395
  155POPC   H7R20694   6.759   4.114   3.393
  155POPC   H7S20695   6.919   4.147   3.466
  155POPC   C2820696   6.877   3.938   3.448
  155POPC   H8R20697   6.834   3.941   3.550
  155POPC   H8S20698   6.984   3.911   3.459
  155POPC   C2920699   6.807   3.837   3.360
  155POPC   H9120700   6.859   3.812   3.266
  155POPC  C21020701   6.688   3.780   3.386
  155POPC  H10120702   6.648   3.707   3.314
  155POPC  C21120703   6.602   3.807   3.507
  155POPC  H11R20704   6.497   3.791   3.477
  155POPC  H11S20705   6.612   3.914   3.538
  155POPC  C21220706   6.625   3.720   3.632
  155POPC  H12R20707   6.598   3.615   3.607
  155POPC  H12S20708   6.557   3.755   3.712
  155POPC  C21320709   6.769   3.726   3.684
  155POPC  H13R20710   6.792   3.829   3.718
  155POPC  H13S20711   6.837   3.702   3.599
  155POPC  C21420712   6.804   3.628   3.797
  155POPC  H14R20713   6.767   3.527   3.768
  155POPC  H14S20714   6.751   3.655   3.890
  155POPC  C21520715   6.956   3.622   3.816
  155POPC  H15R20716   7.002   3.605   3.715
  155POPC  H15S20717   6.983   3.534   3.877
  155POPC  C21620718   7.023   3.747   3.877
  155POPC  H16R20719   6.952   3.833   3.875
  155POPC  H16S20720   7.111   3.773   3.814
  155POPC  C21720721   7.073   3.727   4.021
  155POPC  H17R20722   7.119   3.626   4.031
  155POPC  H17S20723   6.984   3.729   4.087
  155POPC  C21820724   7.175   3.831   4.068
  155POPC  H18R20725   7.159   3.855   4.176
  155POPC  H18S20726   7.166   3.925   4.010
  155POPC  H18T20727   7.279   3.792   4.057
  155POPC   C3320728   6.980   3.668   3.024
  155POPC   H3X20729   6.893   3.604   3.051
  155POPC   H3Y20730   6.988   3.748   3.101
  155POPC   C3420731   7.108   3.583   3.031
  155POPC   H4X20732   7.095   3.492   2.968
  155POPC   H4Y20733   7.122   3.548   3.136
  155POPC   C3520734   7.237   3.653   2.986
  155POPC   H5X20735   7.237   3.663   2.875
  155POPC   H5Y20736   7.321   3.585   3.012
  155POPC   C3620737   7.265   3.790   3.049
  155POPC   H6X20738   7.190   3.864   3.013
  155POPC   H6Y20739   7.365   3.825   3.013
  155POPC   C3720740   7.266   3.788   3.202
  155POPC   H7X20741   7.335   3.709   3.238
  155POPC   H7Y20742   7.165   3.764   3.240
  155POPC   C3820743   7.311   3.922   3.261
  155POPC   H8X20744   7.233   3.998   3.238
  155POPC   H8Y20745   7.405   3.957   3.212
  155POPC   C3920746   7.332   3.915   3.413
  155POPC   H9X20747   7.424   3.858   3.437
  155POPC   H9Y20748   7.246   3.856   3.453
  155POPC  C31020749   7.335   4.054   3.477
  155POPC  H10X20750   7.285   4.124   3.406
  155POPC  H10Y20751   7.439   4.089   3.491
  155POPC  C31120752   7.256   4.060   3.609
  155POPC  H11X20753   7.321   4.031   3.695
  155POPC  H11Y20754   7.174   3.985   3.603
  155POPC  C31220755   7.193   4.198   3.631
  155POPC  H12X20756   7.132   4.223   3.542
  155POPC  H12Y20757   7.274   4.275   3.638
  155POPC  C31320758   7.102   4.211   3.755
  155POPC  H13X20759   7.052   4.309   3.749
  155POPC  H13Y20760   7.165   4.211   3.847
  155POPC  C31420761   6.997   4.099   3.769
  155POPC  H14X20762   7.030   4.030   3.849
  155POPC  H14Y20763   6.991   4.041   3.675
  155POPC  C31520764   6.853   4.146   3.798
  155POPC  H15X20765   6.794   4.057   3.831
  155POPC  H15Y20766   6.807   4.181   3.703
  155POPC  C31620767   6.839   4.257   3.901
  155POPC  H16X20768   6.927   4.263   3.969
  155POPC  H16Y20769   6.747   4.247   3.961
  155POPC  H16Z20770   6.834   4.352   3.844
  156POPC     N20771   2.949   2.823   2.190
  156POPC   C1220772   2.958   2.908   2.315
  156POPC  H12A20773   2.959   2.842   2.401
  156POPC  H12B20774   2.870   2.970   2.325
  156POPC   C1320775   2.994   2.901   2.070
  156POPC  H13A20776   3.095   2.938   2.091
  156POPC  H13B20777   2.999   2.839   1.982
  156POPC  H13C20778   2.933   2.987   2.048
  156POPC   C1420779   3.046   2.709   2.201
  156POPC  H14A20780   3.029   2.651   2.291
  156POPC  H14B20781   3.044   2.647   2.112
  156POPC  H14C20782   3.146   2.752   2.211
  156POPC   C1520783   2.808   2.774   2.174
  156POPC  H15A20784   2.800   2.717   2.082
  156POPC  H15B20785   2.739   2.858   2.166
  156POPC  H15C20786   2.775   2.712   2.257
  156POPC   C1120787   3.082   3.000   2.330
  156POPC  H11A20788   3.071   3.052   2.429
  156POPC  H11B20789   3.080   3.080   2.253
  156POPC     P20790   3.313   2.938   2.429
  156POPC   O1320791   3.317   3.079   2.474
  156POPC   O1420792   3.440   2.884   2.373
  156POPC   O1220793   3.202   2.924   2.318
  156POPC   O1120794   3.260   2.847   2.549
  156POPC    C120795   3.166   2.740   2.543
  156POPC    HA20796   3.178   2.684   2.448
  156POPC    HB20797   3.063   2.781   2.549
  156POPC    C220798   3.180   2.635   2.660
  156POPC    HS20799   3.112   2.550   2.634
  156POPC   O2120800   3.141   2.691   2.788
  156POPC   C2120801   3.117   2.602   2.886
  156POPC   O2220802   3.118   2.482   2.871
  156POPC   C2220803   3.073   2.679   3.013
  156POPC   H2R20804   2.982   2.630   3.053
  156POPC   H2S20805   3.044   2.781   2.981
  156POPC    C320806   3.326   2.580   2.667
  156POPC    HX20807   3.340   2.529   2.569
  156POPC    HY20808   3.336   2.503   2.747
  156POPC   O3120809   3.424   2.685   2.677
  156POPC   C3120810   3.426   2.739   2.800
  156POPC   O3220811   3.417   2.672   2.902
  156POPC   C3220812   3.439   2.891   2.794
  156POPC   H2X20813   3.372   2.931   2.717
  156POPC   H2Y20814   3.541   2.915   2.762
  156POPC   C2320815   3.179   2.694   3.125
  156POPC   H3R20816   3.161   2.793   3.175
  156POPC   H3S20817   3.282   2.698   3.086
  156POPC   C2420818   3.172   2.589   3.237
  156POPC   H4R20819   3.205   2.490   3.198
  156POPC   H4S20820   3.065   2.580   3.266
  156POPC   C2520821   3.253   2.630   3.361
  156POPC   H5R20822   3.186   2.661   3.443
  156POPC   H5S20823   3.313   2.719   3.332
  156POPC   C2620824   3.349   2.522   3.412
  156POPC   H6R20825   3.404   2.479   3.326
  156POPC   H6S20826   3.290   2.441   3.459
  156POPC   C2720827   3.454   2.578   3.509
  156POPC   H7R20828   3.405   2.648   3.581
  156POPC   H7S20829   3.526   2.637   3.447
  156POPC   C2820830   3.536   2.475   3.587
  156POPC   H8R20831   3.611   2.532   3.646
  156POPC   H8S20832   3.594   2.413   3.516
  156POPC   C2920833   3.450   2.389   3.676
  156POPC   H9120834   3.365   2.343   3.625
  156POPC  C21020835   3.466   2.369   3.808
  156POPC  H10120836   3.394   2.308   3.864
  156POPC  C21120837   3.577   2.430   3.888
  156POPC  H11R20838   3.670   2.440   3.828
  156POPC  H11S20839   3.603   2.366   3.975
  156POPC  C21220840   3.530   2.570   3.932
  156POPC  H12R20841   3.472   2.622   3.853
  156POPC  H12S20842   3.618   2.633   3.949
  156POPC  C21320843   3.454   2.571   4.065
  156POPC  H13R20844   3.359   2.513   4.055
  156POPC  H13S20845   3.428   2.677   4.087
  156POPC  C21420846   3.539   2.515   4.179
  156POPC  H14R20847   3.646   2.523   4.149
  156POPC  H14S20848   3.518   2.407   4.195
  156POPC  C21520849   3.525   2.594   4.309
  156POPC  H15R20850   3.544   2.701   4.288
  156POPC  H15S20851   3.605   2.560   4.379
  156POPC  C21620852   3.391   2.582   4.380
  156POPC  H16R20853   3.376   2.477   4.414
  156POPC  H16S20854   3.308   2.607   4.311
  156POPC  C21720855   3.387   2.677   4.501
  156POPC  H17R20856   3.399   2.781   4.465
  156POPC  H17S20857   3.474   2.655   4.566
  156POPC  C21820858   3.259   2.665   4.582
  156POPC  H18R20859   3.267   2.722   4.677
  156POPC  H18S20860   3.239   2.558   4.607
  156POPC  H18T20861   3.173   2.705   4.525
  156POPC   C3320862   3.403   2.967   2.925
  156POPC   H3X20863   3.464   3.060   2.924
  156POPC   H3Y20864   3.430   2.910   3.016
  156POPC   C3420865   3.257   3.015   2.929
  156POPC   H4X20866   3.193   2.932   2.965
  156POPC   H4Y20867   3.225   3.041   2.826
  156POPC   C3520868   3.237   3.139   3.019
  156POPC   H5X20869   3.131   3.172   3.011
  156POPC   H5Y20870   3.301   3.222   2.981
  156POPC   C3620871   3.271   3.111   3.166
  156POPC   H6X20872   3.378   3.083   3.175
  156POPC   H6Y20873   3.210   3.023   3.197
  156POPC   C3720874   3.244   3.229   3.262
  156POPC   H7X20875   3.139   3.264   3.250
  156POPC   H7Y20876   3.311   3.313   3.232
  156POPC   C3820877   3.269   3.195   3.410
  156POPC   H8X20878   3.254   3.287   3.472
  156POPC   H8Y20879   3.375   3.169   3.421
  156POPC   C3920880   3.177   3.085   3.468
  156POPC   H9X20881   3.165   3.002   3.395
  156POPC   H9Y20882   3.077   3.129   3.485
  156POPC  C31020883   3.226   3.019   3.599
  156POPC  H10X20884   3.278   3.093   3.663
  156POPC  H10Y20885   3.299   2.939   3.572
  156POPC  C31120886   3.111   2.953   3.678
  156POPC  H11X20887   3.039   2.910   3.605
  156POPC  H11Y20888   3.057   3.032   3.735
  156POPC  C31220889   3.153   2.838   3.772
  156POPC  H12X20890   3.184   2.752   3.710
  156POPC  H12Y20891   3.064   2.806   3.830
  156POPC  C31320892   3.269   2.869   3.869
  156POPC  H13X20893   3.360   2.886   3.808
  156POPC  H13Y20894   3.288   2.779   3.932
  156POPC  C31420895   3.249   2.992   3.960
  156POPC  H14X20896   3.208   3.076   3.900
  156POPC  H14Y20897   3.350   3.023   3.996
  156POPC  C31520898   3.160   2.972   4.084
  156POPC  H15X20899   3.068   2.916   4.056
  156POPC  H15Y20900   3.126   3.072   4.118
  156POPC  C31620901   3.231   2.903   4.202
  156POPC  H16X20902   3.162   2.894   4.289
  156POPC  H16Y20903   3.319   2.963   4.235
  156POPC  H16Z20904   3.267   2.802   4.175
  157POPC     N20905   6.700   3.339   2.326
  157POPC   C1220906   6.703   3.246   2.204
  157POPC  H12A20907   6.800   3.251   2.157
  157POPC  H12B20908   6.629   3.280   2.132
  157POPC   C1320909   6.565   3.343   2.392
  157POPC  H13A20910   6.492   3.395   2.333
  157POPC  H13B20911   6.530   3.240   2.408
  157POPC  H13C20912   6.572   3.388   2.490
  157POPC   C1420913   6.794   3.289   2.431
  157POPC  H14A20914   6.795   3.357   2.516
  157POPC  H14B20915   6.759   3.192   2.466
  157POPC  H14C20916   6.895   3.278   2.392
  157POPC   C1520917   6.737   3.478   2.286
  157POPC  H15A20918   6.669   3.519   2.212
  157POPC  H15B20919   6.838   3.481   2.246
  157POPC  H15C20920   6.733   3.540   2.375
  157POPC   C1120921   6.673   3.096   2.226
  157POPC  H11A20922   6.752   3.052   2.291
  157POPC  H11B20923   6.679   3.040   2.130
  157POPC     P20924   6.512   2.968   2.384
  157POPC   O1320925   6.523   2.836   2.319
  157POPC   O1420926   6.387   3.007   2.451
  157POPC   O1220927   6.541   3.083   2.278
  157POPC   O1120928   6.635   2.988   2.483
  157POPC    C120929   6.653   2.901   2.595
  157POPC    HA20930   6.701   2.806   2.563
  157POPC    HB20931   6.554   2.869   2.636
  157POPC    C220932   6.734   2.967   2.712
  157POPC    HS20933   6.739   2.893   2.795
  157POPC   O2120934   6.669   3.087   2.754
  157POPC   C2120935   6.549   3.072   2.805
  157POPC   O2220936   6.498   2.969   2.845
  157POPC   C2220937   6.486   3.210   2.810
  157POPC   H2R20938   6.379   3.203   2.784
  157POPC   H2S20939   6.535   3.275   2.735
  157POPC    C320940   6.881   3.012   2.682
  157POPC    HX20941   6.873   3.100   2.615
  157POPC    HY20942   6.941   2.940   2.625
  157POPC   O3120943   6.947   3.055   2.803
  157POPC   C3120944   7.026   2.973   2.873
  157POPC   O3220945   7.071   2.867   2.840
  157POPC   C3220946   7.043   3.027   3.013
  157POPC   H2X20947   7.097   3.124   3.004
  157POPC   H2Y20948   7.105   2.956   3.070
  157POPC   C2320949   6.504   3.271   2.950
  157POPC   H3R20950   6.602   3.244   2.995
  157POPC   H3S20951   6.424   3.229   3.015
  157POPC   C2420952   6.496   3.423   2.945
  157POPC   H4R20953   6.398   3.448   2.900
  157POPC   H4S20954   6.575   3.462   2.878
  157POPC   C2520955   6.513   3.490   3.083
  157POPC   H5R20956   6.494   3.599   3.074
  157POPC   H5S20957   6.619   3.477   3.114
  157POPC   C2620958   6.424   3.433   3.194
  157POPC   H6R20959   6.428   3.322   3.195
  157POPC   H6S20960   6.318   3.463   3.177
  157POPC   C2720961   6.470   3.481   3.332
  157POPC   H7R20962   6.467   3.592   3.333
  157POPC   H7S20963   6.575   3.449   3.350
  157POPC   C2820964   6.380   3.430   3.446
  157POPC   H8R20965   6.276   3.460   3.424
  157POPC   H8S20966   6.414   3.489   3.533
  157POPC   C2920967   6.382   3.281   3.472
  157POPC   H9120968   6.343   3.218   3.391
  157POPC  C21020969   6.426   3.222   3.584
  157POPC  H10120970   6.422   3.112   3.594
  157POPC  C21120971   6.481   3.294   3.704
  157POPC  H11R20972   6.458   3.402   3.704
  157POPC  H11S20973   6.591   3.293   3.702
  157POPC  C21220974   6.433   3.241   3.839
  157POPC  H12R20975   6.435   3.131   3.843
  157POPC  H12S20976   6.327   3.271   3.853
  157POPC  C21320977   6.519   3.297   3.951
  157POPC  H13R20978   6.519   3.408   3.941
  157POPC  H13S20979   6.625   3.265   3.942
  157POPC  C21420980   6.463   3.258   4.088
  157POPC  H14R20981   6.511   3.166   4.126
  157POPC  H14S20982   6.354   3.238   4.075
  157POPC  C21520983   6.479   3.371   4.188
  157POPC  H15R20984   6.402   3.365   4.268
  157POPC  H15S20985   6.470   3.468   4.134
  157POPC  C21620986   6.616   3.374   4.250
  157POPC  H16R20987   6.695   3.368   4.173
  157POPC  H16S20988   6.622   3.286   4.316
  157POPC  C21720989   6.635   3.500   4.333
  157POPC  H17R20990   6.677   3.477   4.433
  157POPC  H17S20991   6.539   3.548   4.352
  157POPC  C21820992   6.722   3.601   4.263
  157POPC  H18R20993   6.803   3.554   4.207
  157POPC  H18S20994   6.766   3.663   4.343
  157POPC  H18T20995   6.665   3.664   4.192
  157POPC   C3320996   6.904   3.042   3.078
  157POPC   H3X20997   6.853   2.943   3.083
  157POPC   H3Y20998   6.841   3.110   3.016
  157POPC   C3420999   6.912   3.101   3.218
  157POPC   H4X21000   6.957   3.027   3.288
  157POPC   H4Y21001   6.807   3.119   3.249
  157POPC   C3521002   6.994   3.231   3.224
  157POPC   H5X21003   6.954   3.303   3.149
  157POPC   H5Y21004   7.101   3.211   3.199
  157POPC   C3621005   6.992   3.297   3.362
  157POPC   H6X21006   7.047   3.394   3.358
  157POPC   H6Y21007   7.048   3.230   3.431
  157POPC   C3721008   6.849   3.319   3.414
  157POPC   H7X21009   6.795   3.222   3.419
  157POPC   H7Y21010   6.795   3.384   3.343
  157POPC   C3821011   6.841   3.377   3.556
  157POPC   H8X21012   6.736   3.371   3.588
  157POPC   H8Y21013   6.868   3.485   3.551
  157POPC   C3921014   6.934   3.308   3.659
  157POPC   H9X21015   6.919   3.354   3.758
  157POPC   H9Y21016   7.037   3.331   3.627
  157POPC  C31021017   6.923   3.155   3.673
  157POPC  H10X21018   7.019   3.117   3.713
  157POPC  H10Y21019   6.906   3.109   3.573
  157POPC  C31121020   6.811   3.111   3.768
  157POPC  H11X21021   6.720   3.157   3.727
  157POPC  H11Y21022   6.828   3.154   3.869
  157POPC  C31221023   6.779   2.961   3.781
  157POPC  H12X21024   6.853   2.910   3.846
  157POPC  H12Y21025   6.780   2.913   3.681
  157POPC  C31321026   6.637   2.952   3.840
  157POPC  H13X21027   6.574   3.010   3.770
  157POPC  H13Y21028   6.639   3.003   3.939
  157POPC  C31421029   6.567   2.816   3.853
  157POPC  H14X21030   6.615   2.754   3.932
  157POPC  H14Y21031   6.573   2.762   3.756
  157POPC  C31521032   6.417   2.835   3.886
  157POPC  H15X21033   6.364   2.738   3.885
  157POPC  H15Y21034   6.372   2.897   3.805
  157POPC  C31621035   6.389   2.906   4.019
  157POPC  H16X21036   6.285   2.945   4.021
  157POPC  H16Y21037   6.455   2.993   4.033
  157POPC  H16Z21038   6.405   2.838   4.105
  158POPC     N21039   4.279   2.259   2.300
  158POPC   C1221040   4.359   2.165   2.210
  158POPC  H12A21041   4.311   2.162   2.112
  158POPC  H12B21042   4.352   2.064   2.250
  158POPC   C1321043   4.300   2.212   2.439
  158POPC  H13A21044   4.256   2.281   2.509
  158POPC  H13B21045   4.260   2.113   2.458
  158POPC  H13C21046   4.408   2.206   2.456
  158POPC   C1421047   4.325   2.401   2.280
  158POPC  H14A21048   4.430   2.412   2.306
  158POPC  H14B21049   4.321   2.426   2.174
  158POPC  H14C21050   4.271   2.476   2.336
  158POPC   C1521051   4.134   2.255   2.267
  158POPC  H15A21052   4.090   2.160   2.291
  158POPC  H15B21053   4.123   2.271   2.160
  158POPC  H15C21054   4.080   2.335   2.318
  158POPC   C1121055   4.511   2.191   2.194
  158POPC  H11A21056   4.530   2.293   2.153
  158POPC  H11B21057   4.551   2.117   2.122
  158POPC     P21058   4.737   2.195   2.324
  158POPC   O1321059   4.799   2.177   2.191
  158POPC   O1421060   4.781   2.103   2.431
  158POPC   O1221061   4.578   2.177   2.318
  158POPC   O1121062   4.748   2.348   2.361
  158POPC    C121063   4.646   2.434   2.411
  158POPC    HA21064   4.546   2.387   2.411
  158POPC    HB21065   4.643   2.529   2.351
  158POPC    C221066   4.674   2.469   2.557
  158POPC    HS21067   4.780   2.497   2.557
  158POPC   O2121068   4.647   2.353   2.639
  158POPC   C2121069   4.749   2.273   2.653
  158POPC   O2221070   4.860   2.289   2.608
  158POPC   C2221071   4.712   2.164   2.751
  158POPC   H2R21072   4.671   2.077   2.696
  158POPC   H2S21073   4.640   2.202   2.825
  158POPC    C321074   4.593   2.589   2.613
  158POPC    HX21075   4.603   2.677   2.547
  158POPC    HY21076   4.636   2.619   2.712
  158POPC   O3121077   4.455   2.552   2.621
  158POPC   C3121078   4.427   2.485   2.733
  158POPC   O3221079   4.452   2.520   2.846
  158POPC   C3221080   4.360   2.354   2.691
  158POPC   H2X21081   4.428   2.310   2.616
  158POPC   H2Y21082   4.263   2.383   2.646
  158POPC   C2321083   4.847   2.141   2.818
  158POPC   H3R21084   4.883   2.241   2.855
  158POPC   H3S21085   4.922   2.106   2.743
  158POPC   C2421086   4.860   2.048   2.938
  158POPC   H4R21087   4.938   2.107   2.990
  158POPC   H4S21088   4.908   1.953   2.914
  158POPC   C2521089   4.743   2.017   3.031
  158POPC   H5R21090   4.697   1.918   3.005
  158POPC   H5S21091   4.662   2.091   3.018
  158POPC   C2621092   4.787   2.020   3.178
  158POPC   H6R21093   4.755   1.927   3.230
  158POPC   H6S21094   4.712   2.083   3.225
  158POPC   C2721095   4.939   2.046   3.212
  158POPC   H7R21096   5.002   1.994   3.136
  158POPC   H7S21097   4.961   1.983   3.301
  158POPC   C2821098   5.008   2.192   3.243
  158POPC   H8R21099   5.110   2.152   3.247
  158POPC   H8S21100   4.989   2.213   3.350
  158POPC   C2921101   5.028   2.325   3.160
  158POPC   H9121102   5.103   2.303   3.080
  158POPC  C21021103   4.990   2.463   3.176
  158POPC  H10121104   5.052   2.529   3.116
  158POPC  C21121105   4.890   2.557   3.261
  158POPC  H11R21106   4.836   2.500   3.333
  158POPC  H11S21107   4.818   2.549   3.182
  158POPC  C21221108   4.831   2.714   3.281
  158POPC  H12R21109   4.732   2.711   3.236
  158POPC  H12S21110   4.885   2.773   3.206
  158POPC  C21321111   4.814   2.812   3.416
  158POPC  H13R21112   4.850   2.903   3.361
  158POPC  H13S21113   4.902   2.795   3.480
  158POPC  C21421114   4.683   2.896   3.485
  158POPC  H14R21115   4.599   2.901   3.420
  158POPC  H14S21116   4.725   2.999   3.480
  158POPC  C21521117   4.596   2.919   3.627
  158POPC  H15R21118   4.496   2.951   3.590
  158POPC  H15S21119   4.631   3.011   3.675
  158POPC  C21621120   4.556   2.822   3.747
  158POPC  H16R21121   4.656   2.790   3.771
  158POPC  H16S21122   4.496   2.735   3.716
  158POPC  C21721123   4.543   2.846   3.902
  158POPC  H17R21124   4.451   2.895   3.936
  158POPC  H17S21125   4.622   2.916   3.934
  158POPC  C21821126   4.570   2.716   3.984
  158POPC  H18R21127   4.636   2.646   3.930
  158POPC  H18S21128   4.479   2.658   4.005
  158POPC  H18T21129   4.619   2.740   4.081
  158POPC   C3321130   4.346   2.246   2.800
  158POPC   H3X21131   4.444   2.225   2.846
  158POPC   H3Y21132   4.311   2.151   2.753
  158POPC   C3421133   4.250   2.292   2.908
  158POPC   H4X21134   4.168   2.351   2.863
  158POPC   H4Y21135   4.305   2.359   2.978
  158POPC   C3521136   4.187   2.178   2.986
  158POPC   H5X21137   4.266   2.113   3.032
  158POPC   H5Y21138   4.128   2.115   2.916
  158POPC   C3621139   4.100   2.237   3.096
  158POPC   H6X21140   4.015   2.172   3.124
  158POPC   H6Y21141   4.057   2.334   3.062
  158POPC   C3721142   4.188   2.258   3.218
  158POPC   H7X21143   4.282   2.310   3.189
  158POPC   H7Y21144   4.217   2.159   3.259
  158POPC   C3821145   4.119   2.342   3.323
  158POPC   H8X21146   4.030   2.291   3.363
  158POPC   H8Y21147   4.084   2.438   3.279
  158POPC   C3921148   4.219   2.371   3.433
  158POPC   H9X21149   4.165   2.422   3.514
  158POPC   H9Y21150   4.298   2.437   3.393
  158POPC  C31021151   4.285   2.249   3.495
  158POPC  H10X21152   4.355   2.197   3.426
  158POPC  H10Y21153   4.205   2.177   3.524
  158POPC  C31121154   4.360   2.294   3.620
  158POPC  H11X21155   4.293   2.364   3.674
  158POPC  H11Y21156   4.455   2.346   3.597
  158POPC  C31221157   4.379   2.180   3.716
  158POPC  H12X21158   4.466   2.117   3.688
  158POPC  H12Y21159   4.287   2.117   3.707
  158POPC  C31321160   4.389   2.233   3.858
  158POPC  H13X21161   4.302   2.298   3.884
  158POPC  H13Y21162   4.481   2.295   3.868
  158POPC  C31421163   4.395   2.116   3.953
  158POPC  H14X21164   4.417   2.152   4.056
  158POPC  H14Y21165   4.481   2.056   3.916
  158POPC  C31521166   4.273   2.026   3.955
  158POPC  H15X21167   4.232   2.002   3.854
  158POPC  H15Y21168   4.191   2.074   4.012
  158POPC  C31621169   4.312   1.894   4.017
  158POPC  H16X21170   4.223   1.830   4.035
  158POPC  H16Y21171   4.363   1.913   4.112
  158POPC  H16Z21172   4.384   1.840   3.952
  159POPC     N21173   5.501   2.141   2.203
  159POPC   C1221174   5.430   2.153   2.337
  159POPC  H12A21175   5.444   2.062   2.392
  159POPC  H12B21176   5.325   2.175   2.321
  159POPC   C1321177   5.469   2.017   2.124
  159POPC  H13A21178   5.515   2.022   2.025
  159POPC  H13B21179   5.514   1.928   2.169
  159POPC  H13C21180   5.363   2.004   2.112
  159POPC   C1421181   5.465   2.262   2.124
  159POPC  H14A21182   5.357   2.266   2.107
  159POPC  H14B21183   5.487   2.349   2.185
  159POPC  H14C21184   5.518   2.270   2.031
  159POPC   C1521185   5.648   2.140   2.230
  159POPC  H15A21186   5.674   2.051   2.288
  159POPC  H15B21187   5.674   2.227   2.289
  159POPC  H15C21188   5.705   2.144   2.138
  159POPC   C1121189   5.476   2.268   2.432
  159POPC  H11A21190   5.586   2.268   2.446
  159POPC  H11B21191   5.435   2.251   2.535
  159POPC     P21192   5.284   2.432   2.385
  159POPC   O1321193   5.220   2.346   2.282
  159POPC   O1421194   5.274   2.578   2.365
  159POPC   O1221195   5.438   2.395   2.381
  159POPC   O1121196   5.239   2.388   2.529
  159POPC    C121197   5.105   2.410   2.571
  159POPC    HA21198   5.078   2.323   2.634
  159POPC    HB21199   5.032   2.415   2.486
  159POPC    C221200   5.095   2.537   2.659
  159POPC    HS21201   5.142   2.618   2.598
  159POPC   O2121202   5.162   2.509   2.782
  159POPC   C2121203   5.274   2.573   2.799
  159POPC   O2221204   5.323   2.657   2.727
  159POPC   C2221205   5.320   2.548   2.942
  159POPC   H2R21206   5.228   2.546   3.004
  159POPC   H2S21207   5.382   2.635   2.971
  159POPC    C321208   4.954   2.592   2.697
  159POPC    HX21209   4.907   2.626   2.602
  159POPC    HY21210   4.971   2.688   2.749
  159POPC   O3121211   4.866   2.502   2.775
  159POPC   C3121212   4.849   2.535   2.905
  159POPC   O3221213   4.915   2.621   2.959
  159POPC   C3221214   4.717   2.479   2.970
  159POPC   H2X21215   4.661   2.450   2.880
  159POPC   H2Y21216   4.672   2.570   3.015
  159POPC   C2321217   5.396   2.416   2.964
  159POPC   H3R21218   5.497   2.420   2.917
  159POPC   H3S21219   5.340   2.332   2.918
  159POPC   C2421220   5.409   2.391   3.115
  159POPC   H4R21221   5.314   2.418   3.167
  159POPC   H4S21222   5.490   2.456   3.156
  159POPC   C2521223   5.439   2.245   3.145
  159POPC   H5R21224   5.527   2.216   3.083
  159POPC   H5S21225   5.354   2.180   3.114
  159POPC   C2621226   5.472   2.216   3.292
  159POPC   H6R21227   5.380   2.218   3.355
  159POPC   H6S21228   5.544   2.292   3.331
  159POPC   C2721229   5.537   2.078   3.295
  159POPC   H7R21230   5.614   2.078   3.216
  159POPC   H7S21231   5.458   2.007   3.261
  159POPC   C2821232   5.602   2.028   3.425
  159POPC   H8R21233   5.644   1.927   3.403
  159POPC   H8S21234   5.523   2.012   3.502
  159POPC   C2921235   5.715   2.114   3.474
  159POPC   H9121236   5.808   2.107   3.415
  159POPC  C21021237   5.708   2.196   3.580
  159POPC  H10121238   5.794   2.259   3.606
  159POPC  C21121239   5.583   2.212   3.665
  159POPC  H11R21240   5.494   2.203   3.599
  159POPC  H11S21241   5.578   2.315   3.706
  159POPC  C21221242   5.564   2.111   3.780
  159POPC  H12R21243   5.636   2.133   3.862
  159POPC  H12S21244   5.584   2.008   3.745
  159POPC  C21321245   5.420   2.121   3.834
  159POPC  H13R21246   5.350   2.125   3.747
  159POPC  H13S21247   5.418   2.218   3.886
  159POPC  C21421248   5.363   2.018   3.933
  159POPC  H14R21249   5.343   1.923   3.877
  159POPC  H14S21250   5.264   2.054   3.968
  159POPC  C21521251   5.451   1.990   4.056
  159POPC  H15R21252   5.543   1.941   4.018
  159POPC  H15S21253   5.400   1.916   4.122
  159POPC  C21621254   5.490   2.112   4.140
  159POPC  H16R21255   5.400   2.154   4.190
  159POPC  H16S21256   5.533   2.191   4.074
  159POPC  C21721257   5.593   2.078   4.248
  159POPC  H17R21258   5.670   2.013   4.201
  159POPC  H17S21259   5.544   2.018   4.328
  159POPC  C21821260   5.662   2.200   4.309
  159POPC  H18R21261   5.719   2.255   4.231
  159POPC  H18S21262   5.733   2.169   4.389
  159POPC  H18T21263   5.589   2.272   4.352
  159POPC   C3321264   4.695   2.359   3.077
  159POPC   H3X21265   4.773   2.283   3.063
  159POPC   H3Y21266   4.601   2.313   3.035
  159POPC   C3421267   4.652   2.378   3.231
  159POPC   H4X21268   4.545   2.347   3.234
  159POPC   H4Y21269   4.648   2.481   3.261
  159POPC   C3521270   4.722   2.290   3.346
  159POPC   H5X21271   4.790   2.235   3.286
  159POPC   H5Y21272   4.641   2.222   3.382
  159POPC   C3621273   4.807   2.313   3.481
  159POPC   H6X21274   4.840   2.211   3.512
  159POPC   H6Y21275   4.726   2.334   3.554
  159POPC   C3721276   4.932   2.407   3.522
  159POPC   H7X21277   4.934   2.401   3.632
  159POPC   H7Y21278   4.898   2.510   3.506
  159POPC   C3821279   5.081   2.424   3.469
  159POPC   H8X21280   5.095   2.534   3.451
  159POPC   H8Y21281   5.109   2.376   3.377
  159POPC   C3921282   5.201   2.393   3.560
  159POPC   H9X21283   5.296   2.424   3.510
  159POPC   H9Y21284   5.207   2.283   3.576
  159POPC  C31021285   5.186   2.470   3.689
  159POPC  H10X21286   5.089   2.436   3.730
  159POPC  H10Y21287   5.175   2.579   3.674
  159POPC  C31121288   5.286   2.433   3.795
  159POPC  H11X21289   5.365   2.509   3.810
  159POPC  H11Y21290   5.338   2.343   3.760
  159POPC  C31221291   5.202   2.411   3.921
  159POPC  H12X21292   5.119   2.339   3.903
  159POPC  H12Y21293   5.156   2.510   3.944
  159POPC  C31321294   5.278   2.360   4.041
  159POPC  H13X21295   5.385   2.383   4.025
  159POPC  H13Y21296   5.269   2.250   4.048
  159POPC  C31421297   5.221   2.421   4.168
  159POPC  H14X21298   5.137   2.359   4.205
  159POPC  H14Y21299   5.182   2.523   4.146
  159POPC  C31521300   5.327   2.439   4.275
  159POPC  H15X21301   5.363   2.339   4.305
  159POPC  H15Y21302   5.276   2.487   4.363
  159POPC  C31621303   5.447   2.525   4.235
  159POPC  H16X21304   5.530   2.506   4.305
  159POPC  H16Y21305   5.417   2.631   4.239
  159POPC  H16Z21306   5.486   2.505   4.134
  160POPC     N21307   5.652   6.986   2.354
  160POPC   C1221308   5.779   7.010   2.435
  160POPC  H12A21309   5.817   6.911   2.463
  160POPC  H12B21310   5.756   7.063   2.525
  160POPC   C1321311   5.582   7.113   2.316
  160POPC  H13A21312   5.652   7.180   2.266
  160POPC  H13B21313   5.502   7.092   2.244
  160POPC  H13C21314   5.538   7.162   2.401
  160POPC   C1421315   5.689   6.916   2.228
  160POPC  H14A21316   5.767   6.974   2.178
  160POPC  H14B21317   5.734   6.821   2.251
  160POPC  H14C21318   5.606   6.905   2.160
  160POPC   C1521319   5.563   6.891   2.428
  160POPC  H15A21320   5.535   6.930   2.525
  160POPC  H15B21321   5.614   6.796   2.443
  160POPC  H15C21322   5.471   6.872   2.373
  160POPC   C1121323   5.901   7.077   2.366
  160POPC  H11A21324   5.977   7.106   2.442
  160POPC  H11B21325   5.869   7.171   2.315
  160POPC     P21326   6.026   6.855   2.308
  160POPC   O1321327   6.105   6.818   2.188
  160POPC   O1421328   5.918   6.761   2.345
  160POPC   O1221329   5.958   6.992   2.270
  160POPC   O1121330   6.119   6.886   2.435
  160POPC    C121331   6.235   6.971   2.422
  160POPC    HA21332   6.211   7.062   2.363
  160POPC    HB21333   6.315   6.916   2.366
  160POPC    C221334   6.306   7.022   2.556
  160POPC    HS21335   6.404   6.969   2.563
  160POPC   O2121336   6.225   6.997   2.673
  160POPC   C2121337   6.289   6.995   2.792
  160POPC   O2221338   6.406   7.020   2.810
  160POPC   C2221339   6.194   6.948   2.902
  160POPC   H2R21340   6.126   6.872   2.859
  160POPC   H2S21341   6.135   7.035   2.936
  160POPC    C321342   6.340   7.174   2.546
  160POPC    HX21343   6.406   7.189   2.458
  160POPC    HY21344   6.403   7.202   2.634
  160POPC   O3121345   6.221   7.255   2.529
  160POPC   C3121346   6.193   7.339   2.627
  160POPC   O3221347   6.258   7.359   2.727
  160POPC   C3221348   6.062   7.413   2.598
  160POPC   H2X21349   6.011   7.367   2.511
  160POPC   H2Y21350   6.090   7.517   2.574
  160POPC   C2321351   6.275   6.886   3.019
  160POPC   H3R21352   6.344   6.963   3.062
  160POPC   H3S21353   6.339   6.805   2.979
  160POPC   C2421354   6.190   6.824   3.131
  160POPC   H4R21355   6.260   6.782   3.207
  160POPC   H4S21356   6.130   6.740   3.090
  160POPC   C2521357   6.097   6.923   3.204
  160POPC   H5R21358   6.054   6.874   3.293
  160POPC   H5S21359   6.014   6.952   3.137
  160POPC   C2621360   6.174   7.049   3.246
  160POPC   H6R21361   6.198   7.108   3.154
  160POPC   H6S21362   6.269   7.019   3.294
  160POPC   C2721363   6.098   7.142   3.341
  160POPC   H7R21364   6.096   7.098   3.444
  160POPC   H7S21365   5.993   7.153   3.306
  160POPC   C2821366   6.162   7.282   3.345
  160POPC   H8R21367   6.098   7.346   3.410
  160POPC   H8S21368   6.155   7.324   3.242
  160POPC   C2921369   6.306   7.282   3.388
  160POPC   H9121370   6.374   7.221   3.326
  160POPC  C21021371   6.358   7.347   3.494
  160POPC  H10121372   6.465   7.336   3.516
  160POPC  C21121373   6.280   7.433   3.589
  160POPC  H11R21374   6.206   7.493   3.534
  160POPC  H11S21375   6.348   7.504   3.642
  160POPC  C21221376   6.202   7.352   3.694
  160POPC  H12R21377   6.122   7.292   3.644
  160POPC  H12S21378   6.151   7.423   3.763
  160POPC  C21321379   6.294   7.259   3.772
  160POPC  H13R21380   6.383   7.317   3.804
  160POPC  H13S21381   6.329   7.176   3.706
  160POPC  C21421382   6.225   7.200   3.893
  160POPC  H14R21383   6.135   7.144   3.862
  160POPC  H14S21384   6.193   7.282   3.961
  160POPC  C21521385   6.309   7.099   3.970
  160POPC  H15R21386   6.413   7.138   3.974
  160POPC  H15S21387   6.310   7.002   3.915
  160POPC  C21621388   6.249   7.083   4.110
  160POPC  H16R21389   6.232   6.978   4.138
  160POPC  H16S21390   6.147   7.127   4.107
  160POPC  C21721391   6.328   7.161   4.216
  160POPC  H17R21392   6.250   7.226   4.260
  160POPC  H17S21393   6.405   7.223   4.164
  160POPC  C21821394   6.402   7.093   4.332
  160POPC  H18R21395   6.510   7.086   4.314
  160POPC  H18S21396   6.368   6.992   4.347
  160POPC  H18T21397   6.380   7.143   4.429
  160POPC   C3321398   5.973   7.411   2.724
  160POPC   H3X21399   5.882   7.471   2.705
  160POPC   H3Y21400   6.026   7.458   2.810
  160POPC   C3421401   5.932   7.269   2.764
  160POPC   H4X21402   6.022   7.209   2.793
  160POPC   H4Y21403   5.884   7.218   2.678
  160POPC   C3521404   5.835   7.269   2.883
  160POPC   H5X21405   5.750   7.336   2.858
  160POPC   H5Y21406   5.886   7.312   2.972
  160POPC   C3621407   5.781   7.130   2.918
  160POPC   H6X21408   5.858   7.072   2.973
  160POPC   H6Y21409   5.760   7.075   2.823
  160POPC   C3721410   5.651   7.137   3.000
  160POPC   H7X21411   5.603   7.037   3.004
  160POPC   H7Y21412   5.581   7.206   2.946
  160POPC   C3821413   5.670   7.191   3.143
  160POPC   H8X21414   5.573   7.234   3.177
  160POPC   H8Y21415   5.745   7.273   3.144
  160POPC   C3921416   5.711   7.082   3.242
  160POPC   H9X21417   5.810   7.040   3.213
  160POPC   H9Y21418   5.637   6.998   3.238
  160POPC  C31021419   5.718   7.133   3.387
  160POPC  H10X21420   5.616   7.163   3.419
  160POPC  H10Y21421   5.783   7.224   3.391
  160POPC  C31121422   5.773   7.027   3.483
  160POPC  H11X21423   5.879   7.005   3.459
  160POPC  H11Y21424   5.716   6.932   3.465
  160POPC  C31221425   5.760   7.064   3.631
  160POPC  H12X21426   5.789   6.974   3.690
  160POPC  H12Y21427   5.656   7.090   3.658
  160POPC  C31321428   5.849   7.181   3.673
  160POPC  H13X21429   5.798   7.278   3.656
  160POPC  H13Y21430   5.941   7.180   3.609
  160POPC  C31421431   5.894   7.168   3.819
  160POPC  H14X21432   5.960   7.254   3.843
  160POPC  H14Y21433   5.953   7.073   3.825
  160POPC  C31521434   5.785   7.158   3.925
  160POPC  H15X21435   5.722   7.069   3.906
  160POPC  H15Y21436   5.720   7.248   3.918
  160POPC  C31621437   5.844   7.148   4.067
  160POPC  H16X21438   5.764   7.140   4.143
  160POPC  H16Y21439   5.905   7.238   4.089
  160POPC  H16Z21440   5.910   7.059   4.075
  161POPC     N21441   3.186   6.816   2.432
  161POPC   C1221442   3.289   6.707   2.413
  161POPC  H12A21443   3.362   6.707   2.493
  161POPC  H12B21444   3.348   6.729   2.323
  161POPC   C1321445   3.095   6.807   2.313
  161POPC  H13A21446   3.153   6.825   2.223
  161POPC  H13B21447   3.060   6.704   2.304
  161POPC  H13C21448   3.011   6.875   2.316
  161POPC   C1421449   3.110   6.798   2.559
  161POPC  H14A21450   3.068   6.698   2.562
  161POPC  H14B21451   3.173   6.810   2.646
  161POPC  H14C21452   3.028   6.869   2.567
  161POPC   C1521453   3.253   6.950   2.431
  161POPC  H15A21454   3.180   7.031   2.434
  161POPC  H15B21455   3.309   6.963   2.340
  161POPC  H15C21456   3.319   6.963   2.516
  161POPC   C1121457   3.239   6.561   2.396
  161POPC  H11A21458   3.162   6.538   2.472
  161POPC  H11B21459   3.324   6.490   2.413
  161POPC     P21460   3.285   6.535   2.143
  161POPC   O1321461   3.363   6.662   2.144
  161POPC   O1421462   3.203   6.508   2.023
  161POPC   O1221463   3.185   6.543   2.266
  161POPC   O1121464   3.367   6.403   2.181
  161POPC    C121465   3.334   6.276   2.119
  161POPC    HA21466   3.423   6.236   2.067
  161POPC    HB21467   3.260   6.285   2.038
  161POPC    C221468   3.276   6.160   2.210
  161POPC    HS21469   3.263   6.073   2.141
  161POPC   O2121470   3.151   6.189   2.271
  161POPC   C2121471   3.050   6.241   2.206
  161POPC   O2221472   3.033   6.235   2.085
  161POPC   C2221473   2.960   6.308   2.310
  161POPC   H2R21474   2.857   6.270   2.297
  161POPC   H2S21475   2.961   6.416   2.287
  161POPC    C321476   3.365   6.110   2.327
  161POPC    HX21477   3.451   6.054   2.289
  161POPC    HY21478   3.301   6.035   2.381
  161POPC   O3121479   3.411   6.218   2.411
  161POPC   C3121480   3.399   6.198   2.542
  161POPC   O3221481   3.341   6.104   2.594
  161POPC   C3221482   3.465   6.317   2.613
  161POPC   H2X21483   3.412   6.410   2.588
  161POPC   H2Y21484   3.569   6.323   2.572
  161POPC   C2321485   3.013   6.286   2.455
  161POPC   H3R21486   3.121   6.315   2.457
  161POPC   H3S21487   3.008   6.178   2.483
  161POPC   C2421488   2.944   6.373   2.562
  161POPC   H4R21489   2.848   6.327   2.591
  161POPC   H4S21490   2.924   6.472   2.515
  161POPC   C2521491   3.032   6.397   2.687
  161POPC   H5R21492   3.137   6.416   2.655
  161POPC   H5S21493   3.033   6.304   2.749
  161POPC   C2621494   2.984   6.517   2.771
  161POPC   H6R21495   2.879   6.501   2.799
  161POPC   H6S21496   2.987   6.608   2.708
  161POPC   C2721497   3.070   6.541   2.897
  161POPC   H7R21498   3.175   6.563   2.868
  161POPC   H7S21499   3.071   6.447   2.956
  161POPC   C2821500   3.021   6.653   2.992
  161POPC   H8R21501   3.055   6.624   3.094
  161POPC   H8S21502   2.910   6.653   2.997
  161POPC   C2921503   3.073   6.792   2.960
  161POPC   H9121504   3.021   6.842   2.878
  161POPC  C21021505   3.174   6.856   3.023
  161POPC  H10121506   3.205   6.955   2.987
  161POPC  C21121507   3.257   6.804   3.139
  161POPC  H11R21508   3.362   6.836   3.123
  161POPC  H11S21509   3.258   6.693   3.141
  161POPC  C21221510   3.216   6.852   3.280
  161POPC  H12R21511   3.200   6.962   3.282
  161POPC  H12S21512   3.302   6.830   3.347
  161POPC  C21321513   3.093   6.782   3.341
  161POPC  H13R21514   3.095   6.673   3.316
  161POPC  H13S21515   3.000   6.824   3.298
  161POPC  C21421516   3.095   6.796   3.494
  161POPC  H14R21517   3.107   6.905   3.518
  161POPC  H14S21518   3.185   6.743   3.532
  161POPC  C21521519   2.972   6.743   3.567
  161POPC  H15R21520   2.939   6.646   3.523
  161POPC  H15S21521   2.890   6.817   3.552
  161POPC  C21621522   2.996   6.726   3.718
  161POPC  H16R21523   3.063   6.639   3.735
  161POPC  H16S21524   2.899   6.704   3.769
  161POPC  C21721525   3.062   6.849   3.781
  161POPC  H17R21526   3.001   6.937   3.753
  161POPC  H17S21527   3.163   6.864   3.736
  161POPC  C21821528   3.077   6.842   3.933
  161POPC  H18R21529   3.151   6.918   3.968
  161POPC  H18S21530   3.112   6.742   3.965
  161POPC  H18T21531   2.980   6.865   3.980
  161POPC   C3321532   3.472   6.299   2.766
  161POPC   H3X21533   3.564   6.350   2.802
  161POPC   H3Y21534   3.483   6.190   2.788
  161POPC   C3421535   3.351   6.356   2.841
  161POPC   H4X21536   3.261   6.308   2.794
  161POPC   H4Y21537   3.347   6.465   2.824
  161POPC   C3521538   3.344   6.325   2.993
  161POPC   H5X21539   3.379   6.221   3.007
  161POPC   H5Y21540   3.238   6.324   3.025
  161POPC   C3621541   3.418   6.427   3.083
  161POPC   H6X21542   3.351   6.515   3.095
  161POPC   H6Y21543   3.510   6.463   3.031
  161POPC   C3721544   3.458   6.375   3.223
  161POPC   H7X21545   3.560   6.332   3.212
  161POPC   H7Y21546   3.390   6.293   3.253
  161POPC   C3821547   3.468   6.478   3.337
  161POPC   H8X21548   3.514   6.571   3.300
  161POPC   H8Y21549   3.537   6.435   3.414
  161POPC   C3921550   3.335   6.508   3.409
  161POPC   H9X21551   3.271   6.566   3.341
  161POPC   H9Y21552   3.358   6.574   3.497
  161POPC  C31021553   3.257   6.385   3.458
  161POPC  H10X21554   3.328   6.304   3.485
  161POPC  H10Y21555   3.196   6.347   3.373
  161POPC  C31121556   3.164   6.412   3.577
  161POPC  H11X21557   3.089   6.330   3.585
  161POPC  H11Y21558   3.107   6.505   3.555
  161POPC  C31221559   3.234   6.428   3.713
  161POPC  H12X21560   3.156   6.451   3.789
  161POPC  H12Y21561   3.304   6.514   3.709
  161POPC  C31321562   3.309   6.303   3.760
  161POPC  H13X21563   3.386   6.275   3.685
  161POPC  H13Y21564   3.239   6.217   3.767
  161POPC  C31421565   3.382   6.324   3.894
  161POPC  H14X21566   3.447   6.414   3.883
  161POPC  H14Y21567   3.448   6.237   3.914
  161POPC  C31521568   3.289   6.345   4.014
  161POPC  H15X21569   3.228   6.437   3.998
  161POPC  H15Y21570   3.351   6.364   4.105
  161POPC  C31621571   3.196   6.228   4.045
  161POPC  H16X21572   3.140   6.195   3.955
  161POPC  H16Y21573   3.122   6.262   4.119
  161POPC  H16Z21574   3.252   6.142   4.086
  162POPC     N21575   1.987   4.279   2.130
  162POPC   C1221576   1.981   4.175   2.241
  162POPC  H12A21577   2.062   4.105   2.225
  162POPC  H12B21578   1.887   4.121   2.236
  162POPC   C1321579   1.913   4.402   2.171
  162POPC  H13A21580   1.955   4.436   2.266
  162POPC  H13B21581   1.925   4.479   2.096
  162POPC  H13C21582   1.807   4.382   2.184
  162POPC   C1421583   2.130   4.321   2.104
  162POPC  H14A21584   2.177   4.348   2.199
  162POPC  H14B21585   2.187   4.241   2.061
  162POPC  H14C21586   2.134   4.408   2.040
  162POPC   C1521587   1.930   4.224   2.005
  162POPC  H15A21588   1.827   4.193   2.019
  162POPC  H15B21589   1.989   4.141   1.968
  162POPC  H15C21590   1.927   4.304   1.931
  162POPC   C1121591   1.998   4.227   2.383
  162POPC  H11A21592   2.005   4.140   2.453
  162POPC  H11B21593   1.911   4.289   2.416
  162POPC     P21594   2.195   4.333   2.512
  162POPC   O1321595   2.100   4.396   2.606
  162POPC   O1421596   2.316   4.410   2.475
  162POPC   O1221597   2.117   4.304   2.381
  162POPC   O1121598   2.234   4.188   2.566
  162POPC    C121599   2.325   4.103   2.499
  162POPC    HA21600   2.393   4.160   2.432
  162POPC    HB21601   2.268   4.034   2.433
  162POPC    C221602   2.413   4.019   2.598
  162POPC    HS21603   2.490   3.970   2.535
  162POPC   O2121604   2.345   3.914   2.668
  162POPC   C2121605   2.213   3.915   2.665
  162POPC   O2221606   2.146   3.871   2.573
  162POPC   C2221607   2.157   3.960   2.800
  162POPC   H2R21608   2.238   3.964   2.876
  162POPC   H2S21609   2.085   3.884   2.834
  162POPC    C321610   2.488   4.098   2.711
  162POPC    HX21611   2.595   4.101   2.685
  162POPC    HY21612   2.484   4.034   2.802
  162POPC   O3121613   2.439   4.231   2.738
  162POPC   C3121614   2.380   4.251   2.856
  162POPC   O3221615   2.377   4.168   2.946
  162POPC   C3221616   2.317   4.390   2.867
  162POPC   H2X21617   2.277   4.419   2.768
  162POPC   H2Y21618   2.394   4.464   2.893
  162POPC   C2321619   2.079   4.093   2.795
  162POPC   H3R21620   2.027   4.107   2.697
  162POPC   H3S21621   2.147   4.179   2.806
  162POPC   C2421622   1.974   4.098   2.905
  162POPC   H4R21623   2.022   4.069   3.001
  162POPC   H4S21624   1.895   4.023   2.881
  162POPC   C2521625   1.906   4.234   2.921
  162POPC   H5R21626   1.892   4.283   2.822
  162POPC   H5S21627   1.970   4.301   2.982
  162POPC   C2621628   1.773   4.219   2.995
  162POPC   H6R21629   1.701   4.169   2.926
  162POPC   H6S21630   1.733   4.319   3.020
  162POPC   C2721631   1.790   4.135   3.123
  162POPC   H7R21632   1.832   4.034   3.100
  162POPC   H7S21633   1.690   4.114   3.161
  162POPC   C2821634   1.874   4.205   3.231
  162POPC   H8R21635   1.832   4.307   3.246
  162POPC   H8S21636   1.976   4.221   3.190
  162POPC   C2921637   1.886   4.128   3.360
  162POPC   H9121638   1.943   4.034   3.352
  162POPC  C21021639   1.832   4.161   3.479
  162POPC  H10121640   1.849   4.095   3.565
  162POPC  C21121641   1.747   4.281   3.509
  162POPC  H11R21642   1.662   4.241   3.568
  162POPC  H11S21643   1.706   4.327   3.415
  162POPC  C21221644   1.789   4.396   3.602
  162POPC  H12R21645   1.742   4.377   3.701
  162POPC  H12S21646   1.748   4.493   3.564
  162POPC  C21321647   1.938   4.412   3.623
  162POPC  H13R21648   1.984   4.457   3.532
  162POPC  H13S21649   1.985   4.315   3.643
  162POPC  C21421650   1.964   4.502   3.741
  162POPC  H14R21651   1.898   4.590   3.727
  162POPC  H14S21652   2.071   4.534   3.739
  162POPC  C21521653   1.929   4.450   3.879
  162POPC  H15R21654   1.990   4.362   3.906
  162POPC  H15S21655   1.822   4.421   3.887
  162POPC  C21621656   1.956   4.567   3.973
  162POPC  H16R21657   1.875   4.642   3.960
  162POPC  H16S21658   2.052   4.616   3.942
  162POPC  C21721659   1.969   4.529   4.118
  162POPC  H17R21660   2.056   4.460   4.132
  162POPC  H17S21661   1.877   4.477   4.153
  162POPC  C21821662   1.992   4.658   4.195
  162POPC  H18R21663   2.090   4.702   4.165
  162POPC  H18S21664   1.989   4.638   4.304
  162POPC  H18T21665   1.913   4.733   4.171
  162POPC   C3321666   2.206   4.404   2.975
  162POPC   H3X21667   2.180   4.304   3.015
  162POPC   H3Y21668   2.115   4.444   2.926
  162POPC   C3421669   2.245   4.498   3.090
  162POPC   H4X21670   2.221   4.602   3.061
  162POPC   H4Y21671   2.355   4.493   3.107
  162POPC   C3521672   2.180   4.463   3.224
  162POPC   H5X21673   2.069   4.457   3.213
  162POPC   H5Y21674   2.201   4.544   3.297
  162POPC   C3621675   2.233   4.331   3.283
  162POPC   H6X21676   2.344   4.331   3.283
  162POPC   H6Y21677   2.200   4.245   3.221
  162POPC   C3721678   2.184   4.309   3.427
  162POPC   H7X21679   2.074   4.313   3.423
  162POPC   H7Y21680   2.222   4.392   3.490
  162POPC   C3821681   2.225   4.173   3.485
  162POPC   H8X21682   2.335   4.162   3.474
  162POPC   H8Y21683   2.175   4.094   3.425
  162POPC   C3921684   2.189   4.150   3.633
  162POPC   H9X21685   2.224   4.050   3.665
  162POPC   H9Y21686   2.079   4.146   3.644
  162POPC  C31021687   2.250   4.256   3.726
  162POPC  H10X21688   2.214   4.357   3.696
  162POPC  H10Y21689   2.360   4.256   3.716
  162POPC  C31121690   2.212   4.235   3.873
  162POPC  H11X21691   2.109   4.194   3.879
  162POPC  H11Y21692   2.213   4.334   3.925
  162POPC  C31221693   2.308   4.142   3.946
  162POPC  H12X21694   2.412   4.181   3.935
  162POPC  H12Y21695   2.304   4.042   3.898
  162POPC  C31321696   2.275   4.130   4.095
  162POPC  H13X21697   2.174   4.084   4.107
  162POPC  H13Y21698   2.271   4.232   4.140
  162POPC  C31421699   2.379   4.046   4.167
  162POPC  H14X21700   2.479   4.093   4.153
  162POPC  H14Y21701   2.382   3.945   4.119
  162POPC  C31521702   2.352   4.029   4.316
  162POPC  H15X21703   2.250   3.988   4.330
  162POPC  H15Y21704   2.357   4.130   4.362
  162POPC  C31621705   2.454   3.939   4.386
  162POPC  H16X21706   2.556   3.981   4.373
  162POPC  H16Y21707   2.453   3.837   4.343
  162POPC  H16Z21708   2.433   3.933   4.495
  163POPC     N21709   7.229   4.695   2.235
  163POPC   C1221710   7.378   4.685   2.204
  163POPC  H12A21711   7.393   4.640   2.107
  163POPC  H12B21712   7.425   4.621   2.279
  163POPC   C1321713   7.168   4.793   2.138
  163POPC  H13A21714   7.220   4.889   2.147
  163POPC  H13B21715   7.182   4.764   2.035
  163POPC  H13C21716   7.063   4.810   2.158
  163POPC   C1421717   7.165   4.562   2.217
  163POPC  H14A21718   7.061   4.570   2.243
  163POPC  H14B21719   7.173   4.526   2.115
  163POPC  H14C21720   7.211   4.489   2.283
  163POPC   C1521721   7.208   4.741   2.376
  163POPC  H15A21722   7.251   4.669   2.446
  163POPC  H15B21723   7.104   4.758   2.400
  163POPC  H15C21724   7.266   4.831   2.394
  163POPC   C1121725   7.459   4.816   2.205
  163POPC  H11A21726   7.413   4.894   2.140
  163POPC  H11B21727   7.560   4.798   2.160
  163POPC     P21728   7.580   4.804   2.431
  163POPC   O1321729   7.711   4.850   2.380
  163POPC   O1421730   7.557   4.659   2.440
  163POPC   O1221731   7.468   4.865   2.338
  163POPC   O1121732   7.541   4.875   2.566
  163POPC    C121733   7.499   5.012   2.562
  163POPC    HA21734   7.428   5.034   2.479
  163POPC    HB21735   7.589   5.074   2.547
  163POPC    C221736   7.423   5.059   2.690
  163POPC    HS21737   7.409   5.169   2.682
  163POPC   O2121738   7.493   5.027   2.813
  163POPC   C2121739   7.616   5.078   2.818
  163POPC   O2221740   7.659   5.165   2.745
  163POPC   C2221741   7.697   5.021   2.936
  163POPC   H2R21742   7.761   5.103   2.974
  163POPC   H2S21743   7.763   4.942   2.895
  163POPC    C321744   7.280   4.997   2.695
  163POPC    HX21745   7.225   5.030   2.604
  163POPC    HY21746   7.231   5.040   2.785
  163POPC   O3121747   7.282   4.853   2.699
  163POPC   C3121748   7.199   4.795   2.783
  163POPC   O3221749   7.105   4.849   2.838
  163POPC   C3221750   7.233   4.646   2.793
  163POPC   H2X21751   7.242   4.605   2.690
  163POPC   H2Y21752   7.149   4.596   2.845
  163POPC   C2321753   7.615   4.962   3.054
  163POPC   H3R21754   7.684   4.903   3.118
  163POPC   H3S21755   7.540   4.891   3.014
  163POPC   C2421756   7.549   5.069   3.143
  163POPC   H4R21757   7.476   5.127   3.082
  163POPC   H4S21758   7.625   5.140   3.181
  163POPC   C2521759   7.474   5.007   3.262
  163POPC   H5R21760   7.413   5.086   3.312
  163POPC   H5S21761   7.548   4.972   3.337
  163POPC   C2621762   7.384   4.890   3.219
  163POPC   H6R21763   7.445   4.800   3.198
  163POPC   H6S21764   7.334   4.920   3.124
  163POPC   C2721765   7.275   4.854   3.321
  163POPC   H7R21766   7.243   4.947   3.370
  163POPC   H7S21767   7.316   4.790   3.402
  163POPC   C2821768   7.149   4.792   3.256
  163POPC   H8R21769   7.127   4.845   3.161
  163POPC   H8S21770   7.062   4.810   3.322
  163POPC   C2921771   7.166   4.645   3.230
  163POPC   H9121772   7.230   4.620   3.144
  163POPC  C21021773   7.115   4.546   3.306
  163POPC  H10121774   7.142   4.443   3.280
  163POPC  C21121775   7.030   4.561   3.430
  163POPC  H11R21776   6.965   4.472   3.444
  163POPC  H11S21777   6.962   4.649   3.424
  163POPC  C21221778   7.121   4.578   3.554
  163POPC  H12R21779   7.186   4.667   3.539
  163POPC  H12S21780   7.186   4.489   3.564
  163POPC  C21321781   7.046   4.599   3.686
  163POPC  H13R21782   6.983   4.511   3.708
  163POPC  H13S21783   6.979   4.687   3.678
  163POPC  C21421784   7.147   4.622   3.800
  163POPC  H14R21785   7.209   4.711   3.773
  163POPC  H14S21786   7.214   4.534   3.807
  163POPC  C21521787   7.084   4.648   3.938
  163POPC  H15R21788   7.031   4.556   3.971
  163POPC  H15S21789   7.008   4.730   3.928
  163POPC  C21621790   7.184   4.688   4.047
  163POPC  H16R21791   7.127   4.711   4.140
  163POPC  H16S21792   7.239   4.779   4.017
  163POPC  C21721793   7.284   4.575   4.078
  163POPC  H17R21794   7.359   4.569   3.997
  163POPC  H17S21795   7.228   4.479   4.078
  163POPC  C21821796   7.354   4.593   4.213
  163POPC  H18R21797   7.281   4.584   4.297
  163POPC  H18S21798   7.402   4.692   4.218
  163POPC  H18T21799   7.432   4.516   4.227
  163POPC   C3321800   7.365   4.622   2.870
  163POPC   H3X21801   7.359   4.674   2.968
  163POPC   H3Y21802   7.450   4.665   2.813
  163POPC   C3421803   7.392   4.473   2.896
  163POPC   H4X21804   7.390   4.419   2.798
  163POPC   H4Y21805   7.312   4.430   2.960
  163POPC   C3521806   7.530   4.446   2.959
  163POPC   H5X21807   7.608   4.480   2.887
  163POPC   H5Y21808   7.543   4.337   2.974
  163POPC   C3621809   7.555   4.517   3.092
  163POPC   H6X21810   7.525   4.623   3.086
  163POPC   H6Y21811   7.665   4.517   3.109
  163POPC   C3721812   7.490   4.449   3.213
  163POPC   H7X21813   7.542   4.352   3.233
  163POPC   H7Y21814   7.384   4.426   3.190
  163POPC   C3821815   7.496   4.537   3.339
  163POPC   H8X21816   7.464   4.477   3.427
  163POPC   H8Y21817   7.422   4.619   3.326
  163POPC   C3921818   7.633   4.602   3.365
  163POPC   H9X21819   7.674   4.649   3.274
  163POPC   H9Y21820   7.704   4.522   3.396
  163POPC  C31021821   7.630   4.712   3.472
  163POPC  H10X21822   7.569   4.798   3.436
  163POPC  H10Y21823   7.734   4.748   3.488
  163POPC  C31121824   7.571   4.663   3.604
  163POPC  H11X21825   7.612   4.562   3.616
  163POPC  H11Y21826   7.461   4.652   3.597
  163POPC  C31221827   7.610   4.748   3.725
  163POPC  H12X21828   7.710   4.794   3.710
  163POPC  H12Y21829   7.617   4.681   3.814
  163POPC  C31321830   7.505   4.854   3.758
  163POPC  H13X21831   7.405   4.805   3.755
  163POPC  H13Y21832   7.505   4.934   3.680
  163POPC  C31421833   7.524   4.913   3.898
  163POPC  H14X21834   7.541   4.831   3.971
  163POPC  H14Y21835   7.431   4.964   3.930
  163POPC  C31521836   7.640   5.013   3.904
  163POPC  H15X21837   7.631   5.086   3.820
  163POPC  H15Y21838   7.735   4.959   3.889
  163POPC  C31621839   7.643   5.090   4.037
  163POPC  H16X21840   7.551   5.152   4.047
  163POPC  H16Y21841   7.731   5.157   4.040
  163POPC  H16Z21842   7.648   5.020   4.122
  164POPC     N21843   3.564   2.201   2.526
  164POPC   C1221844   3.690   2.193   2.441
  164POPC  H12A21845   3.700   2.090   2.406
  164POPC  H12B21846   3.777   2.213   2.502
  164POPC   C1321847   3.579   2.110   2.644
  164POPC  H13A21848   3.661   2.140   2.708
  164POPC  H13B21849   3.490   2.112   2.706
  164POPC  H13C21850   3.593   2.007   2.614
  164POPC   C1421851   3.531   2.337   2.576
  164POPC  H14A21852   3.535   2.406   2.493
  164POPC  H14B21853   3.429   2.341   2.615
  164POPC  H14C21854   3.597   2.370   2.654
  164POPC   C1521855   3.448   2.172   2.434
  164POPC  H15A21856   3.451   2.073   2.390
  164POPC  H15B21857   3.454   2.238   2.346
  164POPC  H15C21858   3.352   2.185   2.482
  164POPC   C1121859   3.698   2.281   2.314
  164POPC  H11A21860   3.801   2.276   2.271
  164POPC  H11B21861   3.682   2.388   2.342
  164POPC     P21862   3.617   2.111   2.128
  164POPC   O1321863   3.740   2.122   2.047
  164POPC   O1421864   3.493   2.087   2.052
  164POPC   O1221865   3.601   2.244   2.216
  164POPC   O1121866   3.638   1.997   2.241
  164POPC    C121867   3.701   1.876   2.196
  164POPC    HA21868   3.798   1.898   2.144
  164POPC    HB21869   3.635   1.826   2.122
  164POPC    C221870   3.732   1.771   2.308
  164POPC    HS21871   3.745   1.673   2.257
  164POPC   O2121872   3.633   1.757   2.410
  164POPC   C2121873   3.508   1.767   2.374
  164POPC   O2221874   3.457   1.728   2.270
  164POPC   C2221875   3.440   1.848   2.483
  164POPC   H2R21876   3.499   1.940   2.484
  164POPC   H2S21877   3.455   1.802   2.582
  164POPC    C321878   3.865   1.794   2.384
  164POPC    HX21879   3.948   1.804   2.310
  164POPC    HY21880   3.882   1.698   2.437
  164POPC   O3121881   3.869   1.908   2.475
  164POPC   C3121882   3.859   1.875   2.605
  164POPC   O3221883   3.810   1.774   2.649
  164POPC   C3221884   3.933   1.979   2.688
  164POPC   H2X21885   3.902   2.079   2.655
  164POPC   H2Y21886   4.042   1.967   2.668
  164POPC   C2321887   3.293   1.879   2.450
  164POPC   H3R21888   3.239   1.782   2.432
  164POPC   H3S21889   3.288   1.935   2.353
  164POPC   C2421890   3.209   1.957   2.554
  164POPC   H4R21891   3.130   1.887   2.590
  164POPC   H4S21892   3.157   2.039   2.497
  164POPC   C2521893   3.269   2.026   2.675
  164POPC   H5R21894   3.330   2.113   2.645
  164POPC   H5S21895   3.330   1.954   2.733
  164POPC   C2621896   3.157   2.088   2.760
  164POPC   H6R21897   3.063   2.034   2.733
  164POPC   H6S21898   3.141   2.195   2.738
  164POPC   C2721899   3.178   2.065   2.909
  164POPC   H7R21900   3.233   1.969   2.924
  164POPC   H7S21901   3.075   2.050   2.951
  164POPC   C2821902   3.243   2.179   2.989
  164POPC   H8R21903   3.229   2.157   3.097
  164POPC   H8S21904   3.186   2.273   2.969
  164POPC   C2921905   3.388   2.200   2.957
  164POPC   H9121906   3.414   2.185   2.852
  164POPC  C21021907   3.484   2.235   3.044
  164POPC  H10121908   3.587   2.249   3.009
  164POPC  C21121909   3.461   2.260   3.191
  164POPC  H11R21910   3.360   2.305   3.208
  164POPC  H11S21911   3.535   2.334   3.230
  164POPC  C21221912   3.471   2.132   3.274
  164POPC  H12R21913   3.572   2.087   3.263
  164POPC  H12S21914   3.395   2.059   3.236
  164POPC  C21321915   3.446   2.153   3.425
  164POPC  H13R21916   3.348   2.203   3.440
  164POPC  H13S21917   3.526   2.219   3.464
  164POPC  C21421918   3.449   2.020   3.502
  164POPC  H14R21919   3.542   1.966   3.476
  164POPC  H14S21920   3.367   1.956   3.467
  164POPC  C21521921   3.436   2.031   3.654
  164POPC  H15R21922   3.510   2.103   3.696
  164POPC  H15S21923   3.461   1.931   3.694
  164POPC  C21621924   3.293   2.070   3.695
  164POPC  H16R21925   3.222   2.027   3.622
  164POPC  H16S21926   3.278   2.179   3.684
  164POPC  C21721927   3.249   2.031   3.837
  164POPC  H17R21928   3.139   2.011   3.834
  164POPC  H17S21929   3.264   2.123   3.897
  164POPC  C21821930   3.319   1.913   3.905
  164POPC  H18R21931   3.273   1.894   4.005
  164POPC  H18S21932   3.427   1.935   3.922
  164POPC  H18T21933   3.311   1.820   3.845
  164POPC   C3321934   3.907   1.959   2.839
  164POPC   H3X21935   3.799   1.938   2.858
  164POPC   H3Y21936   3.927   2.057   2.889
  164POPC   C3421937   3.994   1.851   2.907
  164POPC   H4X21938   4.084   1.833   2.844
  164POPC   H4Y21939   3.939   1.755   2.914
  164POPC   C3521940   4.048   1.896   3.044
  164POPC   H5X21941   3.991   1.985   3.077
  164POPC   H5Y21942   4.154   1.926   3.027
  164POPC   C3621943   4.053   1.797   3.161
  164POPC   H6X21944   4.140   1.828   3.224
  164POPC   H6Y21945   4.076   1.696   3.122
  164POPC   C3721946   3.931   1.794   3.255
  164POPC   H7X21947   3.961   1.743   3.350
  164POPC   H7Y21948   3.851   1.732   3.209
  164POPC   C3821949   3.870   1.929   3.298
  164POPC   H8X21950   3.780   1.905   3.360
  164POPC   H8Y21951   3.833   1.985   3.210
  164POPC   C3921952   3.967   2.013   3.381
  164POPC   H9X21953   4.031   2.070   3.310
  164POPC   H9Y21954   4.036   1.947   3.438
  164POPC  C31021955   3.900   2.110   3.480
  164POPC  H10X21956   3.837   2.183   3.424
  164POPC  H10Y21957   3.980   2.168   3.532
  164POPC  C31121958   3.816   2.042   3.589
  164POPC  H11X21959   3.724   2.002   3.543
  164POPC  H11Y21960   3.784   2.120   3.663
  164POPC  C31221961   3.889   1.927   3.660
  164POPC  H12X21962   3.995   1.957   3.675
  164POPC  H12Y21963   3.888   1.837   3.595
  164POPC  C31321964   3.829   1.894   3.797
  164POPC  H13X21965   3.725   1.857   3.786
  164POPC  H13Y21966   3.825   1.988   3.856
  164POPC  C31421967   3.914   1.789   3.872
  164POPC  H14X21968   4.020   1.822   3.868
  164POPC  H14Y21969   3.906   1.691   3.819
  164POPC  C31521970   3.877   1.772   4.020
  164POPC  H15X21971   3.945   1.696   4.064
  164POPC  H15Y21972   3.774   1.734   4.032
  164POPC  C31621973   3.891   1.899   4.103
  164POPC  H16X21974   3.791   1.933   4.138
  164POPC  H16Y21975   3.940   1.981   4.047
  164POPC  H16Z21976   3.953   1.876   4.193
  165POPC     N21977   6.228   2.544   2.274
  165POPC   C1221978   6.165   2.411   2.311
  165POPC  H12A21979   6.059   2.413   2.286
  165POPC  H12B21980   6.170   2.400   2.420
  165POPC   C1321981   6.277   2.549   2.133
  165POPC  H13A21982   6.335   2.639   2.119
  165POPC  H13B21983   6.342   2.464   2.115
  165POPC  H13C21984   6.195   2.549   2.063
  165POPC   C1421985   6.126   2.650   2.296
  165POPC  H14A21986   6.088   2.652   2.398
  165POPC  H14B21987   6.165   2.751   2.278
  165POPC  H14C21988   6.041   2.642   2.229
  165POPC   C1521989   6.343   2.570   2.365
  165POPC  H15A21990   6.314   2.578   2.469
  165POPC  H15B21991   6.398   2.661   2.339
  165POPC  H15C21992   6.413   2.487   2.360
  165POPC   C1121993   6.222   2.282   2.246
  165POPC  H11A21994   6.207   2.293   2.137
  165POPC  H11B21995   6.161   2.194   2.278
  165POPC     P21996   6.416   2.221   2.412
  165POPC   O1321997   6.512   2.324   2.454
  165POPC   O1421998   6.454   2.079   2.419
  165POPC   O1221999   6.361   2.261   2.268
  165POPC   O1122000   6.286   2.239   2.500
  165POPC    C122001   6.249   2.134   2.590
  165POPC    HA22002   6.339   2.092   2.642
  165POPC    HB22003   6.200   2.051   2.535
  165POPC    C222004   6.156   2.185   2.703
  165POPC    HS22005   6.058   2.218   2.660
  165POPC   O2122006   6.222   2.291   2.774
  165POPC   C2122007   6.212   2.409   2.717
  165POPC   O2222008   6.132   2.442   2.631
  165POPC   C2222009   6.315   2.504   2.776
  165POPC   H2R22010   6.267   2.564   2.856
  165POPC   H2S22011   6.345   2.573   2.694
  165POPC    C322012   6.128   2.071   2.804
  165POPC    HX22013   6.228   2.023   2.822
  165POPC    HY22014   6.060   1.996   2.759
  165POPC   O3122015   6.069   2.126   2.924
  165POPC   C3122016   6.117   2.073   3.035
  165POPC   O3222017   6.183   1.972   3.043
  165POPC   C3222018   6.078   2.157   3.154
  165POPC   H2X22019   6.083   2.092   3.243
  165POPC   H2Y22020   5.973   2.192   3.140
  165POPC   C2322021   6.441   2.431   2.829
  165POPC   H3R22022   6.473   2.355   2.753
  165POPC   H3S22023   6.417   2.376   2.923
  165POPC   C2422024   6.560   2.524   2.851
  165POPC   H4R22025   6.587   2.569   2.752
  165POPC   H4S22026   6.647   2.464   2.886
  165POPC   C2522027   6.538   2.641   2.948
  165POPC   H5R22028   6.455   2.704   2.910
  165POPC   H5S22029   6.629   2.705   2.948
  165POPC   C2622030   6.507   2.599   3.092
  165POPC   H6R22031   6.593   2.543   3.135
  165POPC   H6S22032   6.419   2.531   3.092
  165POPC   C2722033   6.474   2.721   3.180
  165POPC   H7R22034   6.392   2.775   3.129
  165POPC   H7S22035   6.561   2.790   3.183
  165POPC   C2822036   6.426   2.683   3.321
  165POPC   H8R22037   6.374   2.585   3.313
  165POPC   H8S22038   6.350   2.757   3.353
  165POPC   C2922039   6.537   2.680   3.424
  165POPC   H9122040   6.612   2.760   3.415
  165POPC  C21022041   6.552   2.589   3.522
  165POPC  H10122042   6.635   2.601   3.593
  165POPC  C21122043   6.462   2.471   3.550
  165POPC  H11R22044   6.368   2.474   3.491
  165POPC  H11S22045   6.431   2.475   3.656
  165POPC  C21222046   6.533   2.338   3.519
  165POPC  H12R22047   6.633   2.335   3.569
  165POPC  H12S22048   6.549   2.330   3.409
  165POPC  C21322049   6.456   2.214   3.567
  165POPC  H13R22050   6.508   2.123   3.530
  165POPC  H13S22051   6.355   2.214   3.522
  165POPC  C21422052   6.444   2.206   3.720
  165POPC  H14R22053   6.402   2.301   3.759
  165POPC  H14S22054   6.544   2.191   3.765
  165POPC  C21522055   6.348   2.095   3.764
  165POPC  H15R22056   6.383   1.998   3.726
  165POPC  H15S22057   6.248   2.113   3.718
  165POPC  C21622058   6.332   2.089   3.916
  165POPC  H16R22059   6.239   2.032   3.939
  165POPC  H16S22060   6.321   2.193   3.953
  165POPC  C21722061   6.448   2.026   3.993
  165POPC  H17R22062   6.540   2.088   3.983
  165POPC  H17S22063   6.470   1.927   3.949
  165POPC  C21822064   6.411   2.010   4.140
  165POPC  H18R22065   6.414   2.109   4.191
  165POPC  H18S22066   6.479   1.940   4.193
  165POPC  H18T22067   6.307   1.972   4.150
  165POPC   C3322068   6.176   2.274   3.171
  165POPC   H3X22069   6.156   2.352   3.094
  165POPC   H3Y22070   6.282   2.240   3.158
  165POPC   C3422071   6.162   2.333   3.310
  165POPC   H4X22072   6.228   2.423   3.317
  165POPC   H4Y22073   6.198   2.259   3.384
  165POPC   C3522074   6.018   2.372   3.343
  165POPC   H5X22075   5.957   2.281   3.363
  165POPC   H5Y22076   5.973   2.425   3.256
  165POPC   C3622077   6.013   2.464   3.464
  165POPC   H6X22078   5.907   2.490   3.486
  165POPC   H6Y22079   6.068   2.558   3.441
  165POPC   C3722080   6.074   2.402   3.590
  165POPC   H7X22081   6.180   2.372   3.573
  165POPC   H7Y22082   6.017   2.310   3.613
  165POPC   C3822083   6.070   2.501   3.705
  165POPC   H8X22084   5.966   2.538   3.716
  165POPC   H8Y22085   6.135   2.588   3.682
  165POPC   C3922086   6.112   2.440   3.838
  165POPC   H9X22087   6.099   2.517   3.918
  165POPC   H9Y22088   6.220   2.415   3.834
  165POPC  C31022089   6.033   2.315   3.876
  165POPC  H10X22090   6.061   2.232   3.808
  165POPC  H10Y22091   5.923   2.330   3.867
  165POPC  C31122092   6.071   2.275   4.017
  165POPC  H11X22093   6.178   2.301   4.026
  165POPC  H11Y22094   6.069   2.166   4.033
  165POPC  C31222095   5.995   2.347   4.128
  165POPC  H12X22096   5.890   2.311   4.129
  165POPC  H12Y22097   5.990   2.456   4.104
  165POPC  C31322098   6.061   2.328   4.265
  165POPC  H13X22099   6.037   2.227   4.305
  165POPC  H13Y22100   6.016   2.400   4.334
  165POPC  C31422101   6.215   2.346   4.272
  165POPC  H14X22102   6.261   2.250   4.242
  165POPC  H14Y22103   6.241   2.362   4.379
  165POPC  C31522104   6.275   2.460   4.187
  165POPC  H15X22105   6.192   2.524   4.149
  165POPC  H15Y22106   6.324   2.414   4.098
  165POPC  C31622107   6.379   2.551   4.251
  165POPC  H16X22108   6.343   2.593   4.347
  165POPC  H16Y22109   6.400   2.637   4.183
  165POPC  H16Z22110   6.475   2.498   4.269
  166POPC     N22111   7.019   6.307   2.420
  166POPC   C1222112   7.075   6.324   2.279
  166POPC  H12A22113   7.016   6.398   2.227
  166POPC  H12B22114   7.059   6.231   2.225
  166POPC   C1322115   7.071   6.416   2.509
  166POPC  H13A22116   7.028   6.512   2.485
  166POPC  H13B22117   7.049   6.394   2.613
  166POPC  H13C22118   7.179   6.423   2.497
  166POPC   C1422119   6.869   6.308   2.425
  166POPC  H14A22120   6.824   6.398   2.382
  166POPC  H14B22121   6.825   6.224   2.374
  166POPC  H14C22122   6.832   6.306   2.528
  166POPC   C1522123   7.068   6.176   2.472
  166POPC  H15A22124   7.028   6.095   2.413
  166POPC  H15B22125   7.042   6.162   2.576
  166POPC  H15C22126   7.177   6.175   2.462
  166POPC   C1122127   7.225   6.363   2.255
  166POPC  H11A22128   7.247   6.457   2.312
  166POPC  H11B22129   7.233   6.386   2.146
  166POPC     P22130   7.476   6.297   2.267
  166POPC   O1322131   7.506   6.420   2.343
  166POPC   O1422132   7.517   6.295   2.124
  166POPC   O1222133   7.319   6.260   2.285
  166POPC   O1122134   7.549   6.178   2.340
  166POPC    C122135   7.482   6.105   2.443
  166POPC    HA22136   7.550   6.023   2.473
  166POPC    HB22137   7.390   6.056   2.404
  166POPC    C222138   7.447   6.187   2.572
  166POPC    HS22139   7.353   6.243   2.551
  166POPC   O2122140   7.555   6.275   2.608
  166POPC   C2122141   7.520   6.400   2.642
  166POPC   O2222142   7.406   6.441   2.657
  166POPC   C2222143   7.648   6.477   2.678
  166POPC   H2R22144   7.622   6.584   2.688
  166POPC   H2S22145   7.719   6.466   2.593
  166POPC    C322146   7.420   6.085   2.684
  166POPC    HX22147   7.507   6.017   2.687
  166POPC    HY22148   7.331   6.022   2.661
  166POPC   O3122149   7.415   6.145   2.813
  166POPC   C3122150   7.297   6.164   2.866
  166POPC   O3222151   7.188   6.147   2.813
  166POPC   C3222152   7.321   6.194   3.012
  166POPC   H2X22153   7.246   6.268   3.046
  166POPC   H2Y22154   7.422   6.236   3.021
  166POPC   C2322155   7.711   6.425   2.809
  166POPC   H3R22156   7.813   6.467   2.823
  166POPC   H3S22157   7.720   6.314   2.804
  166POPC   C2422158   7.624   6.463   2.929
  166POPC   H4R22159   7.516   6.451   2.905
  166POPC   H4S22160   7.642   6.571   2.952
  166POPC   C2522161   7.655   6.376   3.051
  166POPC   H5R22162   7.762   6.388   3.078
  166POPC   H5S22163   7.639   6.269   3.026
  166POPC   C2622164   7.567   6.410   3.172
  166POPC   H6R22165   7.614   6.365   3.261
  166POPC   H6S22166   7.467   6.363   3.162
  166POPC   C2722167   7.541   6.560   3.195
  166POPC   H7R22168   7.469   6.596   3.117
  166POPC   H7S22169   7.635   6.617   3.182
  166POPC   C2822170   7.482   6.591   3.334
  166POPC   H8R22171   7.409   6.674   3.323
  166POPC   H8S22172   7.563   6.631   3.399
  166POPC   C2922173   7.413   6.472   3.395
  166POPC   H9122174   7.325   6.439   3.338
  166POPC  C21022175   7.443   6.405   3.508
  166POPC  H10122176   7.382   6.318   3.535
  166POPC  C21122177   7.557   6.435   3.601
  166POPC  H11R22178   7.593   6.540   3.590
  166POPC  H11S22179   7.640   6.367   3.574
  166POPC  C21222180   7.535   6.408   3.749
  166POPC  H12R22181   7.468   6.482   3.796
  166POPC  H12S22182   7.636   6.419   3.793
  166POPC  C21322183   7.496   6.264   3.783
  166POPC  H13R22184   7.551   6.194   3.717
  166POPC  H13S22185   7.388   6.249   3.765
  166POPC  C21422186   7.528   6.230   3.929
  166POPC  H14R22187   7.637   6.247   3.947
  166POPC  H14S22188   7.505   6.122   3.943
  166POPC  C21522189   7.444   6.311   4.028
  166POPC  H15R22190   7.341   6.271   4.017
  166POPC  H15S22191   7.445   6.418   3.997
  166POPC  C21622192   7.477   6.303   4.178
  166POPC  H16R22193   7.566   6.241   4.197
  166POPC  H16S22194   7.394   6.249   4.228
  166POPC  C21722195   7.493   6.441   4.246
  166POPC  H17R22196   7.586   6.491   4.211
  166POPC  H17S22197   7.509   6.422   4.354
  166POPC  C21822198   7.376   6.538   4.229
  166POPC  H18R22199   7.404   6.641   4.258
  166POPC  H18S22200   7.294   6.506   4.297
  166POPC  H18T22201   7.339   6.541   4.125
  166POPC   C3322202   7.314   6.062   3.091
  166POPC   H3X22203   7.394   5.991   3.057
  166POPC   H3Y22204   7.215   6.018   3.068
  166POPC   C3422205   7.323   6.081   3.242
  166POPC   H4X22206   7.416   6.136   3.270
  166POPC   H4Y22207   7.328   5.981   3.290
  166POPC   C3522208   7.200   6.155   3.293
  166POPC   H5X22209   7.110   6.123   3.236
  166POPC   H5Y22210   7.212   6.264   3.275
  166POPC   C3622211   7.173   6.129   3.441
  166POPC   H6X22212   7.266   6.146   3.500
  166POPC   H6Y22213   7.145   6.022   3.455
  166POPC   C3722214   7.060   6.217   3.492
  166POPC   H7X22215   6.971   6.206   3.425
  166POPC   H7Y22216   7.093   6.323   3.485
  166POPC   C3822217   7.016   6.185   3.635
  166POPC   H8X22218   6.970   6.084   3.638
  166POPC   H8Y22219   6.937   6.258   3.664
  166POPC   C3922220   7.131   6.191   3.737
  166POPC   H9X22221   7.189   6.284   3.720
  166POPC   H9Y22222   7.199   6.104   3.721
  166POPC  C31022223   7.081   6.191   3.882
  166POPC  H10X22224   7.164   6.164   3.951
  166POPC  H10Y22225   7.002   6.113   3.892
  166POPC  C31122226   7.023   6.327   3.920
  166POPC  H11X22227   6.925   6.313   3.970
  166POPC  H11Y22228   7.003   6.386   3.828
  166POPC  C31222229   7.113   6.414   4.010
  166POPC  H12X22230   7.079   6.519   3.994
  166POPC  H12Y22231   7.218   6.415   3.977
  166POPC  C31322232   7.091   6.390   4.160
  166POPC  H13X22233   6.981   6.382   4.160
  166POPC  H13Y22234   7.113   6.480   4.220
  166POPC  C31422235   7.123   6.260   4.236
  166POPC  H14X22236   7.213   6.273   4.300
  166POPC  H14Y22237   7.137   6.174   4.169
  166POPC  C31522238   7.004   6.238   4.331
  166POPC  H15X22239   6.912   6.237   4.270
  166POPC  H15Y22240   6.999   6.327   4.396
  166POPC  C31622241   7.002   6.117   4.420
  166POPC  H16X22242   6.910   6.116   4.482
  166POPC  H16Y22243   7.089   6.120   4.488
  166POPC  H16Z22244   7.003   6.024   4.359
  167POPC     N22245   2.120   5.986   2.296
  167POPC   C1222246   1.971   6.006   2.316
  167POPC  H12A22247   1.925   6.019   2.218
  167POPC  H12B22248   1.954   6.099   2.369
  167POPC   C1322249   2.141   5.861   2.218
  167POPC  H13A22250   2.090   5.780   2.271
  167POPC  H13B22251   2.088   5.866   2.123
  167POPC  H13C22252   2.246   5.838   2.207
  167POPC   C1422253   2.176   6.101   2.219
  167POPC  H14A22254   2.146   6.195   2.265
  167POPC  H14B22255   2.285   6.092   2.218
  167POPC  H14C22256   2.137   6.099   2.117
  167POPC   C1522257   2.198   5.973   2.424
  167POPC  H15A22258   2.162   5.888   2.481
  167POPC  H15B22259   2.195   6.061   2.485
  167POPC  H15C22260   2.304   5.955   2.403
  167POPC   C1122261   1.892   5.890   2.382
  167POPC  H11A22262   1.788   5.928   2.401
  167POPC  H11B22263   1.940   5.868   2.480
  167POPC     P22264   1.807   5.647   2.356
  167POPC   O1322265   1.830   5.529   2.270
  167POPC   O1422266   1.669   5.685   2.386
  167POPC   O1222267   1.887   5.773   2.298
  167POPC   O1122268   1.890   5.622   2.488
  167POPC    C122269   2.028   5.581   2.482
  167POPC    HA22270   2.087   5.650   2.418
  167POPC    HB22271   2.038   5.478   2.442
  167POPC    C222272   2.090   5.586   2.624
  167POPC    HS22273   2.042   5.502   2.681
  167POPC   O2122274   2.059   5.716   2.679
  167POPC   C2122275   1.950   5.718   2.753
  167POPC   O2222276   1.902   5.623   2.813
  167POPC   C2222277   1.896   5.861   2.756
  167POPC   H2R22278   1.826   5.871   2.670
  167POPC   H2S22279   1.980   5.932   2.741
  167POPC    C322280   2.244   5.561   2.627
  167POPC    HX22281   2.294   5.649   2.581
  167POPC    HY22282   2.269   5.473   2.565
  167POPC   O3122283   2.295   5.546   2.762
  167POPC   C3122284   2.264   5.427   2.817
  167POPC   O3222285   2.204   5.338   2.761
  167POPC   C3222286   2.314   5.416   2.961
  167POPC   H2X22287   2.385   5.498   2.979
  167POPC   H2Y22288   2.372   5.321   2.967
  167POPC   C2322289   1.821   5.891   2.887
  167POPC   H3R22290   1.729   5.829   2.892
  167POPC   H3S22291   1.790   5.998   2.886
  167POPC   C2422292   1.905   5.865   3.012
  167POPC   H4R22293   1.921   5.755   3.028
  167POPC   H4S22294   1.847   5.902   3.100
  167POPC   C2522295   2.041   5.933   3.010
  167POPC   H5R22296   2.038   6.023   2.944
  167POPC   H5S22297   2.119   5.865   2.970
  167POPC   C2622298   2.080   5.982   3.150
  167POPC   H6R22299   2.085   5.895   3.219
  167POPC   H6S22300   2.000   6.050   3.188
  167POPC   C2722301   2.211   6.060   3.147
  167POPC   H7R22302   2.203   6.139   3.069
  167POPC   H7S22303   2.294   5.994   3.116
  167POPC   C2822304   2.242   6.129   3.281
  167POPC   H8R22305   2.161   6.203   3.300
  167POPC   H8S22306   2.337   6.184   3.262
  167POPC   C2922307   2.269   6.044   3.401
  167POPC   H9122308   2.366   5.993   3.395
  167POPC  C21022309   2.202   6.028   3.516
  167POPC  H10122310   2.246   5.955   3.585
  167POPC  C21122311   2.075   6.087   3.572
  167POPC  H11R22312   1.987   6.061   3.509
  167POPC  H11S22313   2.083   6.198   3.574
  167POPC  C21222314   2.050   6.038   3.717
  167POPC  H12R22315   2.003   5.937   3.716
  167POPC  H12S22316   1.977   6.107   3.763
  167POPC  C21322317   2.177   6.030   3.806
  167POPC  H13R22318   2.252   6.104   3.769
  167POPC  H13S22319   2.224   5.930   3.794
  167POPC  C21422320   2.152   6.059   3.954
  167POPC  H14R22321   2.048   6.087   3.974
  167POPC  H14S22322   2.212   6.149   3.975
  167POPC  C21522323   2.206   5.959   4.055
  167POPC  H15R22324   2.178   5.986   4.159
  167POPC  H15S22325   2.317   5.972   4.052
  167POPC  C21622326   2.174   5.812   4.028
  167POPC  H16R22327   2.144   5.795   3.922
  167POPC  H16S22328   2.089   5.776   4.091
  167POPC  C21722329   2.303   5.736   4.054
  167POPC  H17R22330   2.329   5.748   4.161
  167POPC  H17S22331   2.384   5.785   3.996
  167POPC  C21822332   2.304   5.589   4.018
  167POPC  H18R22333   2.251   5.531   4.095
  167POPC  H18S22334   2.409   5.552   4.014
  167POPC  H18T22335   2.256   5.573   3.919
  167POPC   C3322336   2.202   5.409   3.070
  167POPC   H3X22337   2.133   5.325   3.048
  167POPC   H3Y22338   2.139   5.502   3.065
  167POPC   C3422339   2.258   5.392   3.213
  167POPC   H4X22340   2.283   5.493   3.249
  167POPC   H4Y22341   2.353   5.335   3.212
  167POPC   C3522342   2.166   5.337   3.323
  167POPC   H5X22343   2.222   5.349   3.419
  167POPC   H5Y22344   2.150   5.229   3.311
  167POPC   C3622345   2.032   5.410   3.338
  167POPC   H6X22346   1.959   5.363   3.268
  167POPC   H6Y22347   2.042   5.517   3.308
  167POPC   C3722348   1.975   5.405   3.481
  167POPC   H7X22349   1.984   5.301   3.520
  167POPC   H7Y22350   1.867   5.431   3.477
  167POPC   C3822351   2.044   5.502   3.579
  167POPC   H8X22352   2.051   5.604   3.535
  167POPC   H8Y22353   2.148   5.466   3.597
  167POPC   C3922354   1.970   5.511   3.714
  167POPC   H9X22355   2.042   5.534   3.795
  167POPC   H9Y22356   1.927   5.411   3.735
  167POPC  C31022357   1.858   5.617   3.717
  167POPC  H10X22358   1.806   5.619   3.619
  167POPC  H10Y22359   1.905   5.717   3.733
  167POPC  C31122360   1.755   5.587   3.827
  167POPC  H11X22361   1.810   5.575   3.923
  167POPC  H11Y22362   1.709   5.489   3.800
  167POPC  C31222363   1.638   5.684   3.847
  167POPC  H12X22364   1.574   5.646   3.930
  167POPC  H12Y22365   1.576   5.683   3.754
  167POPC  C31322366   1.677   5.829   3.879
  167POPC  H13X22367   1.587   5.894   3.872
  167POPC  H13Y22368   1.749   5.863   3.801
  167POPC  C31422369   1.739   5.847   4.018
  167POPC  H14X22370   1.806   5.760   4.038
  167POPC  H14Y22371   1.662   5.848   4.097
  167POPC  C31522372   1.828   5.971   4.025
  167POPC  H15X22373   1.885   5.975   3.929
  167POPC  H15Y22374   1.902   5.956   4.106
  167POPC  C31622375   1.758   6.105   4.047
  167POPC  H16X22376   1.710   6.108   4.147
  167POPC  H16Y22377   1.681   6.124   3.969
  167POPC  H16Z22378   1.832   6.189   4.042
  168POPC     N22379   4.354   7.548   2.192
  168POPC   C1222380   4.356   7.697   2.223
  168POPC  H12A22381   4.286   7.751   2.160
  168POPC  H12B22382   4.455   7.734   2.196
  168POPC   C1322383   4.455   7.482   2.283
  168POPC  H13A22384   4.551   7.534   2.271
  168POPC  H13B22385   4.431   7.502   2.387
  168POPC  H13C22386   4.470   7.377   2.266
  168POPC   C1422387   4.218   7.490   2.210
  168POPC  H14A22388   4.217   7.384   2.189
  168POPC  H14B22389   4.186   7.507   2.313
  168POPC  H14C22390   4.148   7.539   2.143
  168POPC   C1522391   4.406   7.529   2.055
  168POPC  H15A22392   4.510   7.564   2.051
  168POPC  H15B22393   4.349   7.583   1.982
  168POPC  H15C22394   4.410   7.424   2.025
  168POPC   C1122395   4.338   7.738   2.371
  168POPC  H11A22396   4.252   7.686   2.417
  168POPC  H11B22397   4.317   7.848   2.380
  168POPC     P22398   4.583   7.796   2.424
  168POPC   O1322399   4.550   7.927   2.481
  168POPC   O1422400   4.621   7.789   2.281
  168POPC   O1222401   4.456   7.704   2.443
  168POPC   O1122402   4.691   7.722   2.513
  168POPC    C122403   4.661   7.608   2.593
  168POPC    HA22404   4.756   7.552   2.604
  168POPC    HB22405   4.591   7.538   2.543
  168POPC    C222406   4.615   7.646   2.737
  168POPC    HS22407   4.637   7.558   2.802
  168POPC   O2122408   4.476   7.677   2.749
  168POPC   C2122409   4.382   7.601   2.707
  168POPC   O2222410   4.391   7.488   2.662
  168POPC   C2222411   4.249   7.672   2.736
  168POPC   H2R22412   4.209   7.712   2.641
  168POPC   H2S22413   4.269   7.757   2.804
  168POPC    C322414   4.694   7.768   2.792
  168POPC    HX22415   4.666   7.860   2.736
  168POPC    HY22416   4.801   7.747   2.770
  168POPC   O3122417   4.682   7.785   2.936
  168POPC   C3122418   4.571   7.844   2.977
  168POPC   O3222419   4.485   7.894   2.908
  168POPC   C3222420   4.565   7.844   3.130
  168POPC   H2X22421   4.667   7.846   3.172
  168POPC   H2Y22422   4.513   7.752   3.164
  168POPC   C2322423   4.151   7.574   2.802
  168POPC   H3R22424   4.205   7.515   2.881
  168POPC   H3S22425   4.116   7.501   2.726
  168POPC   C2422426   4.031   7.643   2.868
  168POPC   H4R22427   3.940   7.582   2.850
  168POPC   H4S22428   4.015   7.743   2.823
  168POPC   C2522429   4.048   7.656   3.020
  168POPC   H5R22430   4.057   7.555   3.066
  168POPC   H5S22431   3.956   7.703   3.062
  168POPC   C2622432   4.169   7.740   3.061
  168POPC   H6R22433   4.170   7.833   3.000
  168POPC   H6S22434   4.264   7.686   3.039
  168POPC   C2722435   4.162   7.779   3.208
  168POPC   H7R22436   4.066   7.832   3.223
  168POPC   H7S22437   4.243   7.850   3.233
  168POPC   C2822438   4.169   7.663   3.309
  168POPC   H8R22439   4.074   7.606   3.304
  168POPC   H8S22440   4.171   7.711   3.409
  168POPC   C2922441   4.286   7.570   3.292
  168POPC   H9122442   4.289   7.517   3.195
  168POPC  C21022443   4.384   7.545   3.382
  168POPC  H10122444   4.458   7.467   3.359
  168POPC  C21122445   4.397   7.607   3.519
  168POPC  H11R22446   4.352   7.708   3.523
  168POPC  H11S22447   4.505   7.622   3.544
  168POPC  C21222448   4.330   7.525   3.631
  168POPC  H12R22449   4.353   7.577   3.726
  168POPC  H12S22450   4.373   7.423   3.637
  168POPC  C21322451   4.178   7.520   3.611
  168POPC  H13R22452   4.155   7.465   3.517
  168POPC  H13S22453   4.142   7.625   3.599
  168POPC  C21422454   4.097   7.457   3.723
  168POPC  H14R22455   4.102   7.346   3.714
  168POPC  H14S22456   3.990   7.484   3.706
  168POPC  C21522457   4.138   7.500   3.865
  168POPC  H15R22458   4.244   7.475   3.886
  168POPC  H15S22459   4.076   7.441   3.936
  168POPC  C21622460   4.115   7.649   3.890
  168POPC  H16R22461   4.018   7.675   3.844
  168POPC  H16S22462   4.192   7.711   3.839
  168POPC  C21722463   4.109   7.681   4.040
  168POPC  H17R22464   4.212   7.700   4.077
  168POPC  H17S22465   4.074   7.590   4.093
  168POPC  C21822466   4.016   7.796   4.082
  168POPC  H18R22467   4.073   7.886   4.113
  168POPC  H18S22468   3.958   7.766   4.172
  168POPC  H18T22469   3.944   7.824   4.002
  168POPC   C3322470   4.486   7.969   3.172
  168POPC   H3X22471   4.379   7.960   3.145
  168POPC   H3Y22472   4.524   8.055   3.111
  168POPC   C3422473   4.503   8.018   3.316
  168POPC   H4X22474   4.440   8.110   3.317
  168POPC   H4Y22475   4.609   8.045   3.334
  168POPC   C3522476   4.453   7.938   3.435
  168POPC   H5X22477   4.526   7.859   3.462
  168POPC   H5Y22478   4.356   7.890   3.411
  168POPC   C3622479   4.432   8.037   3.552
  168POPC   H6X22480   4.380   7.986   3.636
  168POPC   H6Y22481   4.363   8.118   3.519
  168POPC   C3722482   4.561   8.101   3.605
  168POPC   H7X22483   4.533   8.178   3.681
  168POPC   H7Y22484   4.615   8.154   3.524
  168POPC   C3822485   4.656   8.000   3.671
  168POPC   H8X22486   4.730   8.056   3.733
  168POPC   H8Y22487   4.712   7.943   3.594
  168POPC   C3922488   4.578   7.902   3.759
  168POPC   H9X22489   4.523   7.829   3.696
  168POPC   H9Y22490   4.504   7.959   3.820
  168POPC  C31022491   4.667   7.825   3.854
  168POPC  H10X22492   4.737   7.894   3.906
  168POPC  H10Y22493   4.729   7.752   3.796
  168POPC  C31122494   4.582   7.752   3.957
  168POPC  H11X22495   4.493   7.704   3.910
  168POPC  H11Y22496   4.546   7.826   4.032
  168POPC  C31222497   4.668   7.647   4.025
  168POPC  H12X22498   4.764   7.698   4.045
  168POPC  H12Y22499   4.690   7.563   3.955
  168POPC  C31322500   4.613   7.595   4.157
  168POPC  H13X22501   4.553   7.672   4.210
  168POPC  H13Y22502   4.702   7.577   4.221
  168POPC  C31422503   4.538   7.463   4.147
  168POPC  H14X22504   4.576   7.405   4.060
  168POPC  H14Y22505   4.430   7.483   4.128
  168POPC  C31522506   4.557   7.378   4.274
  168POPC  H15X22507   4.663   7.346   4.279
  168POPC  H15Y22508   4.495   7.286   4.265
  168POPC  C31622509   4.520   7.452   4.403
  168POPC  H16X22510   4.429   7.513   4.388
  168POPC  H16Y22511   4.601   7.521   4.434
  168POPC  H16Z22512   4.502   7.380   4.486
  169POPC     N22513   6.604   6.875   2.154
  169POPC   C1222514   6.627   6.864   2.305
  169POPC  H12A22515   6.609   6.762   2.338
  169POPC  H12B22516   6.554   6.926   2.358
  169POPC   C1322517   6.720   6.815   2.082
  169POPC  H13A22518   6.737   6.713   2.115
  169POPC  H13B22519   6.708   6.815   1.973
  169POPC  H13C22520   6.809   6.873   2.106
  169POPC   C1422521   6.476   6.806   2.118
  169POPC  H14A22522   6.393   6.843   2.177
  169POPC  H14B22523   6.452   6.816   2.013
  169POPC  H14C22524   6.483   6.700   2.142
  169POPC   C1522525   6.598   7.019   2.123
  169POPC  H15A22526   6.515   7.066   2.176
  169POPC  H15B22527   6.590   7.044   2.019
  169POPC  H15C22528   6.687   7.069   2.164
  169POPC   C1122529   6.763   6.914   2.358
  169POPC  H11A22530   6.847   6.855   2.315
  169POPC  H11B22531   6.764   6.893   2.468
  169POPC     P22532   6.729   7.163   2.431
  169POPC   O1322533   6.639   7.096   2.528
  169POPC   O1422534   6.671   7.274   2.352
  169POPC   O1222535   6.784   7.053   2.330
  169POPC   O1122536   6.861   7.207   2.506
  169POPC    C122537   6.985   7.133   2.507
  169POPC    HA22538   7.058   7.192   2.448
  169POPC    HB22539   6.979   7.034   2.458
  169POPC    C222540   7.048   7.117   2.650
  169POPC    HS22541   7.156   7.093   2.637
  169POPC   O2122542   6.991   7.020   2.737
  169POPC   C2122543   6.931   6.915   2.695
  169POPC   O2222544   6.959   6.844   2.599
  169POPC   C2222545   6.819   6.888   2.795
  169POPC   H2R22546   6.727   6.870   2.735
  169POPC   H2S22547   6.801   6.977   2.858
  169POPC    C322548   7.037   7.248   2.728
  169POPC    HX22549   6.933   7.285   2.720
  169POPC    HY22550   7.102   7.318   2.676
  169POPC   O3122551   7.083   7.239   2.865
  169POPC   C3122552   6.989   7.222   2.956
  169POPC   O3222553   6.871   7.201   2.933
  169POPC   C3222554   7.047   7.245   3.095
  169POPC   H2X22555   7.077   7.351   3.101
  169POPC   H2Y22556   7.137   7.181   3.105
  169POPC   C2322557   6.853   6.765   2.881
  169POPC   H3R22558   6.881   6.680   2.816
  169POPC   H3S22559   6.759   6.742   2.936
  169POPC   C2422560   6.956   6.782   2.992
  169POPC   H4R22561   6.909   6.849   3.066
  169POPC   H4S22562   7.051   6.828   2.957
  169POPC   C2522563   6.984   6.647   3.062
  169POPC   H5R22564   7.072   6.597   3.015
  169POPC   H5S22565   6.896   6.581   3.045
  169POPC   C2622566   7.001   6.657   3.214
  169POPC   H6R22567   6.996   6.554   3.257
  169POPC   H6S22568   6.917   6.715   3.258
  169POPC   C2722569   7.134   6.719   3.258
  169POPC   H7R22570   7.146   6.817   3.205
  169POPC   H7S22571   7.218   6.654   3.226
  169POPC   C2822572   7.140   6.745   3.410
  169POPC   H8R22573   7.058   6.815   3.434
  169POPC   H8S22574   7.235   6.799   3.433
  169POPC   C2922575   7.130   6.620   3.492
  169POPC   H9122576   7.211   6.550   3.477
  169POPC  C21022577   7.035   6.577   3.575
  169POPC  H10122578   7.049   6.481   3.626
  169POPC  C21122579   6.908   6.648   3.609
  169POPC  H11R22580   6.900   6.746   3.557
  169POPC  H11S22581   6.908   6.667   3.718
  169POPC  C21222582   6.786   6.561   3.571
  169POPC  H12R22583   6.776   6.483   3.649
  169POPC  H12S22584   6.801   6.511   3.473
  169POPC  C21322585   6.656   6.643   3.564
  169POPC  H13R22586   6.568   6.578   3.545
  169POPC  H13S22587   6.664   6.715   3.480
  169POPC  C21422588   6.637   6.719   3.695
  169POPC  H14R22589   6.734   6.772   3.710
  169POPC  H14S22590   6.624   6.650   3.780
  169POPC  C21522591   6.535   6.832   3.699
  169POPC  H15R22592   6.443   6.797   3.751
  169POPC  H15S22593   6.506   6.864   3.597
  169POPC  C21622594   6.597   6.951   3.774
  169POPC  H16R22595   6.518   7.025   3.800
  169POPC  H16S22596   6.667   7.004   3.705
  169POPC  C21722597   6.679   6.911   3.899
  169POPC  H17R22598   6.787   6.918   3.875
  169POPC  H17S22599   6.658   6.806   3.930
  169POPC  C21822600   6.649   6.999   4.018
  169POPC  H18R22601   6.706   6.971   4.108
  169POPC  H18S22602   6.541   6.997   4.041
  169POPC  H18T22603   6.671   7.103   3.990
  169POPC   C3322604   6.954   7.208   3.213
  169POPC   H3X22605   6.847   7.224   3.186
  169POPC   H3Y22606   6.978   7.274   3.299
  169POPC   C3422607   6.978   7.064   3.256
  169POPC   H4X22608   7.082   7.053   3.294
  169POPC   H4Y22609   6.972   7.001   3.166
  169POPC   C3522610   6.876   7.016   3.360
  169POPC   H5X22611   6.884   6.906   3.373
  169POPC   H5Y22612   6.773   7.035   3.321
  169POPC   C3622613   6.892   7.085   3.495
  169POPC   H6X22614   6.819   7.040   3.567
  169POPC   H6Y22615   6.865   7.192   3.482
  169POPC   C3722616   7.032   7.074   3.556
  169POPC   H7X22617   7.108   7.122   3.490
  169POPC   H7Y22618   7.060   6.967   3.569
  169POPC   C3822619   7.044   7.141   3.693
  169POPC   H8X22620   7.147   7.125   3.730
  169POPC   H8Y22621   6.974   7.091   3.764
  169POPC   C3922622   7.017   7.293   3.687
  169POPC   H9X22623   7.055   7.334   3.592
  169POPC   H9Y22624   7.078   7.340   3.767
  169POPC  C31022625   6.869   7.332   3.706
  169POPC  H10X22626   6.813   7.241   3.738
  169POPC  H10Y22627   6.823   7.358   3.609
  169POPC  C31122628   6.845   7.446   3.807
  169POPC  H11X22629   6.734   7.457   3.817
  169POPC  H11Y22630   6.884   7.542   3.769
  169POPC  C31222631   6.903   7.416   3.946
  169POPC  H12X22632   6.869   7.492   4.019
  169POPC  H12Y22633   7.013   7.420   3.943
  169POPC  C31322634   6.856   7.276   3.986
  169POPC  H13X22635   6.917   7.200   3.933
  169POPC  H13Y22636   6.752   7.269   3.948
  169POPC  C31422637   6.855   7.238   4.133
  169POPC  H14X22638   6.939   7.283   4.188
  169POPC  H14Y22639   6.869   7.127   4.140
  169POPC  C31522640   6.725   7.273   4.203
  169POPC  H15X22641   6.637   7.236   4.147
  169POPC  H15Y22642   6.717   7.384   4.208
  169POPC  C31622643   6.725   7.215   4.343
  169POPC  H16X22644   6.736   7.104   4.340
  169POPC  H16Y22645   6.633   7.240   4.398
  169POPC  H16Z22646   6.810   7.258   4.396
  170POPC     N22647   3.781   7.655   2.250
  170POPC   C1222648   3.725   7.516   2.278
  170POPC  H12A22649   3.799   7.442   2.257
  170POPC  H12B22650   3.641   7.500   2.210
  170POPC   C1322651   3.671   7.755   2.272
  170POPC  H13A22652   3.628   7.741   2.371
  170POPC  H13B22653   3.704   7.858   2.262
  170POPC  H13C22654   3.589   7.735   2.203
  170POPC   C1422655   3.892   7.692   2.343
  170POPC  H14A22656   3.852   7.687   2.445
  170POPC  H14B22657   3.976   7.626   2.335
  170POPC  H14C22658   3.923   7.794   2.326
  170POPC   C1522659   3.828   7.668   2.108
  170POPC  H15A22660   3.869   7.769   2.095
  170POPC  H15B22661   3.747   7.659   2.037
  170POPC  H15C22662   3.908   7.599   2.085
  170POPC   C1122663   3.667   7.488   2.420
  170POPC  H11A22664   3.743   7.505   2.498
  170POPC  H11B22665   3.641   7.379   2.425
  170POPC     P22666   3.419   7.531   2.371
  170POPC   O1322667   3.378   7.395   2.412
  170POPC   O1422668   3.450   7.554   2.227
  170POPC   O1222669   3.552   7.567   2.449
  170POPC   O1122670   3.307   7.632   2.417
  170POPC    C122671   3.315   7.774   2.416
  170POPC    HA22672   3.215   7.815   2.393
  170POPC    HB22673   3.383   7.808   2.335
  170POPC    C222674   3.362   7.834   2.551
  170POPC    HS22675   3.375   7.943   2.536
  170POPC   O2122676   3.489   7.774   2.580
  170POPC   C2122677   3.540   7.804   2.696
  170POPC   O2222678   3.511   7.903   2.762
  170POPC   C2222679   3.640   7.697   2.742
  170POPC   H2R22680   3.742   7.739   2.739
  170POPC   H2S22681   3.635   7.610   2.673
  170POPC    C322682   3.259   7.813   2.669
  170POPC    HX22683   3.157   7.822   2.625
  170POPC    HY22684   3.273   7.900   2.738
  170POPC   O3122685   3.270   7.687   2.739
  170POPC   C3122686   3.209   7.684   2.859
  170POPC   O3222687   3.165   7.782   2.916
  170POPC   C3222688   3.196   7.539   2.908
  170POPC   H2X22689   3.297   7.500   2.930
  170POPC   H2Y22690   3.154   7.479   2.827
  170POPC   C2322691   3.613   7.654   2.887
  170POPC   H3R22692   3.539   7.720   2.937
  170POPC   H3S22693   3.708   7.662   2.945
  170POPC   C2422694   3.564   7.510   2.890
  170POPC   H4R22695   3.636   7.444   2.838
  170POPC   H4S22696   3.469   7.505   2.833
  170POPC   C2522697   3.548   7.464   3.035
  170POPC   H5R22698   3.475   7.380   3.042
  170POPC   H5S22699   3.507   7.549   3.095
  170POPC   C2622700   3.683   7.418   3.091
  170POPC   H6R22701   3.765   7.456   3.025
  170POPC   H6S22702   3.688   7.307   3.087
  170POPC   C2722703   3.715   7.470   3.232
  170POPC   H7R22704   3.723   7.580   3.226
  170POPC   H7S22705   3.815   7.431   3.262
  170POPC   C2822706   3.610   7.433   3.337
  170POPC   H8R22707   3.509   7.468   3.305
  170POPC   H8S22708   3.633   7.490   3.429
  170POPC   C2922709   3.607   7.284   3.359
  170POPC   H9122710   3.584   7.223   3.271
  170POPC  C21022711   3.629   7.224   3.477
  170POPC  H10122712   3.618   7.115   3.485
  170POPC  C21122713   3.658   7.296   3.606
  170POPC  H11R22714   3.725   7.383   3.590
  170POPC  H11S22715   3.709   7.230   3.679
  170POPC  C21222716   3.525   7.343   3.667
  170POPC  H12R22717   3.469   7.408   3.596
  170POPC  H12S22718   3.550   7.406   3.754
  170POPC  C21322719   3.436   7.227   3.714
  170POPC  H13R22720   3.498   7.158   3.775
  170POPC  H13S22721   3.400   7.170   3.625
  170POPC  C21422722   3.316   7.271   3.798
  170POPC  H14R22723   3.256   7.181   3.824
  170POPC  H14S22724   3.252   7.340   3.740
  170POPC  C21522725   3.359   7.340   3.929
  170POPC  H15R22726   3.406   7.438   3.904
  170POPC  H15S22727   3.435   7.277   3.980
  170POPC  C21622728   3.243   7.366   4.026
  170POPC  H16R22729   3.193   7.268   4.047
  170POPC  H16S22730   3.168   7.432   3.977
  170POPC  C21722731   3.288   7.428   4.159
  170POPC  H17R22732   3.362   7.359   4.206
  170POPC  H17S22733   3.200   7.435   4.226
  170POPC  C21822734   3.350   7.568   4.147
  170POPC  H18R22735   3.437   7.568   4.079
  170POPC  H18S22736   3.385   7.603   4.247
  170POPC  H18T22737   3.275   7.640   4.109
  170POPC   C3322738   3.109   7.520   3.035
  170POPC   H3X22739   3.081   7.412   3.043
  170POPC   H3Y22740   3.015   7.579   3.028
  170POPC   C3422741   3.187   7.559   3.160
  170POPC   H4X22742   3.214   7.666   3.151
  170POPC   H4Y22743   3.283   7.501   3.164
  170POPC   C3522744   3.111   7.537   3.291
  170POPC   H5X22745   3.111   7.428   3.316
  170POPC   H5Y22746   3.005   7.570   3.282
  170POPC   C3622747   3.178   7.616   3.404
  170POPC   H6X22748   3.288   7.603   3.399
  170POPC   H6Y22749   3.144   7.573   3.502
  170POPC   C3722750   3.142   7.765   3.399
  170POPC   H7X22751   3.031   7.775   3.403
  170POPC   H7Y22752   3.173   7.811   3.302
  170POPC   C3822753   3.205   7.842   3.515
  170POPC   H8X22754   3.210   7.775   3.603
  170POPC   H8Y22755   3.143   7.928   3.546
  170POPC   C3922756   3.343   7.897   3.481
  170POPC   H9X22757   3.334   7.989   3.420
  170POPC   H9Y22758   3.394   7.820   3.418
  170POPC  C31022759   3.427   7.922   3.607
  170POPC  H10X22760   3.370   7.985   3.678
  170POPC  H10Y22761   3.518   7.979   3.579
  170POPC  C31122762   3.466   7.789   3.670
  170POPC  H11X22763   3.499   7.721   3.588
  170POPC  H11Y22764   3.378   7.741   3.719
  170POPC  C31222765   3.579   7.796   3.772
  170POPC  H12X22766   3.544   7.848   3.865
  170POPC  H12Y22767   3.664   7.855   3.731
  170POPC  C31322768   3.626   7.655   3.806
  170POPC  H13X22769   3.656   7.604   3.711
  170POPC  H13Y22770   3.542   7.598   3.851
  170POPC  C31422771   3.745   7.655   3.901
  170POPC  H14X22772   3.717   7.711   3.992
  170POPC  H14Y22773   3.824   7.713   3.850
  170POPC  C31522774   3.800   7.516   3.940
  170POPC  H15X22775   3.883   7.533   4.012
  170POPC  H15Y22776   3.843   7.468   3.850
  170POPC  C31622777   3.705   7.414   4.004
  170POPC  H16X22778   3.634   7.462   4.075
  170POPC  H16Y22779   3.763   7.337   4.060
  170POPC  H16Z22780   3.645   7.362   3.928
  171POPC     N22781   2.309   6.514   2.191
  171POPC   C1222782   2.454   6.561   2.208
  171POPC  H12A22783   2.505   6.552   2.113
  171POPC  H12B22784   2.505   6.496   2.278
  171POPC   C1322785   2.242   6.499   2.325
  171POPC  H13A22786   2.136   6.475   2.315
  171POPC  H13B22787   2.289   6.423   2.387
  171POPC  H13C22788   2.250   6.593   2.380
  171POPC   C1422789   2.230   6.616   2.115
  171POPC  H14A22790   2.276   6.641   2.020
  171POPC  H14B22791   2.128   6.583   2.097
  171POPC  H14C22792   2.224   6.707   2.174
  171POPC   C1522793   2.308   6.383   2.118
  171POPC  H15A22794   2.207   6.354   2.095
  171POPC  H15B22795   2.353   6.307   2.181
  171POPC  H15C22796   2.366   6.388   2.027
  171POPC   C1122797   2.477   6.707   2.256
  171POPC  H11A22798   2.425   6.778   2.188
  171POPC  H11B22799   2.586   6.729   2.249
  171POPC     P22800   2.426   6.869   2.450
  171POPC   O1322801   2.287   6.915   2.432
  171POPC   O1422802   2.532   6.950   2.386
  171POPC   O1222803   2.434   6.721   2.392
  171POPC   O1122804   2.462   6.853   2.604
  171POPC    C122805   2.534   6.739   2.651
  171POPC    HA22806   2.581   6.762   2.749
  171POPC    HB22807   2.617   6.712   2.581
  171POPC    C222808   2.440   6.617   2.670
  171POPC    HS22809   2.378   6.608   2.578
  171POPC   O2122810   2.357   6.639   2.785
  171POPC   C2122811   2.247   6.566   2.789
  171POPC   O2222812   2.211   6.487   2.704
  171POPC   C2222813   2.179   6.591   2.924
  171POPC   H2R22814   2.076   6.551   2.921
  171POPC   H2S22815   2.175   6.700   2.941
  171POPC    C322816   2.521   6.485   2.683
  171POPC    HX22817   2.599   6.483   2.605
  171POPC    HY22818   2.449   6.403   2.657
  171POPC   O3122819   2.584   6.471   2.814
  171POPC   C3122820   2.553   6.358   2.877
  171POPC   O3222821   2.481   6.270   2.833
  171POPC   C3222822   2.616   6.352   3.018
  171POPC   H2X22823   2.651   6.248   3.031
  171POPC   H2Y22824   2.536   6.372   3.091
  171POPC   C2322825   2.263   6.521   3.032
  171POPC   H3R22826   2.372   6.542   3.015
  171POPC   H3S22827   2.248   6.411   3.020
  171POPC   C2422828   2.237   6.558   3.179
  171POPC   H4R22829   2.129   6.547   3.203
  171POPC   H4S22830   2.267   6.663   3.199
  171POPC   C2522831   2.323   6.463   3.264
  171POPC   H5R22832   2.425   6.501   3.272
  171POPC   H5S22833   2.334   6.370   3.205
  171POPC   C2622834   2.267   6.424   3.401
  171POPC   H6R22835   2.304   6.323   3.429
  171POPC   H6S22836   2.157   6.420   3.396
  171POPC   C2722837   2.318   6.513   3.514
  171POPC   H7R22838   2.295   6.619   3.489
  171POPC   H7S22839   2.429   6.501   3.520
  171POPC   C2822840   2.260   6.480   3.651
  171POPC   H8R22841   2.304   6.550   3.725
  171POPC   H8S22842   2.288   6.376   3.680
  171POPC   C2922843   2.111   6.497   3.642
  171POPC   H9122844   2.077   6.556   3.556
  171POPC  C21022845   2.022   6.450   3.728
  171POPC  H10122846   1.917   6.458   3.700
  171POPC  C21122847   2.051   6.371   3.852
  171POPC  H11R22848   2.150   6.324   3.845
  171POPC  H11S22849   1.977   6.289   3.863
  171POPC  C21222850   2.043   6.459   3.978
  171POPC  H12R22851   1.938   6.491   3.994
  171POPC  H12S22852   2.104   6.552   3.966
  171POPC  C21322853   2.091   6.384   4.102
  171POPC  H13R22854   2.187   6.426   4.139
  171POPC  H13S22855   2.110   6.279   4.074
  171POPC  C21422856   1.991   6.376   4.216
  171POPC  H14R22857   2.006   6.277   4.261
  171POPC  H14S22858   1.887   6.379   4.177
  171POPC  C21522859   2.018   6.485   4.320
  171POPC  H15R22860   2.016   6.578   4.260
  171POPC  H15S22861   2.122   6.474   4.358
  171POPC  C21622862   1.923   6.494   4.440
  171POPC  H16R22863   1.937   6.594   4.487
  171POPC  H16S22864   1.954   6.420   4.517
  171POPC  C21722865   1.773   6.475   4.411
  171POPC  H17R22866   1.717   6.485   4.506
  171POPC  H17S22867   1.757   6.371   4.375
  171POPC  C21822868   1.716   6.573   4.309
  171POPC  H18R22869   1.717   6.677   4.347
  171POPC  H18S22870   1.612   6.548   4.281
  171POPC  H18T22871   1.776   6.570   4.216
  171POPC   C3322872   2.734   6.450   3.044
  171POPC   H3X22873   2.706   6.553   3.015
  171POPC   H3Y22874   2.819   6.418   2.979
  171POPC   C3422875   2.790   6.452   3.189
  171POPC   H4X22876   2.886   6.507   3.189
  171POPC   H4Y22877   2.817   6.350   3.220
  171POPC   C3522878   2.699   6.515   3.297
  171POPC   H5X22879   2.759   6.520   3.391
  171POPC   H5Y22880   2.615   6.445   3.316
  171POPC   C3622881   2.648   6.656   3.261
  171POPC   H6X22882   2.595   6.652   3.164
  171POPC   H6Y22883   2.736   6.723   3.251
  171POPC   C3722884   2.551   6.721   3.362
  171POPC   H7X22885   2.453   6.672   3.361
  171POPC   H7Y22886   2.531   6.826   3.332
  171POPC   C3822887   2.605   6.718   3.505
  171POPC   H8X22888   2.701   6.774   3.505
  171POPC   H8Y22889   2.626   6.613   3.535
  171POPC   C3922890   2.515   6.780   3.611
  171POPC   H9X22891   2.417   6.728   3.616
  171POPC   H9Y22892   2.494   6.887   3.587
  171POPC  C31022893   2.583   6.766   3.746
  171POPC  H10X22894   2.673   6.832   3.749
  171POPC  H10Y22895   2.618   6.661   3.760
  171POPC  C31122896   2.490   6.802   3.860
  171POPC  H11X22897   2.546   6.789   3.955
  171POPC  H11Y22898   2.403   6.732   3.862
  171POPC  C31222899   2.436   6.944   3.852
  171POPC  H12X22900   2.348   6.945   3.785
  171POPC  H12Y22901   2.513   7.011   3.808
  171POPC  C31322902   2.402   6.995   3.992
  171POPC  H13X22903   2.358   7.096   3.989
  171POPC  H13Y22904   2.501   7.003   4.044
  171POPC  C31422905   2.311   6.900   4.071
  171POPC  H14X22906   2.354   6.797   4.073
  171POPC  H14Y22907   2.212   6.892   4.020
  171POPC  C31522908   2.291   6.942   4.217
  171POPC  H15X22909   2.264   6.851   4.275
  171POPC  H15Y22910   2.206   7.014   4.222
  171POPC  C31622911   2.413   7.006   4.283
  171POPC  H16X22912   2.502   6.941   4.273
  171POPC  H16Y22913   2.394   7.027   4.390
  171POPC  H16Z22914   2.438   7.102   4.232
  172POPC     N22915   5.532   7.720   2.364
  172POPC   C1222916   5.396   7.703   2.428
  172POPC  H12A22917   5.370   7.794   2.484
  172POPC  H12B22918   5.398   7.622   2.499
  172POPC   C1322919   5.556   7.611   2.264
  172POPC  H13A22920   5.473   7.614   2.192
  172POPC  H13B22921   5.646   7.625   2.206
  172POPC  H13C22922   5.557   7.514   2.310
  172POPC   C1422923   5.529   7.850   2.288
  172POPC  H14A22924   5.622   7.871   2.237
  172POPC  H14B22925   5.448   7.844   2.214
  172POPC  H14C22926   5.502   7.934   2.353
  172POPC   C1522927   5.639   7.725   2.469
  172POPC  H15A22928   5.652   7.629   2.518
  172POPC  H15B22929   5.615   7.797   2.546
  172POPC  H15C22930   5.734   7.757   2.427
  172POPC   C1122931   5.277   7.679   2.331
  172POPC  H11A22932   5.192   7.647   2.396
  172POPC  H11B22933   5.295   7.594   2.262
  172POPC     P22934   5.161   7.905   2.330
  172POPC   O1322935   5.092   7.991   2.231
  172POPC   O1422936   5.255   7.969   2.424
  172POPC   O1222937   5.246   7.794   2.253
  172POPC   O1122938   5.056   7.819   2.413
  172POPC    C122939   4.996   7.868   2.533
  172POPC    HA22940   4.890   7.837   2.536
  172POPC    HB22941   4.995   7.979   2.536
  172POPC    C222942   5.067   7.816   2.662
  172POPC    HS22943   5.176   7.812   2.639
  172POPC   O2122944   5.014   7.688   2.703
  172POPC   C2122945   5.097   7.619   2.782
  172POPC   O2222946   5.216   7.640   2.792
  172POPC   C2222947   5.022   7.511   2.861
  172POPC   H2R22948   5.089   7.423   2.864
  172POPC   H2S22949   4.928   7.485   2.809
  172POPC    C322950   5.045   7.920   2.775
  172POPC    HX22951   4.936   7.944   2.777
  172POPC    HY22952   5.098   8.014   2.748
  172POPC   O3122953   5.081   7.868   2.905
  172POPC   C3122954   5.195   7.909   2.957
  172POPC   O3222955   5.262   8.003   2.919
  172POPC   C3222956   5.232   7.814   3.071
  172POPC   H2X22957   5.243   7.713   3.026
  172POPC   H2Y22958   5.148   7.811   3.144
  172POPC   C2322959   4.996   7.542   3.009
  172POPC   H3R22960   5.032   7.643   3.038
  172POPC   H3S22961   5.056   7.469   3.070
  172POPC   C2422962   4.850   7.527   3.051
  172POPC   H4R22963   4.812   7.427   3.023
  172POPC   H4S22964   4.786   7.600   2.998
  172POPC   C2522965   4.843   7.548   3.202
  172POPC   H5R22966   4.861   7.656   3.222
  172POPC   H5S22967   4.927   7.489   3.245
  172POPC   C2622968   4.717   7.505   3.276
  172POPC   H6R22969   4.683   7.406   3.237
  172POPC   H6S22970   4.636   7.578   3.257
  172POPC   C2722971   4.742   7.491   3.428
  172POPC   H7R22972   4.802   7.399   3.445
  172POPC   H7S22973   4.645   7.473   3.478
  172POPC   C2822974   4.811   7.611   3.498
  172POPC   H8R22975   4.787   7.603   3.606
  172POPC   H8S22976   4.762   7.704   3.462
  172POPC   C2922977   4.961   7.621   3.477
  172POPC   H9122978   4.994   7.639   3.374
  172POPC  C21022979   5.059   7.615   3.568
  172POPC  H10122980   5.164   7.621   3.534
  172POPC  C21122981   5.043   7.595   3.716
  172POPC  H11R22982   5.121   7.524   3.751
  172POPC  H11S22983   4.945   7.550   3.742
  172POPC  C21222984   5.058   7.727   3.793
  172POPC  H12R22985   4.962   7.783   3.788
  172POPC  H12S22986   5.136   7.792   3.748
  172POPC  C21322987   5.096   7.703   3.940
  172POPC  H13R22988   5.075   7.797   3.996
  172POPC  H13S22989   5.205   7.684   3.946
  172POPC  C21422990   5.022   7.583   4.000
  172POPC  H14R22991   5.066   7.489   3.960
  172POPC  H14S22992   4.917   7.586   3.966
  172POPC  C21522993   5.023   7.573   4.153
  172POPC  H15R22994   5.125   7.541   4.186
  172POPC  H15S22995   4.953   7.491   4.180
  172POPC  C21622996   4.984   7.701   4.228
  172POPC  H16R22997   4.885   7.738   4.197
  172POPC  H16S22998   5.058   7.781   4.205
  172POPC  C21722999   4.980   7.680   4.379
  172POPC  H17R23000   4.973   7.779   4.429
  172POPC  H17S23001   5.077   7.633   4.409
  172POPC  C21823002   4.863   7.592   4.425
  172POPC  H18R23003   4.770   7.652   4.427
  172POPC  H18S23004   4.878   7.550   4.525
  172POPC  H18T23005   4.848   7.506   4.357
  172POPC   C3323006   5.364   7.849   3.141
  172POPC   H3X23007   5.348   7.928   3.217
  172POPC   H3Y23008   5.438   7.889   3.067
  172POPC   C3423009   5.428   7.725   3.205
  172POPC   H4X23010   5.441   7.647   3.127
  172POPC   H4Y23011   5.361   7.684   3.283
  172POPC   C3523012   5.566   7.757   3.264
  172POPC   H5X23013   5.555   7.830   3.347
  172POPC   H5Y23014   5.626   7.807   3.185
  172POPC   C3623015   5.644   7.633   3.312
  172POPC   H6X23016   5.741   7.669   3.354
  172POPC   H6Y23017   5.667   7.568   3.225
  172POPC   C3723018   5.574   7.549   3.421
  172POPC   H7X23019   5.647   7.474   3.458
  172POPC   H7Y23020   5.488   7.494   3.377
  172POPC   C3823021   5.525   7.634   3.540
  172POPC   H8X23022   5.434   7.691   3.509
  172POPC   H8Y23023   5.605   7.707   3.565
  172POPC   C3923024   5.491   7.550   3.664
  172POPC   H9X23025   5.584   7.501   3.701
  172POPC   H9Y23026   5.420   7.470   3.636
  172POPC  C31023027   5.431   7.634   3.779
  172POPC  H10X23028   5.408   7.567   3.864
  172POPC  H10Y23029   5.335   7.678   3.743
  172POPC  C31123030   5.523   7.748   3.825
  172POPC  H11X23031   5.538   7.819   3.741
  172POPC  H11Y23032   5.623   7.705   3.851
  172POPC  C31223033   5.472   7.828   3.945
  172POPC  H12X23034   5.374   7.874   3.919
  172POPC  H12Y23035   5.543   7.912   3.964
  172POPC  C31323036   5.457   7.749   4.076
  172POPC  H13X23037   5.550   7.693   4.100
  172POPC  H13Y23038   5.376   7.674   4.063
  172POPC  C31423039   5.419   7.843   4.191
  172POPC  H14X23040   5.363   7.925   4.140
  172POPC  H14Y23041   5.509   7.888   4.238
  172POPC  C31523042   5.324   7.784   4.296
  172POPC  H15X23043   5.268   7.699   4.253
  172POPC  H15Y23044   5.249   7.862   4.324
  172POPC  C31623045   5.393   7.740   4.425
  172POPC  H16X23046   5.467   7.815   4.458
  172POPC  H16Y23047   5.446   7.645   4.406
  172POPC  H16Z23048   5.319   7.723   4.506
  173POPC     N23049   7.390   3.256   2.138
  173POPC   C1223050   7.403   3.131   2.225
  173POPC  H12A23051   7.509   3.105   2.233
  173POPC  H12B23052   7.350   3.049   2.178
  173POPC   C1323053   7.498   3.353   2.177
  173POPC  H13A23054   7.500   3.440   2.112
  173POPC  H13B23055   7.486   3.384   2.281
  173POPC  H13C23056   7.595   3.305   2.172
  173POPC   C1423057   7.406   3.220   1.993
  173POPC  H14A23058   7.497   3.162   1.979
  173POPC  H14B23059   7.322   3.161   1.957
  173POPC  H14C23060   7.418   3.309   1.933
  173POPC   C1523061   7.257   3.319   2.163
  173POPC  H15A23062   7.252   3.418   2.120
  173POPC  H15B23063   7.247   3.329   2.271
  173POPC  H15C23064   7.178   3.256   2.123
  173POPC   C1123065   7.356   3.138   2.372
  173POPC  H11A23066   7.365   3.037   2.418
  173POPC  H11B23067   7.248   3.164   2.378
  173POPC     P23068   7.576   3.192   2.498
  173POPC   O1323069   7.651   3.317   2.524
  173POPC   O1423070   7.632   3.098   2.398
  173POPC   O1223071   7.431   3.235   2.444
  173POPC   O1123072   7.542   3.116   2.633
  173POPC    C123073   7.436   3.163   2.718
  173POPC    HA23074   7.364   3.079   2.730
  173POPC    HB23075   7.380   3.250   2.677
  173POPC    C223076   7.488   3.200   2.860
  173POPC    HS23077   7.399   3.218   2.925
  173POPC   O2123078   7.576   3.313   2.861
  173POPC   C2123079   7.516   3.429   2.851
  173POPC   O2223080   7.398   3.446   2.828
  173POPC   C2223081   7.612   3.541   2.893
  173POPC   H2R23082   7.549   3.626   2.926
  173POPC   H2S23083   7.666   3.574   2.801
  173POPC    C323084   7.569   3.084   2.920
  173POPC    HX23085   7.653   3.068   2.848
  173POPC    HY23086   7.508   2.991   2.921
  173POPC   O3123087   7.625   3.114   3.050
  173POPC   C3123088   7.540   3.110   3.151
  173POPC   O3223089   7.419   3.103   3.143
  173POPC   C3223090   7.615   3.103   3.286
  173POPC   H2X23091   7.622   2.996   3.314
  173POPC   H2Y23092   7.547   3.152   3.358
  173POPC   C2323093   7.714   3.503   3.004
  173POPC   H3R23094   7.816   3.516   2.960
  173POPC   H3S23095   7.707   3.396   3.034
  173POPC   C2423096   7.706   3.587   3.133
  173POPC   H4R23097   7.729   3.693   3.104
  173POPC   H4S23098   7.786   3.555   3.203
  173POPC   C2523099   7.571   3.586   3.207
  173POPC   H5R23100   7.491   3.609   3.135
  173POPC   H5S23101   7.573   3.669   3.282
  173POPC   C2623102   7.536   3.456   3.283
  173POPC   H6R23103   7.619   3.430   3.352
  173POPC   H6S23104   7.524   3.374   3.209
  173POPC   C2723105   7.405   3.471   3.365
  173POPC   H7R23106   7.324   3.492   3.291
  173POPC   H7S23107   7.414   3.560   3.431
  173POPC   C2823108   7.358   3.350   3.450
  173POPC   H8R23109   7.340   3.266   3.379
  173POPC   H8S23110   7.257   3.377   3.489
  173POPC   C2923111   7.442   3.303   3.566
  173POPC   H9123112   7.496   3.209   3.545
  173POPC  C21023113   7.456   3.354   3.690
  173POPC  H10123114   7.526   3.302   3.758
  173POPC  C21123115   7.392   3.476   3.752
  173POPC  H11R23116   7.384   3.556   3.674
  173POPC  H11S23117   7.461   3.518   3.829
  173POPC  C21223118   7.250   3.460   3.815
  173POPC  H12R23119   7.186   3.411   3.740
  173POPC  H12S23120   7.212   3.562   3.831
  173POPC  C21323121   7.240   3.384   3.951
  173POPC  H13R23122   7.276   3.446   4.035
  173POPC  H13S23123   7.316   3.302   3.939
  173POPC  C21423124   7.109   3.306   3.988
  173POPC  H14R23125   7.148   3.220   4.045
  173POPC  H14S23126   7.065   3.263   3.895
  173POPC  C21523127   6.992   3.356   4.082
  173POPC  H15R23128   6.937   3.263   4.110
  173POPC  H15S23129   6.919   3.416   4.025
  173POPC  C21623130   7.027   3.431   4.213
  173POPC  H16R23131   7.002   3.538   4.194
  173POPC  H16S23132   7.136   3.434   4.221
  173POPC  C21723133   6.961   3.397   4.353
  173POPC  H17R23134   6.917   3.490   4.394
  173POPC  H17S23135   7.040   3.374   4.425
  173POPC  C21823136   6.868   3.279   4.382
  173POPC  H18R23137   6.919   3.202   4.443
  173POPC  H18S23138   6.829   3.231   4.290
  173POPC  H18T23139   6.784   3.311   4.446
  173POPC   C3323140   7.754   3.169   3.296
  173POPC   H3X23141   7.750   3.269   3.248
  173POPC   H3Y23142   7.831   3.110   3.242
  173POPC   C3423143   7.797   3.191   3.443
  173POPC   H4X23144   7.709   3.220   3.502
  173POPC   H4Y23145   7.867   3.277   3.445
  173POPC   C3523146   7.866   3.071   3.512
  173POPC   H5X23147   7.965   3.052   3.465
  173POPC   H5Y23148   7.803   2.980   3.497
  173POPC   C3623149   7.883   3.091   3.664
  173POPC   H6X23150   7.923   2.998   3.710
  173POPC   H6Y23151   7.783   3.108   3.707
  173POPC   C3723152   7.976   3.208   3.703
  173POPC   H7X23153   7.978   3.285   3.623
  173POPC   H7Y23154   8.080   3.169   3.712
  173POPC   C3823155   7.936   3.279   3.834
  173POPC   H8X23156   8.020   3.345   3.867
  173POPC   H8Y23157   7.922   3.202   3.913
  173POPC   C3923158   7.810   3.365   3.819
  173POPC   H9X23159   7.728   3.302   3.779
  173POPC   H9Y23160   7.829   3.446   3.745
  173POPC  C31023161   7.761   3.430   3.950
  173POPC  H10X23162   7.678   3.501   3.928
  173POPC  H10Y23163   7.843   3.489   3.993
  173POPC  C31123164   7.712   3.329   4.053
  173POPC  H11X23165   7.796   3.259   4.078
  173POPC  H11Y23166   7.629   3.271   4.009
  173POPC  C31223167   7.657   3.389   4.182
  173POPC  H12X23168   7.548   3.407   4.171
  173POPC  H12Y23169   7.704   3.489   4.199
  173POPC  C31323170   7.686   3.300   4.304
  173POPC  H13X23171   7.722   3.367   4.385
  173POPC  H13Y23172   7.766   3.227   4.282
  173POPC  C31423173   7.561   3.229   4.353
  173POPC  H14X23174   7.510   3.190   4.262
  173POPC  H14Y23175   7.509   3.313   4.397
  173POPC  C31523176   7.568   3.126   4.467
  173POPC  H15X23177   7.614   3.173   4.556
  173POPC  H15Y23178   7.638   3.061   4.419
  173POPC  C31623179   7.457   3.031   4.520
  173POPC  H16X23180   7.443   2.943   4.454
  173POPC  H16Y23181   7.360   3.082   4.538
  173POPC  H16Z23182   7.488   2.988   4.618
  174POPC     N23183   7.686   5.343   2.378
  174POPC   C1223184   7.773   5.405   2.269
  174POPC  H12A23185   7.710   5.436   2.187
  174POPC  H12B23186   7.838   5.327   2.233
  174POPC   C1323187   7.759   5.319   2.505
  174POPC  H13A23188   7.699   5.263   2.576
  174POPC  H13B23189   7.850   5.264   2.487
  174POPC  H13C23190   7.783   5.415   2.550
  174POPC   C1423191   7.572   5.433   2.406
  174POPC  H14A23192   7.508   5.446   2.318
  174POPC  H14B23193   7.503   5.398   2.481
  174POPC  H14C23194   7.602   5.535   2.431
  174POPC   C1523195   7.631   5.212   2.327
  174POPC  H15A23196   7.562   5.169   2.399
  174POPC  H15B23197   7.710   5.139   2.312
  174POPC  H15C23198   7.576   5.226   2.235
  174POPC   C1123199   7.860   5.529   2.303
  174POPC  H11A23200   7.908   5.569   2.210
  174POPC  H11B23201   7.945   5.492   2.363
  174POPC     P23202   7.702   5.740   2.299
  174POPC   O1323203   7.559   5.729   2.334
  174POPC   O1423204   7.731   5.734   2.154
  174POPC   O1223205   7.789   5.630   2.373
  174POPC   O1123206   7.757   5.875   2.355
  174POPC    C123207   7.894   5.903   2.376
  174POPC    HA23208   7.910   6.007   2.341
  174POPC    HB23209   7.960   5.838   2.314
  174POPC    C223210   7.936   5.900   2.527
  174POPC    HS23211   8.037   5.946   2.535
  174POPC   O2123212   7.940   5.768   2.585
  174POPC   C2123213   8.025   5.683   2.534
  174POPC   O2223214   8.104   5.708   2.444
  174POPC   C2223215   8.023   5.550   2.614
  174POPC   H2R23216   8.127   5.512   2.614
  174POPC   H2S23217   7.962   5.477   2.560
  174POPC    C323218   7.840   5.987   2.613
  174POPC    HX23219   7.833   6.089   2.569
  174POPC    HY23220   7.883   5.999   2.715
  174POPC   O3123221   7.710   5.927   2.614
  174POPC   C3123222   7.697   5.830   2.703
  174POPC   O3223223   7.763   5.820   2.805
  174POPC   C3223224   7.582   5.739   2.662
  174POPC   H2X23225   7.612   5.693   2.566
  174POPC   H2Y23226   7.492   5.800   2.644
  174POPC   C2323227   7.972   5.557   2.760
  174POPC   H3R23228   7.864   5.583   2.764
  174POPC   H3S23229   8.027   5.637   2.814
  174POPC   C2423230   7.995   5.423   2.834
  174POPC   H4R23231   8.094   5.384   2.801
  174POPC   H4S23232   7.917   5.349   2.806
  174POPC   C2523233   8.003   5.438   2.986
  174POPC   H5R23234   8.079   5.516   3.009
  174POPC   H5S23235   8.039   5.343   3.031
  174POPC   C2623236   7.869   5.474   3.052
  174POPC   H6R23237   7.799   5.389   3.038
  174POPC   H6S23238   7.823   5.562   3.001
  174POPC   C2723239   7.883   5.504   3.202
  174POPC   H7R23240   7.932   5.417   3.251
  174POPC   H7S23241   7.781   5.514   3.245
  174POPC   C2823242   7.963   5.632   3.233
  174POPC   H8R23243   8.064   5.626   3.187
  174POPC   H8S23244   7.980   5.635   3.343
  174POPC   C2923245   7.892   5.756   3.182
  174POPC   H9123246   7.885   5.762   3.072
  174POPC  C21023247   7.838   5.855   3.255
  174POPC  H10123248   7.788   5.938   3.203
  174POPC  C21123249   7.839   5.865   3.406
  174POPC  H11R23250   7.909   5.945   3.437
  174POPC  H11S23251   7.879   5.772   3.452
  174POPC  C21223252   7.703   5.889   3.473
  174POPC  H12R23253   7.631   5.810   3.442
  174POPC  H12S23254   7.660   5.987   3.442
  174POPC  C21323255   7.722   5.884   3.625
  174POPC  H13R23256   7.782   5.973   3.653
  174POPC  H13S23257   7.782   5.794   3.649
  174POPC  C21423258   7.594   5.877   3.710
  174POPC  H14R23259   7.529   5.795   3.674
  174POPC  H14S23260   7.538   5.973   3.699
  174POPC  C21523261   7.626   5.853   3.859
  174POPC  H15R23262   7.647   5.745   3.874
  174POPC  H15S23263   7.536   5.878   3.920
  174POPC  C21623264   7.748   5.932   3.910
  174POPC  H16R23265   7.735   6.040   3.887
  174POPC  H16S23266   7.839   5.896   3.857
  174POPC  C21723267   7.775   5.917   4.060
  174POPC  H17R23268   7.873   5.966   4.084
  174POPC  H17S23269   7.785   5.810   4.086
  174POPC  C21823270   7.668   5.981   4.146
  174POPC  H18R23271   7.587   5.908   4.166
  174POPC  H18S23272   7.623   6.067   4.095
  174POPC  H18T23273   7.711   6.017   4.242
  174POPC   C3323274   7.555   5.625   2.761
  174POPC   H3X23275   7.645   5.561   2.772
  174POPC   H3Y23276   7.473   5.561   2.720
  174POPC   C3423277   7.511   5.676   2.898
  174POPC   H4X23278   7.422   5.743   2.889
  174POPC   H4Y23279   7.593   5.735   2.945
  174POPC   C3523280   7.480   5.560   2.992
  174POPC   H5X23281   7.554   5.478   2.978
  174POPC   H5Y23282   7.379   5.520   2.970
  174POPC   C3623283   7.488   5.607   3.137
  174POPC   H6X23284   7.434   5.704   3.148
  174POPC   H6Y23285   7.594   5.625   3.164
  174POPC   C3723286   7.424   5.504   3.228
  174POPC   H7X23287   7.473   5.405   3.214
  174POPC   H7Y23288   7.318   5.495   3.197
  174POPC   C3823289   7.427   5.547   3.374
  174POPC   H8X23290   7.355   5.485   3.432
  174POPC   H8Y23291   7.396   5.654   3.382
  174POPC   C3923292   7.565   5.538   3.438
  174POPC   H9X23293   7.551   5.584   3.538
  174POPC   H9Y23294   7.638   5.601   3.383
  174POPC  C31023295   7.619   5.395   3.449
  174POPC  H10X23296   7.639   5.354   3.347
  174POPC  H10Y23297   7.541   5.331   3.497
  174POPC  C31123298   7.747   5.390   3.532
  174POPC  H11X23299   7.828   5.446   3.479
  174POPC  H11Y23300   7.779   5.284   3.544
  174POPC  C31223301   7.724   5.453   3.669
  174POPC  H12X23302   7.634   5.405   3.714
  174POPC  H12Y23303   7.704   5.562   3.661
  174POPC  C31323304   7.842   5.439   3.763
  174POPC  H13X23305   7.915   5.520   3.742
  174POPC  H13Y23306   7.893   5.342   3.746
  174POPC  C31423307   7.794   5.447   3.907
  174POPC  H14X23308   7.704   5.383   3.923
  174POPC  H14Y23309   7.766   5.553   3.929
  174POPC  C31523310   7.906   5.402   3.999
  174POPC  H15X23311   7.998   5.438   3.949
  174POPC  H15Y23312   7.911   5.291   4.005
  174POPC  C31623313   7.898   5.463   4.138
  174POPC  H16X23314   7.991   5.518   4.161
  174POPC  H16Y23315   7.877   5.389   4.217
  174POPC  H16Z23316   7.820   5.541   4.139
  175POPC     N23317   5.072   1.722   2.309
  175POPC   C1223318   5.059   1.625   2.428
  175POPC  H12A23319   4.954   1.615   2.452
  175POPC  H12B23320   5.106   1.667   2.516
  175POPC   C1323321   4.986   1.671   2.197
  175POPC  H13A23322   5.003   1.720   2.102
  175POPC  H13B23323   5.004   1.564   2.185
  175POPC  H13C23324   4.881   1.681   2.221
  175POPC   C1423325   5.022   1.859   2.346
  175POPC  H14A23326   5.081   1.905   2.423
  175POPC  H14B23327   5.015   1.925   2.260
  175POPC  H14C23328   4.919   1.854   2.385
  175POPC   C1523329   5.214   1.727   2.260
  175POPC  H15A23330   5.247   1.627   2.230
  175POPC  H15B23331   5.283   1.761   2.337
  175POPC  H15C23332   5.226   1.792   2.174
  175POPC   C1123333   5.106   1.478   2.411
  175POPC  H11A23334   5.096   1.424   2.508
  175POPC  H11B23335   5.214   1.477   2.385
  175POPC     P23336   4.893   1.342   2.330
  175POPC   O1323337   4.911   1.221   2.411
  175POPC   O1423338   4.831   1.327   2.197
  175POPC   O1223339   5.033   1.413   2.309
  175POPC   O1123340   4.806   1.446   2.415
  175POPC    C123341   4.668   1.456   2.369
  175POPC    HA23342   4.629   1.356   2.337
  175POPC    HB23343   4.663   1.522   2.280
  175POPC    C223344   4.559   1.497   2.475
  175POPC    HS23345   4.460   1.475   2.430
  175POPC   O2123346   4.557   1.634   2.515
  175POPC   C2123347   4.574   1.728   2.426
  175POPC   O2223348   4.548   1.727   2.307
  175POPC   C2223349   4.663   1.831   2.492
  175POPC   H2R23350   4.602   1.900   2.553
  175POPC   H2S23351   4.710   1.887   2.409
  175POPC    C323352   4.568   1.415   2.607
  175POPC    HX23353   4.541   1.310   2.581
  175POPC    HY23354   4.490   1.456   2.676
  175POPC   O3123355   4.699   1.426   2.670
  175POPC   C3123356   4.745   1.315   2.726
  175POPC   O3223357   4.681   1.212   2.743
  175POPC   C3223358   4.890   1.337   2.768
  175POPC   H2X23359   4.915   1.444   2.762
  175POPC   H2Y23360   4.955   1.285   2.694
  175POPC   C2323361   4.770   1.760   2.577
  175POPC   H3R23362   4.827   1.690   2.513
  175POPC   H3S23363   4.719   1.698   2.653
  175POPC   C2423364   4.864   1.856   2.649
  175POPC   H4R23365   4.796   1.916   2.714
  175POPC   H4S23366   4.914   1.927   2.580
  175POPC   C2523367   4.962   1.783   2.741
  175POPC   H5R23368   5.027   1.858   2.790
  175POPC   H5S23369   5.030   1.716   2.685
  175POPC   C2623370   4.879   1.706   2.843
  175POPC   H6R23371   4.836   1.616   2.797
  175POPC   H6S23372   4.791   1.768   2.873
  175POPC   C2723373   4.950   1.669   2.972
  175POPC   H7R23374   4.997   1.760   3.018
  175POPC   H7S23375   5.032   1.598   2.949
  175POPC   C2823376   4.846   1.605   3.062
  175POPC   H8R23377   4.880   1.506   3.095
  175POPC   H8S23378   4.754   1.583   3.002
  175POPC   C2923379   4.809   1.686   3.181
  175POPC   H9123380   4.859   1.783   3.186
  175POPC  C21023381   4.734   1.639   3.281
  175POPC  H10123382   4.705   1.705   3.364
  175POPC  C21123383   4.680   1.498   3.281
  175POPC  H11R23384   4.717   1.437   3.195
  175POPC  H11S23385   4.571   1.498   3.268
  175POPC  C21223386   4.727   1.422   3.406
  175POPC  H12R23387   4.838   1.429   3.412
  175POPC  H12S23388   4.702   1.315   3.393
  175POPC  C21323389   4.668   1.470   3.539
  175POPC  H13R23390   4.560   1.445   3.542
  175POPC  H13S23391   4.678   1.580   3.552
  175POPC  C21423392   4.736   1.398   3.657
  175POPC  H14R23393   4.837   1.442   3.672
  175POPC  H14S23394   4.751   1.291   3.629
  175POPC  C21523395   4.655   1.403   3.786
  175POPC  H15R23396   4.553   1.365   3.766
  175POPC  H15S23397   4.646   1.509   3.821
  175POPC  C21623398   4.720   1.317   3.896
  175POPC  H16R23399   4.824   1.354   3.912
  175POPC  H16S23400   4.729   1.212   3.861
  175POPC  C21723401   4.643   1.320   4.029
  175POPC  H17R23402   4.606   1.423   4.050
  175POPC  H17S23403   4.714   1.293   4.110
  175POPC  C21823404   4.526   1.223   4.032
  175POPC  H18R23405   4.561   1.124   4.000
  175POPC  H18S23406   4.446   1.255   3.962
  175POPC  H18T23407   4.483   1.215   4.134
  175POPC   C3323408   4.915   1.288   2.912
  175POPC   H3X23409   4.900   1.178   2.918
  175POPC   H3Y23410   4.841   1.335   2.980
  175POPC   C3423411   5.057   1.322   2.962
  175POPC   H4X23412   5.096   1.411   2.910
  175POPC   H4Y23413   5.123   1.237   2.935
  175POPC   C3523414   5.069   1.337   3.113
  175POPC   H5X23415   5.002   1.262   3.162
  175POPC   H5Y23416   5.042   1.437   3.151
  175POPC   C3623417   5.212   1.319   3.159
  175POPC   H6X23418   5.276   1.402   3.125
  175POPC   H6Y23419   5.249   1.226   3.112
  175POPC   C3723420   5.217   1.302   3.310
  175POPC   H7X23421   5.321   1.276   3.339
  175POPC   H7Y23422   5.151   1.216   3.336
  175POPC   C3823423   5.166   1.417   3.396
  175POPC   H8X23424   5.055   1.424   3.391
  175POPC   H8Y23425   5.206   1.513   3.358
  175POPC   C3923426   5.208   1.388   3.539
  175POPC   H9X23427   5.312   1.348   3.541
  175POPC   H9Y23428   5.139   1.311   3.579
  175POPC  C31023429   5.202   1.506   3.632
  175POPC  H10X23430   5.134   1.581   3.587
  175POPC  H10Y23431   5.305   1.545   3.638
  175POPC  C31123432   5.162   1.472   3.775
  175POPC  H11X23433   5.245   1.417   3.824
  175POPC  H11Y23434   5.071   1.408   3.775
  175POPC  C31223435   5.134   1.599   3.853
  175POPC  H12X23436   5.220   1.668   3.850
  175POPC  H12Y23437   5.119   1.572   3.960
  175POPC  C31323438   5.015   1.674   3.795
  175POPC  H13X23439   4.930   1.605   3.774
  175POPC  H13Y23440   5.043   1.723   3.700
  175POPC  C31423441   4.971   1.779   3.893
  175POPC  H14X23442   4.929   1.865   3.837
  175POPC  H14Y23443   5.060   1.817   3.948
  175POPC  C31523444   4.863   1.727   3.989
  175POPC  H15X23445   4.765   1.737   3.937
  175POPC  H15Y23446   4.866   1.798   4.075
  175POPC  C31623447   4.870   1.586   4.050
  175POPC  H16X23448   4.767   1.549   4.064
  175POPC  H16Y23449   4.917   1.588   4.150
  175POPC  H16Z23450   4.925   1.514   3.988
  176POPC     N23451   2.056   2.772   2.184
  176POPC   C1223452   2.196   2.749   2.128
  176POPC  H12A23453   2.211   2.821   2.049
  176POPC  H12B23454   2.199   2.650   2.083
  176POPC   C1323455   1.958   2.772   2.071
  176POPC  H13A23456   1.856   2.782   2.103
  176POPC  H13B23457   1.978   2.852   2.000
  176POPC  H13C23458   1.966   2.680   2.013
  176POPC   C1423459   2.025   2.663   2.281
  176POPC  H14A23460   2.011   2.569   2.230
  176POPC  H14B23461   2.113   2.651   2.345
  176POPC  H14C23462   1.942   2.686   2.344
  176POPC   C1523463   2.057   2.905   2.254
  176POPC  H15A23464   2.108   2.980   2.194
  176POPC  H15B23465   2.115   2.895   2.346
  176POPC  H15C23466   1.958   2.941   2.275
  176POPC   C1123467   2.317   2.755   2.223
  176POPC  H11A23468   2.327   2.863   2.254
  176POPC  H11B23469   2.409   2.729   2.165
  176POPC     P23470   2.378   2.706   2.466
  176POPC   O1323471   2.349   2.849   2.493
  176POPC   O1423472   2.520   2.667   2.450
  176POPC   O1223473   2.303   2.664   2.333
  176POPC   O1123474   2.310   2.619   2.579
  176POPC    C123475   2.273   2.484   2.558
  176POPC    HA23476   2.338   2.436   2.483
  176POPC    HB23477   2.169   2.480   2.520
  176POPC    C223478   2.286   2.400   2.689
  176POPC    HS23479   2.237   2.302   2.670
  176POPC   O2123480   2.227   2.459   2.805
  176POPC   C2123481   2.104   2.501   2.803
  176POPC   O2223482   2.024   2.493   2.711
  176POPC   C2223483   2.069   2.543   2.946
  176POPC   H2R23484   2.115   2.642   2.968
  176POPC   H2S23485   2.117   2.468   3.013
  176POPC    C323486   2.435   2.370   2.726
  176POPC    HX23487   2.476   2.303   2.647
  176POPC    HY23488   2.436   2.312   2.822
  176POPC   O3123489   2.517   2.488   2.733
  176POPC   C3123490   2.505   2.562   2.844
  176POPC   O3223491   2.445   2.530   2.945
  176POPC   C3223492   2.593   2.687   2.832
  176POPC   H2X23493   2.645   2.683   2.734
  176POPC   H2Y23494   2.669   2.682   2.912
  176POPC   C2323495   1.916   2.545   2.973
  176POPC   H3R23496   1.867   2.474   2.902
  176POPC   H3S23497   1.875   2.646   2.954
  176POPC   C2423498   1.877   2.495   3.113
  176POPC   H4R23499   1.946   2.412   3.143
  176POPC   H4S23500   1.775   2.452   3.108
  176POPC   C2523501   1.876   2.603   3.222
  176POPC   H5R23502   1.797   2.678   3.198
  176POPC   H5S23503   1.974   2.656   3.225
  176POPC   C2623504   1.847   2.541   3.359
  176POPC   H6R23505   1.925   2.464   3.382
  176POPC   H6S23506   1.750   2.487   3.353
  176POPC   C2723507   1.841   2.638   3.478
  176POPC   H7R23508   1.942   2.676   3.500
  176POPC   H7S23509   1.808   2.579   3.567
  176POPC   C2823510   1.750   2.761   3.459
  176POPC   H8R23511   1.656   2.727   3.410
  176POPC   H8S23512   1.799   2.833   3.389
  176POPC   C2923513   1.719   2.823   3.593
  176POPC   H9123514   1.648   2.764   3.652
  176POPC  C21023515   1.773   2.929   3.653
  176POPC  H10123516   1.737   2.956   3.754
  176POPC  C21123517   1.882   3.017   3.600
  176POPC  H11R23518   1.862   3.124   3.624
  176POPC  H11S23519   1.893   3.009   3.489
  176POPC  C21223520   2.012   2.972   3.668
  176POPC  H12R23521   2.024   2.862   3.664
  176POPC  H12S23522   2.008   2.999   3.776
  176POPC  C21323523   2.136   3.036   3.604
  176POPC  H13R23524   2.107   3.137   3.571
  176POPC  H13S23525   2.167   2.979   3.514
  176POPC  C21423526   2.254   3.049   3.702
  176POPC  H14R23527   2.215   3.084   3.801
  176POPC  H14S23528   2.325   3.126   3.664
  176POPC  C21523529   2.331   2.920   3.723
  176POPC  H15R23530   2.387   2.896   3.630
  176POPC  H15S23531   2.257   2.838   3.743
  176POPC  C21623532   2.428   2.927   3.840
  176POPC  H16R23533   2.430   3.032   3.878
  176POPC  H16S23534   2.531   2.902   3.806
  176POPC  C21723535   2.388   2.833   3.953
  176POPC  H17R23536   2.426   2.731   3.932
  176POPC  H17S23537   2.277   2.827   3.963
  176POPC  C21823538   2.444   2.884   4.084
  176POPC  H18R23539   2.397   2.981   4.112
  176POPC  H18S23540   2.553   2.902   4.070
  176POPC  H18T23541   2.429   2.811   4.166
  176POPC   C3323542   2.512   2.818   2.842
  176POPC   H3X23543   2.425   2.810   2.773
  176POPC   H3Y23544   2.574   2.903   2.804
  176POPC   C3423545   2.461   2.853   2.983
  176POPC   H4X23546   2.426   2.760   3.033
  176POPC   H4Y23547   2.372   2.919   2.970
  176POPC   C3523548   2.560   2.927   3.075
  176POPC   H5X23549   2.589   3.022   3.024
  176POPC   H5Y23550   2.652   2.867   3.091
  176POPC   C3623551   2.498   2.963   3.210
  176POPC   H6X23552   2.387   2.964   3.201
  176POPC   H6Y23553   2.528   3.067   3.238
  176POPC   C3723554   2.536   2.869   3.326
  176POPC   H7X23555   2.503   2.917   3.421
  176POPC   H7Y23556   2.647   2.860   3.329
  176POPC   C3823557   2.473   2.728   3.319
  176POPC   H8X23558   2.499   2.675   3.414
  176POPC   H8Y23559   2.520   2.672   3.236
  176POPC   C3923560   2.320   2.726   3.299
  176POPC   H9X23561   2.301   2.698   3.192
  176POPC   H9Y23562   2.276   2.827   3.315
  176POPC  C31023563   2.243   2.627   3.388
  176POPC  H10X23564   2.306   2.536   3.401
  176POPC  H10Y23565   2.151   2.595   3.334
  176POPC  C31123566   2.201   2.685   3.525
  176POPC  H11X23567   2.124   2.762   3.510
  176POPC  H11Y23568   2.293   2.732   3.564
  176POPC  C31223569   2.159   2.575   3.624
  176POPC  H12X23570   2.256   2.521   3.626
  176POPC  H12Y23571   2.081   2.510   3.581
  176POPC  C31323572   2.137   2.594   3.777
  176POPC  H13X23573   2.224   2.643   3.824
  176POPC  H13Y23574   2.139   2.488   3.815
  176POPC  C31423575   2.005   2.649   3.835
  176POPC  H14X23576   1.922   2.640   3.761
  176POPC  H14Y23577   2.018   2.757   3.859
  176POPC  C31523578   1.966   2.573   3.964
  176POPC  H15X23579   2.057   2.565   4.027
  176POPC  H15Y23580   1.937   2.469   3.936
  176POPC  C31623581   1.854   2.634   4.050
  176POPC  H16X23582   1.759   2.641   3.993
  176POPC  H16Y23583   1.883   2.735   4.085
  176POPC  H16Z23584   1.837   2.571   4.140
  177POPC     N23585   1.714   4.848   2.297
  177POPC   C1223586   1.612   4.847   2.410
  177POPC  H12A23587   1.657   4.895   2.496
  177POPC  H12B23588   1.589   4.745   2.439
  177POPC   C1323589   1.783   4.982   2.290
  177POPC  H13A23590   1.706   5.059   2.299
  177POPC  H13B23591   1.855   4.999   2.368
  177POPC  H13C23592   1.829   5.000   2.193
  177POPC   C1423593   1.814   4.740   2.309
  177POPC  H14A23594   1.867   4.745   2.404
  177POPC  H14B23595   1.766   4.644   2.299
  177POPC  H14C23596   1.888   4.751   2.230
  177POPC   C1523597   1.642   4.837   2.168
  177POPC  H15A23598   1.570   4.920   2.160
  177POPC  H15B23599   1.586   4.745   2.158
  177POPC  H15C23600   1.708   4.847   2.082
  177POPC   C1123601   1.479   4.921   2.381
  177POPC  H11A23602   1.423   4.936   2.476
  177POPC  H11B23603   1.414   4.862   2.313
  177POPC     P23604   1.435   5.178   2.323
  177POPC   O1323605   1.292   5.140   2.307
  177POPC   O1423606   1.494   5.252   2.209
  177POPC   O1223607   1.512   5.043   2.320
  177POPC   O1123608   1.480   5.231   2.465
  177POPC    C123609   1.602   5.182   2.524
  177POPC    HA23610   1.687   5.189   2.452
  177POPC    HB23611   1.590   5.076   2.557
  177POPC    C223612   1.646   5.262   2.649
  177POPC    HS23613   1.752   5.235   2.672
  177POPC   O2123614   1.559   5.236   2.763
  177POPC   C2123615   1.598   5.135   2.841
  177POPC   O2223616   1.691   5.061   2.818
  177POPC   C2223617   1.501   5.124   2.958
  177POPC   H2R23618   1.400   5.104   2.916
  177POPC   H2S23619   1.498   5.221   3.010
  177POPC    C323620   1.647   5.413   2.612
  177POPC    HX23621   1.556   5.440   2.554
  177POPC    HY23622   1.733   5.429   2.543
  177POPC   O3123623   1.668   5.492   2.730
  177POPC   C3123624   1.559   5.540   2.784
  177POPC   O3223625   1.448   5.542   2.734
  177POPC   C3223626   1.594   5.570   2.931
  177POPC   H2X23627   1.583   5.677   2.951
  177POPC   H2Y23628   1.702   5.547   2.946
  177POPC   C2323629   1.536   5.015   3.062
  177POPC   H3R23630   1.633   5.039   3.113
  177POPC   H3S23631   1.546   4.916   3.013
  177POPC   C2423632   1.423   5.009   3.165
  177POPC   H4R23633   1.330   4.987   3.107
  177POPC   H4S23634   1.410   5.108   3.213
  177POPC   C2523635   1.436   4.901   3.274
  177POPC   H5R23636   1.476   4.806   3.232
  177POPC   H5S23637   1.331   4.882   3.305
  177POPC   C2623638   1.514   4.945   3.399
  177POPC   H6R23639   1.481   5.048   3.426
  177POPC   H6S23640   1.622   4.949   3.373
  177POPC   C2723641   1.490   4.856   3.523
  177POPC   H7R23642   1.526   4.753   3.500
  177POPC   H7S23643   1.382   4.850   3.544
  177POPC   C2823644   1.554   4.907   3.653
  177POPC   H8R23645   1.552   4.825   3.729
  177POPC   H8S23646   1.490   4.989   3.694
  177POPC   C2923647   1.695   4.953   3.631
  177POPC   H9123648   1.756   4.886   3.568
  177POPC  C21023649   1.752   5.066   3.676
  177POPC  H10123650   1.855   5.088   3.647
  177POPC  C21123651   1.688   5.173   3.760
  177POPC  H11R23652   1.579   5.180   3.745
  177POPC  H11S23653   1.729   5.271   3.726
  177POPC  C21223654   1.718   5.156   3.910
  177POPC  H12R23655   1.819   5.110   3.923
  177POPC  H12S23656   1.645   5.088   3.957
  177POPC  C21323657   1.720   5.292   3.979
  177POPC  H13R23658   1.621   5.341   3.974
  177POPC  H13S23659   1.794   5.353   3.922
  177POPC  C21423660   1.773   5.291   4.122
  177POPC  H14R23661   1.858   5.219   4.126
  177POPC  H14S23662   1.695   5.255   4.192
  177POPC  C21523663   1.825   5.428   4.167
  177POPC  H15R23664   1.741   5.499   4.166
  177POPC  H15S23665   1.901   5.468   4.096
  177POPC  C21623666   1.886   5.411   4.306
  177POPC  H16R23667   1.960   5.328   4.300
  177POPC  H16S23668   1.805   5.378   4.372
  177POPC  C21723669   1.957   5.528   4.373
  177POPC  H17R23670   1.963   5.508   4.482
  177POPC  H17S23671   1.904   5.624   4.361
  177POPC  C21823672   2.097   5.545   4.319
  177POPC  H18R23673   2.092   5.563   4.210
  177POPC  H18S23674   2.160   5.455   4.339
  177POPC  H18T23675   2.142   5.632   4.369
  177POPC   C3323676   1.514   5.477   3.025
  177POPC   H3X23677   1.587   5.405   3.070
  177POPC   H3Y23678   1.440   5.418   2.967
  177POPC   C3423679   1.435   5.542   3.138
  177POPC   H4X23680   1.351   5.601   3.097
  177POPC   H4Y23681   1.501   5.609   3.198
  177POPC   C3523682   1.378   5.433   3.229
  177POPC   H5X23683   1.329   5.354   3.169
  177POPC   H5Y23684   1.298   5.480   3.292
  177POPC   C3623685   1.487   5.371   3.319
  177POPC   H6X23686   1.559   5.451   3.350
  177POPC   H6Y23687   1.543   5.294   3.261
  177POPC   C3723688   1.429   5.309   3.446
  177POPC   H7X23689   1.510   5.259   3.503
  177POPC   H7Y23690   1.355   5.231   3.415
  177POPC   C3823691   1.360   5.413   3.535
  177POPC   H8X23692   1.372   5.515   3.491
  177POPC   H8Y23693   1.412   5.418   3.633
  177POPC   C3923694   1.211   5.383   3.554
  177POPC   H9X23695   1.161   5.377   3.454
  177POPC   H9Y23696   1.163   5.467   3.609
  177POPC  C31023697   1.186   5.253   3.632
  177POPC  H10X23698   1.216   5.165   3.570
  177POPC  H10Y23699   1.078   5.241   3.652
  177POPC  C31123700   1.267   5.252   3.762
  177POPC  H11X23701   1.262   5.351   3.811
  177POPC  H11Y23702   1.373   5.233   3.735
  177POPC  C31223703   1.225   5.145   3.862
  177POPC  H12X23704   1.214   5.049   3.807
  177POPC  H12Y23705   1.128   5.171   3.909
  177POPC  C31323706   1.332   5.124   3.970
  177POPC  H13X23707   1.433   5.142   3.927
  177POPC  H13Y23708   1.330   5.017   4.000
  177POPC  C31423709   1.313   5.208   4.096
  177POPC  H14X23710   1.207   5.204   4.129
  177POPC  H14Y23711   1.338   5.314   4.075
  177POPC  C31523712   1.401   5.152   4.208
  177POPC  H15X23713   1.505   5.149   4.168
  177POPC  H15Y23714   1.370   5.048   4.231
  177POPC  C31623715   1.399   5.235   4.336
  177POPC  H16X23716   1.455   5.327   4.317
  177POPC  H16Y23717   1.450   5.181   4.420
  177POPC  H16Z23718   1.296   5.262   4.367
  178POPC     N23719   1.643   3.525   2.470
  178POPC   C1223720   1.753   3.418   2.472
  178POPC  H12A23721   1.778   3.394   2.574
  178POPC  H12B23722   1.843   3.462   2.428
  178POPC   C1323723   1.610   3.557   2.327
  178POPC  H13A23724   1.538   3.636   2.321
  178POPC  H13B23725   1.702   3.582   2.273
  178POPC  H13C23726   1.576   3.466   2.278
  178POPC   C1423727   1.515   3.479   2.537
  178POPC  H14A23728   1.530   3.445   2.639
  178POPC  H14B23729   1.441   3.559   2.541
  178POPC  H14C23730   1.472   3.396   2.481
  178POPC   C1523731   1.694   3.651   2.533
  178POPC  H15A23732   1.620   3.731   2.526
  178POPC  H15B23733   1.783   3.685   2.481
  178POPC  H15C23734   1.718   3.638   2.637
  178POPC   C1123735   1.730   3.283   2.396
  178POPC  H11A23736   1.631   3.242   2.424
  178POPC  H11B23737   1.806   3.210   2.432
  178POPC     P23738   1.869   3.351   2.182
  178POPC   O1323739   1.867   3.496   2.205
  178POPC   O1423740   1.875   3.304   2.042
  178POPC   O1223741   1.738   3.293   2.254
  178POPC   O1123742   1.985   3.288   2.269
  178POPC    C123743   2.083   3.373   2.328
  178POPC    HA23744   2.044   3.475   2.354
  178POPC    HB23745   2.167   3.385   2.256
  178POPC    C223746   2.136   3.311   2.458
  178POPC    HS23747   2.199   3.225   2.425
  178POPC   O2123748   2.024   3.267   2.539
  178POPC   C2123749   2.063   3.172   2.624
  178POPC   O2223750   2.179   3.141   2.641
  178POPC   C2223751   1.942   3.094   2.676
  178POPC   H2R23752   1.888   3.058   2.585
  178POPC   H2S23753   1.877   3.162   2.734
  178POPC    C323754   2.225   3.411   2.538
  178POPC    HX23755   2.301   3.451   2.469
  178POPC    HY23756   2.283   3.358   2.617
  178POPC   O3123757   2.149   3.522   2.587
  178POPC   C3123758   2.104   3.506   2.711
  178POPC   O3223759   2.134   3.417   2.787
  178POPC   C3223760   2.007   3.620   2.745
  178POPC   H2X23761   1.965   3.660   2.650
  178POPC   H2Y23762   2.068   3.698   2.792
  178POPC   C2323763   1.985   2.971   2.760
  178POPC   H3R23764   2.083   2.930   2.725
  178POPC   H3S23765   1.911   2.890   2.745
  178POPC   C2423766   1.991   3.000   2.911
  178POPC   H4R23767   2.023   2.906   2.962
  178POPC   H4S23768   1.890   3.027   2.948
  178POPC   C2523769   2.092   3.111   2.951
  178POPC   H5R23770   2.066   3.206   2.901
  178POPC   H5S23771   2.192   3.080   2.912
  178POPC   C2623772   2.101   3.137   3.102
  178POPC   H6R23773   2.076   3.042   3.155
  178POPC   H6S23774   2.027   3.212   3.134
  178POPC   C2723775   2.242   3.179   3.149
  178POPC   H7R23776   2.315   3.119   3.090
  178POPC   H7S23777   2.255   3.152   3.256
  178POPC   C2823778   2.282   3.326   3.129
  178POPC   H8R23779   2.281   3.343   3.018
  178POPC   H8S23780   2.388   3.337   3.160
  178POPC   C2923781   2.201   3.437   3.193
  178POPC   H9123782   2.173   3.514   3.120
  178POPC  C21023783   2.164   3.460   3.320
  178POPC  H10123784   2.105   3.551   3.339
  178POPC  C21123785   2.193   3.381   3.446
  178POPC  H11R23786   2.296   3.402   3.478
  178POPC  H11S23787   2.183   3.272   3.428
  178POPC  C21223788   2.098   3.425   3.559
  178POPC  H12R23789   1.999   3.377   3.541
  178POPC  H12S23790   2.084   3.535   3.555
  178POPC  C21323791   2.144   3.392   3.703
  178POPC  H13R23792   2.226   3.461   3.734
  178POPC  H13S23793   2.187   3.291   3.703
  178POPC  C21423794   2.030   3.396   3.806
  178POPC  H14R23795   1.932   3.383   3.753
  178POPC  H14S23796   2.028   3.496   3.855
  178POPC  C21523797   2.038   3.286   3.913
  178POPC  H15R23798   2.140   3.286   3.958
  178POPC  H15S23799   2.023   3.188   3.864
  178POPC  C21623800   1.933   3.303   4.025
  178POPC  H16R23801   1.831   3.301   3.981
  178POPC  H16S23802   1.948   3.403   4.071
  178POPC  C21723803   1.943   3.196   4.136
  178POPC  H17R23804   1.881   3.230   4.222
  178POPC  H17S23805   2.049   3.191   4.171
  178POPC  C21823806   1.896   3.056   4.095
  178POPC  H18R23807   1.905   2.986   4.181
  178POPC  H18S23808   1.958   3.016   4.011
  178POPC  H18T23809   1.790   3.059   4.062
  178POPC   C3323810   1.892   3.581   2.841
  178POPC   H3X23811   1.846   3.484   2.810
  178POPC   H3Y23812   1.813   3.659   2.838
  178POPC   C3423813   1.941   3.572   2.986
  178POPC   H4X23814   1.985   3.670   3.016
  178POPC   H4Y23815   2.022   3.496   2.990
  178POPC   C3523816   1.836   3.531   3.090
  178POPC   H5X23817   1.754   3.605   3.095
  178POPC   H5Y23818   1.888   3.532   3.189
  178POPC   C3623819   1.778   3.391   3.065
  178POPC   H6X23820   1.862   3.318   3.055
  178POPC   H6Y23821   1.723   3.392   2.969
  178POPC   C3723822   1.681   3.342   3.174
  178POPC   H7X23823   1.640   3.243   3.145
  178POPC   H7Y23824   1.595   3.413   3.176
  178POPC   C3823825   1.741   3.330   3.316
  178POPC   H8X23826   1.821   3.405   3.332
  178POPC   H8Y23827   1.791   3.230   3.325
  178POPC   C3923828   1.638   3.347   3.429
  178POPC   H9X23829   1.690   3.329   3.526
  178POPC   H9Y23830   1.560   3.269   3.418
  178POPC  C31023831   1.570   3.485   3.435
  178POPC  H10X23832   1.502   3.487   3.523
  178POPC  H10Y23833   1.505   3.498   3.345
  178POPC  C31123834   1.665   3.607   3.444
  178POPC  H11X23835   1.602   3.699   3.448
  178POPC  H11Y23836   1.726   3.614   3.351
  178POPC  C31223837   1.757   3.603   3.566
  178POPC  H12X23838   1.838   3.530   3.547
  178POPC  H12Y23839   1.699   3.564   3.653
  178POPC  C31323840   1.818   3.739   3.607
  178POPC  H13X23841   1.736   3.808   3.635
  178POPC  H13Y23842   1.872   3.782   3.521
  178POPC  C31423843   1.914   3.722   3.725
  178POPC  H14X23844   2.001   3.662   3.692
  178POPC  H14Y23845   1.863   3.665   3.806
  178POPC  C31523846   1.969   3.852   3.786
  178POPC  H15X23847   1.887   3.908   3.835
  178POPC  H15Y23848   2.012   3.916   3.705
  178POPC  C31623849   2.079   3.821   3.888
  178POPC  H16X23850   2.166   3.775   3.838
  178POPC  H16Y23851   2.042   3.749   3.964
  178POPC  H16Z23852   2.114   3.912   3.941
  179POPC     N23853   7.799   4.042   2.157
  179POPC   C1223854   7.885   3.917   2.166
  179POPC  H12A23855   7.926   3.894   2.069
  179POPC  H12B23856   7.820   3.836   2.199
  179POPC   C1323857   7.735   4.075   2.288
  179POPC  H13A23858   7.677   4.168   2.284
  179POPC  H13B23859   7.671   3.996   2.326
  179POPC  H13C23860   7.810   4.088   2.367
  179POPC   C1423861   7.879   4.160   2.113
  179POPC  H14A23862   7.949   4.188   2.190
  179POPC  H14B23863   7.935   4.142   2.022
  179POPC  H14C23864   7.813   4.244   2.092
  179POPC   C1523865   7.691   4.021   2.055
  179POPC  H15A23866   7.613   3.957   2.093
  179POPC  H15B23867   7.731   3.976   1.965
  179POPC  H15C23868   7.647   4.117   2.030
  179POPC   C1123869   7.998   3.917   2.269
  179POPC  H11A23870   8.059   4.011   2.260
  179POPC  H11B23871   8.068   3.832   2.250
  179POPC     P23872   8.008   3.957   2.524
  179POPC   O1323873   8.151   3.971   2.490
  179POPC   O1423874   7.967   3.879   2.642
  179POPC   O1223875   7.936   3.899   2.395
  179POPC   O1123876   7.941   4.101   2.526
  179POPC    C123877   7.999   4.215   2.462
  179POPC    HA23878   7.984   4.210   2.353
  179POPC    HB23879   8.110   4.218   2.480
  179POPC    C223880   7.943   4.350   2.516
  179POPC    HS23881   8.017   4.431   2.497
  179POPC   O2123882   7.920   4.336   2.656
  179POPC   C2123883   8.029   4.326   2.727
  179POPC   O2223884   8.139   4.365   2.691
  179POPC   C2223885   7.991   4.285   2.868
  179POPC   H2R23886   8.058   4.202   2.900
  179POPC   H2S23887   7.887   4.248   2.867
  179POPC    C323888   7.811   4.402   2.447
  179POPC    HX23889   7.834   4.419   2.339
  179POPC    HY23890   7.785   4.503   2.487
  179POPC   O3123891   7.700   4.311   2.454
  179POPC   C3123892   7.638   4.315   2.572
  179POPC   O3223893   7.662   4.395   2.660
  179POPC   C3223894   7.533   4.205   2.579
  179POPC   H2X23895   7.510   4.169   2.477
  179POPC   H2Y23896   7.440   4.249   2.622
  179POPC   C2323897   8.003   4.409   2.958
  179POPC   H3R23898   7.970   4.500   2.903
  179POPC   H3S23899   8.110   4.422   2.985
  179POPC   C2423900   7.916   4.400   3.084
  179POPC   H4R23901   7.815   4.363   3.058
  179POPC   H4S23902   7.904   4.503   3.124
  179POPC   C2523903   7.980   4.312   3.192
  179POPC   H5R23904   8.087   4.340   3.202
  179POPC   H5S23905   7.976   4.206   3.160
  179POPC   C2623906   7.913   4.330   3.329
  179POPC   H6R23907   7.810   4.289   3.324
  179POPC   H6S23908   7.904   4.438   3.352
  179POPC   C2723909   7.993   4.260   3.440
  179POPC   H7R23910   8.094   4.307   3.449
  179POPC   H7S23911   8.010   4.155   3.407
  179POPC   C2823912   7.922   4.256   3.576
  179POPC   H8R23913   7.968   4.171   3.632
  179POPC   H8S23914   7.815   4.230   3.560
  179POPC   C2923915   7.939   4.380   3.661
  179POPC   H9123916   8.039   4.426   3.656
  179POPC  C21023917   7.846   4.437   3.739
  179POPC  H10123918   7.872   4.529   3.793
  179POPC  C21123919   7.704   4.390   3.761
  179POPC  H11R23920   7.655   4.368   3.663
  179POPC  H11S23921   7.646   4.472   3.810
  179POPC  C21223922   7.683   4.266   3.847
  179POPC  H12R23923   7.737   4.278   3.943
  179POPC  H12S23924   7.724   4.179   3.791
  179POPC  C21323925   7.534   4.239   3.875
  179POPC  H13R23926   7.484   4.221   3.777
  179POPC  H13S23927   7.487   4.329   3.921
  179POPC  C21423928   7.507   4.117   3.965
  179POPC  H14R23929   7.560   4.030   3.920
  179POPC  H14S23930   7.398   4.093   3.962
  179POPC  C21523931   7.548   4.131   4.112
  179POPC  H15R23932   7.657   4.149   4.120
  179POPC  H15S23933   7.524   4.035   4.164
  179POPC  C21623934   7.477   4.244   4.187
  179POPC  H16R23935   7.370   4.244   4.156
  179POPC  H16S23936   7.522   4.341   4.156
  179POPC  C21723937   7.484   4.230   4.340
  179POPC  H17R23938   7.441   4.131   4.367
  179POPC  H17S23939   7.420   4.308   4.386
  179POPC  C21823940   7.624   4.242   4.402
  179POPC  H18R23941   7.665   4.344   4.387
  179POPC  H18S23942   7.694   4.169   4.355
  179POPC  H18T23943   7.620   4.221   4.511
  179POPC   C3323944   7.582   4.089   2.668
  179POPC   H3X23945   7.680   4.051   2.632
  179POPC   H3Y23946   7.508   4.006   2.663
  179POPC   C3423947   7.595   4.135   2.814
  179POPC   H4X23948   7.495   4.169   2.850
  179POPC   H4Y23949   7.665   4.221   2.821
  179POPC   C3523950   7.648   4.028   2.908
  179POPC   H5X23951   7.744   3.986   2.868
  179POPC   H5Y23952   7.574   3.945   2.914
  179POPC   C3623953   7.673   4.084   3.049
  179POPC   H6X23954   7.586   4.145   3.082
  179POPC   H6Y23955   7.762   4.151   3.044
  179POPC   C3723956   7.698   3.971   3.148
  179POPC   H7X23957   7.778   3.906   3.105
  179POPC   H7Y23958   7.605   3.911   3.158
  179POPC   C3823959   7.743   4.017   3.287
  179POPC   H8X23960   7.670   4.090   3.329
  179POPC   H8Y23961   7.841   4.067   3.277
  179POPC   C3923962   7.756   3.897   3.380
  179POPC   H9X23963   7.822   3.821   3.332
  179POPC   H9Y23964   7.655   3.850   3.391
  179POPC  C31023965   7.811   3.932   3.518
  179POPC  H10X23966   7.745   4.009   3.563
  179POPC  H10Y23967   7.913   3.976   3.508
  179POPC  C31123968   7.817   3.811   3.611
  179POPC  H11X23969   7.916   3.761   3.603
  179POPC  H11Y23970   7.740   3.737   3.577
  179POPC  C31223971   7.786   3.847   3.757
  179POPC  H12X23972   7.768   3.752   3.814
  179POPC  H12Y23973   7.691   3.906   3.760
  179POPC  C31323974   7.898   3.925   3.826
  179POPC  H13X23975   7.932   4.007   3.759
  179POPC  H13Y23976   7.984   3.857   3.841
  179POPC  C31423977   7.859   3.988   3.961
  179POPC  H14X23978   7.805   4.082   3.944
  179POPC  H14Y23979   7.952   4.017   4.015
  179POPC  C31523980   7.769   3.904   4.052
  179POPC  H15X23981   7.674   3.877   4.003
  179POPC  H15Y23982   7.744   3.965   4.143
  179POPC  C31623983   7.840   3.782   4.102
  179POPC  H16X23984   7.935   3.819   4.145
  179POPC  H16Y23985   7.862   3.713   4.017
  179POPC  H16Z23986   7.783   3.728   4.180
  180POPC     N23987   2.557   2.201   2.285
  180POPC   C1223988   2.685   2.248   2.351
  180POPC  H12A23989   2.661   2.306   2.440
  180POPC  H12B23990   2.737   2.314   2.282
  180POPC   C1323991   2.586   2.167   2.142
  180POPC  H13A23992   2.614   2.256   2.087
  180POPC  H13B23993   2.673   2.100   2.140
  180POPC  H13C23994   2.504   2.119   2.091
  180POPC   C1423995   2.508   2.078   2.357
  180POPC  H14A23996   2.595   2.012   2.369
  180POPC  H14B23997   2.474   2.103   2.456
  180POPC  H14C23998   2.435   2.023   2.299
  180POPC   C1523999   2.457   2.312   2.286
  180POPC  H15A24000   2.365   2.282   2.239
  180POPC  H15B24001   2.494   2.398   2.230
  180POPC  H15C24002   2.438   2.347   2.387
  180POPC   C1124003   2.786   2.139   2.393
  180POPC  H11A24004   2.747   2.089   2.485
  180POPC  H11B24005   2.884   2.186   2.420
  180POPC     P24006   2.871   1.907   2.318
  180POPC   O1324007   3.008   1.930   2.368
  180POPC   O1424008   2.858   1.811   2.207
  180POPC   O1224009   2.803   2.046   2.286
  180POPC   O1124010   2.778   1.852   2.433
  180POPC    C124011   2.835   1.766   2.535
  180POPC    HA24012   2.946   1.767   2.529
  180POPC    HB24013   2.802   1.661   2.521
  180POPC    C224014   2.808   1.810   2.683
  180POPC    HS24015   2.707   1.772   2.712
  180POPC   O2124016   2.812   1.953   2.685
  180POPC   C2124017   2.752   2.008   2.787
  180POPC   O2224018   2.685   1.951   2.871
  180POPC   C2224019   2.779   2.157   2.783
  180POPC   H2R24020   2.691   2.204   2.735
  180POPC   H2S24021   2.869   2.178   2.720
  180POPC    C324022   2.917   1.748   2.778
  180POPC    HX24023   3.014   1.785   2.738
  180POPC    HY24024   2.913   1.638   2.765
  180POPC   O3124025   2.908   1.784   2.918
  180POPC   C3124026   3.013   1.738   2.989
  180POPC   O3224027   3.100   1.666   2.945
  180POPC   C3224028   3.006   1.792   3.130
  180POPC   H2X24029   2.983   1.706   3.197
  180POPC   H2Y24030   2.923   1.865   3.137
  180POPC   C2324031   2.799   2.212   2.925
  180POPC   H3R24032   2.903   2.192   2.961
  180POPC   H3S24033   2.729   2.162   2.995
  180POPC   C2424034   2.770   2.362   2.931
  180POPC   H4R24035   2.696   2.385   2.852
  180POPC   H4S24036   2.861   2.420   2.909
  180POPC   C2524037   2.710   2.401   3.066
  180POPC   H5R24038   2.617   2.342   3.084
  180POPC   H5S24039   2.681   2.509   3.064
  180POPC   C2624040   2.808   2.379   3.181
  180POPC   H6R24041   2.896   2.445   3.163
  180POPC   H6S24042   2.844   2.274   3.183
  180POPC   C2724043   2.745   2.413   3.317
  180POPC   H7R24044   2.707   2.319   3.365
  180POPC   H7S24045   2.657   2.479   3.301
  180POPC   C2824046   2.843   2.486   3.411
  180POPC   H8R24047   2.789   2.508   3.505
  180POPC   H8S24048   2.867   2.584   3.364
  180POPC   C2924049   2.970   2.407   3.434
  180POPC   H9124050   3.024   2.378   3.343
  180POPC  C21024051   3.019   2.364   3.551
  180POPC  H10124052   3.110   2.302   3.550
  180POPC  C21124053   2.958   2.385   3.687
  180POPC  H11R24054   2.888   2.472   3.691
  180POPC  H11S24055   3.037   2.404   3.763
  180POPC  C21224056   2.882   2.255   3.716
  180POPC  H12R24057   2.953   2.169   3.716
  180POPC  H12S24058   2.808   2.239   3.634
  180POPC  C21324059   2.804   2.252   3.847
  180POPC  H13R24060   2.768   2.149   3.862
  180POPC  H13S24061   2.715   2.318   3.839
  180POPC  C21424062   2.884   2.291   3.972
  180POPC  H14R24063   2.817   2.273   4.060
  180POPC  H14S24064   2.904   2.400   3.968
  180POPC  C21524065   3.017   2.215   3.993
  180POPC  H15R24066   3.082   2.233   3.905
  180POPC  H15S24067   2.996   2.106   3.999
  180POPC  C21624068   3.087   2.264   4.120
  180POPC  H16R24069   3.014   2.258   4.203
  180POPC  H16S24070   3.111   2.371   4.103
  180POPC  C21724071   3.217   2.200   4.171
  180POPC  H17R24072   3.281   2.283   4.211
  180POPC  H17S24073   3.276   2.155   4.089
  180POPC  C21824074   3.191   2.100   4.284
  180POPC  H18R24075   3.278   2.084   4.349
  180POPC  H18S24076   3.163   2.002   4.242
  180POPC  H18T24077   3.110   2.137   4.350
  180POPC   C3324078   3.138   1.860   3.170
  180POPC   H3X24079   3.149   1.953   3.114
  180POPC   H3Y24080   3.226   1.795   3.147
  180POPC   C3424081   3.144   1.904   3.315
  180POPC   H4X24082   3.048   1.953   3.337
  180POPC   H4Y24083   3.220   1.983   3.329
  180POPC   C3524084   3.177   1.782   3.401
  180POPC   H5X24085   3.285   1.770   3.391
  180POPC   H5Y24086   3.132   1.691   3.355
  180POPC   C3624087   3.136   1.785   3.548
  180POPC   H6X24088   3.217   1.830   3.608
  180POPC   H6Y24089   3.125   1.681   3.585
  180POPC   C3724090   3.005   1.860   3.570
  180POPC   H7X24091   3.020   1.968   3.548
  180POPC   H7Y24092   2.982   1.855   3.679
  180POPC   C3824093   2.890   1.806   3.483
  180POPC   H8X24094   2.826   1.736   3.538
  180POPC   H8Y24095   2.932   1.744   3.401
  180POPC   C3924096   2.810   1.917   3.413
  180POPC   H9X24097   2.798   1.891   3.305
  180POPC   H9Y24098   2.864   2.014   3.416
  180POPC  C31024099   2.670   1.936   3.468
  180POPC  H10X24100   2.607   1.848   3.443
  180POPC  H10Y24101   2.631   2.024   3.411
  180POPC  C31124102   2.660   1.968   3.616
  180POPC  H11X24103   2.555   1.999   3.634
  180POPC  H11Y24104   2.726   2.054   3.641
  180POPC  C31224105   2.687   1.855   3.715
  180POPC  H12X24106   2.795   1.841   3.731
  180POPC  H12Y24107   2.646   1.759   3.677
  180POPC  C31324108   2.626   1.890   3.850
  180POPC  H13X24109   2.516   1.878   3.844
  180POPC  H13Y24110   2.644   1.998   3.869
  180POPC  C31424111   2.684   1.810   3.966
  180POPC  H14X24112   2.786   1.846   3.990
  180POPC  H14Y24113   2.695   1.705   3.934
  180POPC  C31524114   2.593   1.823   4.087
  180POPC  H15X24115   2.638   1.773   4.175
  180POPC  H15Y24116   2.496   1.771   4.066
  180POPC  C31624117   2.561   1.969   4.117
  180POPC  H16X24118   2.645   2.038   4.102
  180POPC  H16Y24119   2.523   1.981   4.220
  180POPC  H16Z24120   2.487   2.005   4.043
  181POPC     N24121   6.072   1.469   2.352
  181POPC   C1224122   6.027   1.593   2.427
  181POPC  H12A24123   6.070   1.680   2.378
  181POPC  H12B24124   6.064   1.589   2.528
  181POPC   C1324125   6.218   1.448   2.374
  181POPC  H13A24126   6.250   1.358   2.323
  181POPC  H13B24127   6.276   1.530   2.332
  181POPC  H13C24128   6.239   1.439   2.480
  181POPC   C1424129   5.997   1.350   2.403
  181POPC  H14A24130   6.026   1.260   2.349
  181POPC  H14B24131   6.014   1.334   2.508
  181POPC  H14C24132   5.890   1.364   2.390
  181POPC   C1524133   6.044   1.484   2.204
  181POPC  H15A24134   5.935   1.492   2.189
  181POPC  H15B24135   6.083   1.401   2.147
  181POPC  H15C24136   6.088   1.574   2.165
  181POPC   C1124137   5.875   1.621   2.437
  181POPC  H11A24138   5.862   1.710   2.503
  181POPC  H11B24139   5.824   1.535   2.487
  181POPC     P24140   5.666   1.686   2.302
  181POPC   O1324141   5.595   1.592   2.212
  181POPC   O1424142   5.659   1.830   2.267
  181POPC   O1224143   5.820   1.645   2.307
  181POPC   O1124144   5.618   1.665   2.450
  181POPC    C124145   5.488   1.697   2.499
  181POPC    HA24146   5.471   1.639   2.593
  181POPC    HB24147   5.410   1.667   2.428
  181POPC    C224148   5.478   1.848   2.537
  181POPC    HS24149   5.500   1.904   2.443
  181POPC   O2124150   5.576   1.871   2.639
  181POPC   C2124151   5.653   1.976   2.622
  181POPC   O2224152   5.643   2.057   2.532
  181POPC   C2224153   5.763   1.978   2.727
  181POPC   H2R24154   5.815   2.075   2.721
  181POPC   H2S24155   5.834   1.897   2.700
  181POPC    C324156   5.338   1.891   2.588
  181POPC    HX24157   5.265   1.878   2.506
  181POPC    HY24158   5.339   2.001   2.611
  181POPC   O3124159   5.295   1.809   2.700
  181POPC   C3124160   5.335   1.858   2.819
  181POPC   O3224161   5.386   1.967   2.836
  181POPC   C3224162   5.305   1.760   2.932
  181POPC   H2X24163   5.358   1.665   2.911
  181POPC   H2Y24164   5.196   1.741   2.933
  181POPC   C2324165   5.710   1.955   2.870
  181POPC   H3R24166   5.625   1.884   2.871
  181POPC   H3S24167   5.672   2.052   2.911
  181POPC   C2424168   5.817   1.895   2.960
  181POPC   H4R24169   5.913   1.946   2.942
  181POPC   H4S24170   5.830   1.788   2.930
  181POPC   C2524171   5.779   1.908   3.107
  181POPC   H5R24172   5.677   1.865   3.121
  181POPC   H5S24173   5.775   2.017   3.130
  181POPC   C2624174   5.875   1.844   3.207
  181POPC   H6R24175   5.821   1.823   3.302
  181POPC   H6S24176   5.954   1.918   3.232
  181POPC   C2724177   5.942   1.716   3.156
  181POPC   H7R24178   6.006   1.741   3.068
  181POPC   H7S24179   5.864   1.645   3.122
  181POPC   C2824180   6.030   1.646   3.261
  181POPC   H8R24181   6.080   1.559   3.213
  181POPC   H8S24182   5.962   1.604   3.339
  181POPC   C2924183   6.133   1.741   3.318
  181POPC   H9124184   6.178   1.810   3.245
  181POPC  C21024185   6.167   1.749   3.447
  181POPC  H10124186   6.243   1.823   3.479
  181POPC  C21124187   6.107   1.664   3.556
  181POPC  H11R24188   6.171   1.666   3.647
  181POPC  H11S24189   6.100   1.558   3.523
  181POPC  C21224190   5.968   1.714   3.596
  181POPC  H12R24191   5.932   1.644   3.676
  181POPC  H12S24192   5.895   1.707   3.513
  181POPC  C21324193   5.970   1.858   3.648
  181POPC  H13R24194   5.964   1.930   3.563
  181POPC  H13S24195   6.066   1.877   3.701
  181POPC  C21424196   5.857   1.884   3.747
  181POPC  H14R24197   5.759   1.865   3.697
  181POPC  H14S24198   5.858   1.991   3.776
  181POPC  C21524199   5.870   1.795   3.871
  181POPC  H15R24200   5.976   1.763   3.881
  181POPC  H15S24201   5.811   1.702   3.857
  181POPC  C21624202   5.828   1.866   3.999
  181POPC  H16R24203   5.816   1.793   4.082
  181POPC  H16S24204   5.730   1.914   3.981
  181POPC  C21724205   5.926   1.973   4.043
  181POPC  H17R24206   5.897   2.067   3.990
  181POPC  H17S24207   6.028   1.945   4.007
  181POPC  C21824208   5.932   1.999   4.193
  181POPC  H18R24209   5.877   1.922   4.250
  181POPC  H18S24210   5.889   2.097   4.218
  181POPC  H18T24211   6.038   1.999   4.227
  181POPC   C3324212   5.349   1.818   3.069
  181POPC   H3X24213   5.292   1.911   3.093
  181POPC   H3Y24214   5.457   1.845   3.064
  181POPC   C3424215   5.333   1.719   3.186
  181POPC   H4X24216   5.382   1.623   3.159
  181POPC   H4Y24217   5.225   1.699   3.204
  181POPC   C3524218   5.399   1.771   3.315
  181POPC   H5X24219   5.346   1.863   3.351
  181POPC   H5Y24220   5.505   1.797   3.291
  181POPC   C3624221   5.400   1.671   3.430
  181POPC   H6X24222   5.423   1.571   3.386
  181POPC   H6Y24223   5.298   1.669   3.471
  181POPC   C3724224   5.504   1.696   3.542
  181POPC   H7X24225   5.586   1.761   3.507
  181POPC   H7Y24226   5.550   1.597   3.559
  181POPC   C3824227   5.450   1.747   3.678
  181POPC   H8X24228   5.342   1.728   3.689
  181POPC   H8Y24229   5.458   1.858   3.681
  181POPC   C3924230   5.530   1.683   3.793
  181POPC   H9X24231   5.616   1.751   3.812
  181POPC   H9Y24232   5.569   1.586   3.757
  181POPC  C31024233   5.464   1.653   3.929
  181POPC  H10X24234   5.391   1.570   3.920
  181POPC  H10Y24235   5.410   1.742   3.967
  181POPC  C31124236   5.570   1.611   4.032
  181POPC  H11X24237   5.525   1.612   4.133
  181POPC  H11Y24238   5.648   1.690   4.033
  181POPC  C31224239   5.638   1.475   4.001
  181POPC  H12X24240   5.674   1.476   3.896
  181POPC  H12Y24241   5.563   1.394   4.011
  181POPC  C31324242   5.760   1.443   4.089
  181POPC  H13X24243   5.823   1.533   4.091
  181POPC  H13Y24244   5.819   1.361   4.042
  181POPC  C31424245   5.721   1.409   4.234
  181POPC  H14X24246   5.689   1.303   4.242
  181POPC  H14Y24247   5.630   1.470   4.244
  181POPC  C31524248   5.811   1.453   4.351
  181POPC  H15X24249   5.753   1.437   4.445
  181POPC  H15Y24250   5.826   1.563   4.342
  181POPC  C31624251   5.947   1.384   4.368
  181POPC  H16X24252   5.997   1.375   4.269
  181POPC  H16Y24253   5.935   1.282   4.411
  181POPC  H16Z24254   6.015   1.441   4.436
  182POPC     N24255   7.309   2.261   2.312
  182POPC   C1224256   7.209   2.260   2.428
  182POPC  H12A24257   7.262   2.235   2.519
  182POPC  H12B24258   7.136   2.181   2.413
  182POPC   C1324259   7.246   2.310   2.186
  182POPC  H13A24260   7.164   2.245   2.156
  182POPC  H13B24261   7.199   2.407   2.203
  182POPC  H13C24262   7.317   2.318   2.105
  182POPC   C1424263   7.424   2.354   2.342
  182POPC  H14A24264   7.502   2.340   2.268
  182POPC  H14B24265   7.387   2.456   2.339
  182POPC  H14C24266   7.466   2.334   2.439
  182POPC   C1524267   7.364   2.123   2.290
  182POPC  H15A24268   7.288   2.051   2.265
  182POPC  H15B24269   7.420   2.086   2.375
  182POPC  H15C24270   7.433   2.124   2.206
  182POPC   C1124271   7.128   2.389   2.453
  182POPC  H11A24272   7.196   2.478   2.455
  182POPC  H11B24273   7.077   2.382   2.551
  182POPC     P24274   6.966   2.534   2.300
  182POPC   O1324275   6.875   2.490   2.192
  182POPC   O1424276   7.079   2.620   2.259
  182POPC   O1224277   7.029   2.401   2.354
  182POPC   O1124278   6.885   2.599   2.418
  182POPC    C124279   6.945   2.708   2.486
  182POPC    HA24280   6.874   2.793   2.478
  182POPC    HB24281   7.036   2.751   2.440
  182POPC    C224282   6.972   2.672   2.633
  182POPC    HS24283   6.958   2.763   2.691
  182POPC   O2124284   7.103   2.617   2.656
  182POPC   C2124285   7.207   2.695   2.637
  182POPC   O2224286   7.209   2.804   2.583
  182POPC   C2224287   7.329   2.627   2.701
  182POPC   H2R24288   7.414   2.699   2.693
  182POPC   H2S24289   7.352   2.536   2.643
  182POPC    C324290   6.871   2.573   2.695
  182POPC    HX24291   6.899   2.467   2.672
  182POPC    HY24292   6.773   2.591   2.645
  182POPC   O3124293   6.859   2.603   2.836
  182POPC   C3124294   6.923   2.524   2.920
  182POPC   O3224295   6.986   2.424   2.891
  182POPC   C3224296   6.903   2.574   3.065
  182POPC   H2X24297   6.810   2.634   3.070
  182POPC   H2Y24298   6.989   2.640   3.089
  182POPC   C2324299   7.303   2.592   2.849
  182POPC   H3R24300   7.212   2.527   2.856
  182POPC   H3S24301   7.281   2.685   2.906
  182POPC   C2424302   7.419   2.516   2.915
  182POPC   H4R24303   7.510   2.580   2.913
  182POPC   H4S24304   7.439   2.424   2.856
  182POPC   C2524305   7.390   2.477   3.061
  182POPC   H5R24306   7.472   2.410   3.096
  182POPC   H5S24307   7.295   2.420   3.067
  182POPC   C2624308   7.382   2.599   3.153
  182POPC   H6R24309   7.295   2.662   3.125
  182POPC   H6S24310   7.474   2.659   3.137
  182POPC   C2724311   7.372   2.564   3.303
  182POPC   H7R24312   7.433   2.474   3.325
  182POPC   H7S24313   7.266   2.538   3.326
  182POPC   C2824314   7.421   2.678   3.395
  182POPC   H8R24315   7.532   2.674   3.398
  182POPC   H8S24316   7.387   2.656   3.499
  182POPC   C2924317   7.376   2.814   3.349
  182POPC   H9124318   7.449   2.869   3.288
  182POPC  C21024319   7.255   2.868   3.367
  182POPC  H10124320   7.234   2.969   3.328
  182POPC  C21124321   7.141   2.800   3.438
  182POPC  H11R24322   7.167   2.696   3.464
  182POPC  H11S24323   7.053   2.794   3.370
  182POPC  C21224324   7.097   2.873   3.567
  182POPC  H12R24325   7.011   2.819   3.613
  182POPC  H12S24326   7.061   2.974   3.536
  182POPC  C21324327   7.207   2.891   3.672
  182POPC  H13R24328   7.174   2.963   3.749
  182POPC  H13S24329   7.297   2.936   3.623
  182POPC  C21424330   7.248   2.762   3.742
  182POPC  H14R24331   7.255   2.678   3.670
  182POPC  H14S24332   7.170   2.735   3.817
  182POPC  C21524333   7.383   2.779   3.812
  182POPC  H15R24334   7.372   2.860   3.887
  182POPC  H15S24335   7.459   2.810   3.737
  182POPC  C21624336   7.433   2.653   3.883
  182POPC  H16R24337   7.532   2.676   3.927
  182POPC  H16S24338   7.449   2.573   3.807
  182POPC  C21724339   7.341   2.603   3.994
  182POPC  H17R24340   7.256   2.554   3.943
  182POPC  H17S24341   7.302   2.690   4.050
  182POPC  C21824342   7.403   2.504   4.093
  182POPC  H18R24343   7.438   2.413   4.041
  182POPC  H18S24344   7.328   2.474   4.170
  182POPC  H18T24345   7.489   2.551   4.146
  182POPC   C3324346   6.896   2.458   3.168
  182POPC   H3X24347   6.985   2.392   3.153
  182POPC   H3Y24348   6.805   2.397   3.149
  182POPC   C3424349   6.896   2.502   3.315
  182POPC   H4X24350   6.809   2.569   3.334
  182POPC   H4Y24351   6.988   2.560   3.336
  182POPC   C3524352   6.887   2.381   3.411
  182POPC   H5X24353   6.967   2.308   3.386
  182POPC   H5Y24354   6.790   2.329   3.390
  182POPC   C3624355   6.892   2.415   3.561
  182POPC   H6X24356   6.864   2.325   3.619
  182POPC   H6Y24357   6.816   2.493   3.583
  182POPC   C3724358   7.028   2.465   3.611
  182POPC   H7X24359   7.018   2.497   3.717
  182POPC   H7Y24360   7.055   2.556   3.554
  182POPC   C3824361   7.142   2.363   3.600
  182POPC   H8X24362   7.237   2.412   3.631
  182POPC   H8Y24363   7.154   2.333   3.494
  182POPC   C3924364   7.122   2.238   3.687
  182POPC   H9X24365   7.209   2.170   3.674
  182POPC   H9Y24366   7.032   2.182   3.652
  182POPC  C31024367   7.105   2.268   3.837
  182POPC  H10X24368   7.007   2.319   3.853
  182POPC  H10Y24369   7.185   2.338   3.870
  182POPC  C31124370   7.111   2.141   3.921
  182POPC  H11X24371   7.215   2.101   3.913
  182POPC  H11Y24372   7.042   2.065   3.879
  182POPC  C31224373   7.077   2.162   4.069
  182POPC  H12X24374   7.122   2.257   4.105
  182POPC  H12Y24375   7.124   2.080   4.128
  182POPC  C31324376   6.927   2.160   4.099
  182POPC  H13X24377   6.879   2.070   4.054
  182POPC  H13Y24378   6.881   2.249   4.051
  182POPC  C31424379   6.899   2.161   4.250
  182POPC  H14X24380   6.976   2.226   4.298
  182POPC  H14Y24381   6.913   2.059   4.292
  182POPC  C31524382   6.761   2.217   4.288
  182POPC  H15X24383   6.718   2.269   4.199
  182POPC  H15Y24384   6.776   2.294   4.367
  182POPC  C31624385   6.660   2.116   4.338
  182POPC  H16X24386   6.680   2.090   4.443
  182POPC  H16Y24387   6.661   2.024   4.276
  182POPC  H16Z24388   6.558   2.160   4.337
  183POPC     N24389   4.045   1.213   2.217
  183POPC   C1224390   4.171   1.198   2.301
  183POPC  H12A24391   4.255   1.185   2.235
  183POPC  H12B24392   4.157   1.106   2.358
  183POPC   C1324393   4.050   1.336   2.133
  183POPC  H13A24394   3.977   1.334   2.054
  183POPC  H13B24395   4.029   1.421   2.200
  183POPC  H13C24396   4.150   1.354   2.094
  183POPC   C1424397   4.028   1.093   2.129
  183POPC  H14A24398   4.120   1.066   2.078
  183POPC  H14B24399   3.994   1.008   2.188
  183POPC  H14C24400   3.954   1.111   2.052
  183POPC   C1524401   3.924   1.223   2.307
  183POPC  H15A24402   3.949   1.195   2.408
  183POPC  H15B24403   3.846   1.155   2.276
  183POPC  H15C24404   3.887   1.325   2.312
  183POPC   C1124405   4.212   1.314   2.396
  183POPC  H11A24406   4.299   1.280   2.458
  183POPC  H11B24407   4.130   1.330   2.469
  183POPC     P24408   4.170   1.569   2.332
  183POPC   O1324409   4.025   1.539   2.348
  183POPC   O1424410   4.205   1.659   2.220
  183POPC   O1224411   4.248   1.430   2.322
  183POPC   O1124412   4.230   1.625   2.466
  183POPC    C124413   4.150   1.681   2.568
  183POPC    HA24414   4.066   1.739   2.526
  183POPC    HB24415   4.213   1.756   2.621
  183POPC    C224416   4.099   1.581   2.678
  183POPC    HS24417   4.068   1.647   2.762
  183POPC   O2124418   4.205   1.489   2.713
  183POPC   C2124419   4.202   1.460   2.842
  183POPC   O2224420   4.170   1.537   2.931
  183POPC   C2224421   4.228   1.311   2.855
  183POPC   H2R24422   4.334   1.290   2.828
  183POPC   H2S24423   4.161   1.262   2.781
  183POPC    C324424   3.972   1.497   2.642
  183POPC    HX24425   3.990   1.430   2.558
  183POPC    HY24426   3.894   1.568   2.608
  183POPC   O3124427   3.926   1.419   2.755
  183POPC   C3124428   3.796   1.388   2.755
  183POPC   O3224429   3.717   1.413   2.666
  183POPC   C3224430   3.769   1.298   2.874
  183POPC   H2X24431   3.851   1.224   2.874
  183POPC   H2Y24432   3.676   1.242   2.857
  183POPC   C2324433   4.195   1.256   2.995
  183POPC   H3R24434   4.103   1.302   3.037
  183POPC   H3S24435   4.280   1.280   3.064
  183POPC   C2424436   4.175   1.104   2.992
  183POPC   H4R24437   4.188   1.065   3.095
  183POPC   H4S24438   4.254   1.063   2.927
  183POPC   C2524439   4.038   1.057   2.939
  183POPC   H5R24440   4.028   1.086   2.832
  183POPC   H5S24441   3.959   1.110   2.994
  183POPC   C2624442   4.012   0.907   2.957
  183POPC   H6R24443   4.108   0.859   2.982
  183POPC   H6S24444   3.980   0.864   2.860
  183POPC   C2724445   3.909   0.868   3.066
  183POPC   H7R24446   3.920   0.759   3.086
  183POPC   H7S24447   3.805   0.884   3.027
  183POPC   C2824448   3.927   0.948   3.196
  183POPC   H8R24449   3.889   1.049   3.178
  183POPC   H8S24450   4.036   0.959   3.211
  183POPC   C2924451   3.856   0.900   3.320
  183POPC   H9124452   3.751   0.869   3.306
  183POPC  C21024453   3.909   0.901   3.443
  183POPC  H10124454   3.850   0.861   3.527
  183POPC  C21124455   4.048   0.949   3.480
  183POPC  H11R24456   4.117   0.950   3.393
  183POPC  H11S24457   4.092   0.879   3.555
  183POPC  C21224458   4.056   1.087   3.546
  183POPC  H12R24459   4.013   1.163   3.477
  183POPC  H12S24460   4.163   1.114   3.563
  183POPC  C21324461   3.982   1.087   3.680
  183POPC  H13R24462   4.041   1.034   3.757
  183POPC  H13S24463   3.886   1.032   3.667
  183POPC  C21424464   3.943   1.226   3.730
  183POPC  H14R24465   3.903   1.287   3.646
  183POPC  H14S24466   4.033   1.279   3.768
  183POPC  C21524467   3.836   1.211   3.838
  183POPC  H15R24468   3.873   1.141   3.917
  183POPC  H15S24469   3.746   1.165   3.791
  183POPC  C21624470   3.795   1.342   3.904
  183POPC  H16R24471   3.703   1.324   3.964
  183POPC  H16S24472   3.772   1.415   3.824
  183POPC  C21724473   3.902   1.399   3.998
  183POPC  H17R24474   3.894   1.510   3.992
  183POPC  H17S24475   4.003   1.372   3.962
  183POPC  C21824476   3.885   1.357   4.144
  183POPC  H18R24477   3.786   1.390   4.182
  183POPC  H18S24478   3.964   1.402   4.208
  183POPC  H18T24479   3.891   1.246   4.153
  183POPC   C3324480   3.766   1.372   3.009
  183POPC   H3X24481   3.675   1.434   3.019
  183POPC   H3Y24482   3.853   1.442   3.014
  183POPC   C3424483   3.779   1.269   3.121
  183POPC   H4X24484   3.884   1.236   3.117
  183POPC   H4Y24485   3.715   1.181   3.098
  183POPC   C3524486   3.753   1.310   3.266
  183POPC   H5X24487   3.779   1.222   3.330
  183POPC   H5Y24488   3.646   1.330   3.283
  183POPC   C3624489   3.839   1.427   3.312
  183POPC   H6X24490   3.827   1.439   3.423
  183POPC   H6Y24491   3.805   1.521   3.264
  183POPC   C3724492   3.986   1.402   3.279
  183POPC   H7X24493   4.002   1.418   3.170
  183POPC   H7Y24494   4.011   1.296   3.302
  183POPC   C3824495   4.085   1.491   3.353
  183POPC   H8X24496   4.051   1.506   3.458
  183POPC   H8Y24497   4.087   1.590   3.305
  183POPC   C3924498   4.227   1.436   3.348
  183POPC   H9X24499   4.246   1.396   3.246
  183POPC   H9Y24500   4.235   1.351   3.419
  183POPC  C31024501   4.334   1.542   3.377
  183POPC  H10X24502   4.351   1.606   3.288
  183POPC  H10Y24503   4.427   1.486   3.398
  183POPC  C31124504   4.307   1.631   3.500
  183POPC  H11X24505   4.221   1.698   3.482
  183POPC  H11Y24506   4.397   1.695   3.517
  183POPC  C31224507   4.284   1.542   3.622
  183POPC  H12X24508   4.369   1.470   3.629
  183POPC  H12Y24509   4.192   1.481   3.609
  183POPC  C31324510   4.274   1.614   3.755
  183POPC  H13X24511   4.182   1.677   3.757
  183POPC  H13Y24512   4.362   1.681   3.770
  183POPC  C31424513   4.270   1.508   3.866
  183POPC  H14X24514   4.365   1.450   3.862
  183POPC  H14Y24515   4.186   1.438   3.845
  183POPC  C31524516   4.255   1.568   4.005
  183POPC  H15X24517   4.155   1.618   4.011
  183POPC  H15Y24518   4.335   1.644   4.015
  183POPC  C31624519   4.273   1.470   4.121
  183POPC  H16X24520   4.247   1.521   4.216
  183POPC  H16Y24521   4.380   1.439   4.126
  183POPC  H16Z24522   4.209   1.381   4.108
  184POPC     N24523   6.079   7.672   2.237
  184POPC   C1224524   6.120   7.723   2.375
  184POPC  H12A24525   6.070   7.665   2.451
  184POPC  H12B24526   6.088   7.827   2.387
  184POPC   C1324527   5.930   7.664   2.225
  184POPC  H13A24528   5.900   7.628   2.127
  184POPC  H13B24529   5.888   7.601   2.301
  184POPC  H13C24530   5.885   7.764   2.234
  184POPC   C1424531   6.131   7.765   2.131
  184POPC  H14A24532   6.239   7.771   2.139
  184POPC  H14B24533   6.106   7.731   2.032
  184POPC  H14C24534   6.094   7.866   2.148
  184POPC   C1524535   6.140   7.539   2.209
  184POPC  H15A24536   6.107   7.464   2.281
  184POPC  H15B24537   6.249   7.546   2.216
  184POPC  H15C24538   6.116   7.504   2.109
  184POPC   C1124539   6.270   7.722   2.407
  184POPC  H11A24540   6.317   7.623   2.386
  184POPC  H11B24541   6.285   7.740   2.517
  184POPC     P24542   6.366   7.962   2.391
  184POPC   O1324543   6.366   8.062   2.282
  184POPC   O1424544   6.485   7.952   2.478
  184POPC   O1224545   6.335   7.820   2.328
  184POPC   O1124546   6.237   7.992   2.480
  184POPC    C124547   6.236   8.111   2.561
  184POPC    HA24548   6.134   8.121   2.604
  184POPC    HB24549   6.255   8.202   2.501
  184POPC    C224550   6.335   8.106   2.681
  184POPC    HS24551   6.438   8.124   2.639
  184POPC   O2124552   6.324   7.975   2.737
  184POPC   C2124553   6.431   7.944   2.807
  184POPC   O2224554   6.534   8.007   2.817
  184POPC   C2224555   6.393   7.827   2.896
  184POPC   H2R24556   6.451   7.738   2.864
  184POPC   H2S24557   6.284   7.805   2.890
  184POPC    C324558   6.307   8.211   2.791
  184POPC    HX24559   6.336   8.311   2.753
  184POPC    HY24560   6.376   8.193   2.877
  184POPC   O3124561   6.166   8.207   2.826
  184POPC   C3124562   6.137   8.174   2.950
  184POPC   O3224563   6.216   8.161   3.042
  184POPC   C3224564   5.985   8.160   2.964
  184POPC   H2X24565   5.944   8.123   2.868
  184POPC   H2Y24566   5.946   8.262   2.984
  184POPC   C2324567   6.430   7.875   3.036
  184POPC   H3R24568   6.382   7.972   3.062
  184POPC   H3S24569   6.540   7.896   3.034
  184POPC   C2424570   6.400   7.774   3.145
  184POPC   H4R24571   6.359   7.681   3.099
  184POPC   H4S24572   6.325   7.815   3.215
  184POPC   C2524573   6.530   7.741   3.215
  184POPC   H5R24574   6.596   7.716   3.131
  184POPC   H5S24575   6.520   7.654   3.283
  184POPC   C2624576   6.595   7.860   3.286
  184POPC   H6R24577   6.623   7.942   3.216
  184POPC   H6S24578   6.689   7.825   3.333
  184POPC   C2724579   6.497   7.915   3.389
  184POPC   H7R24580   6.430   7.832   3.422
  184POPC   H7S24581   6.432   7.991   3.341
  184POPC   C2824582   6.567   7.972   3.510
  184POPC   H8R24583   6.486   8.027   3.563
  184POPC   H8S24584   6.644   8.046   3.479
  184POPC   C2924585   6.628   7.861   3.592
  184POPC   H9124586   6.704   7.800   3.542
  184POPC  C21024587   6.598   7.833   3.720
  184POPC  H10124588   6.648   7.750   3.771
  184POPC  C21124589   6.497   7.911   3.800
  184POPC  H11R24590   6.478   7.863   3.898
  184POPC  H11S24591   6.400   7.918   3.747
  184POPC  C21224592   6.547   8.054   3.823
  184POPC  H12R24593   6.563   8.107   3.727
  184POPC  H12S24594   6.647   8.049   3.871
  184POPC  C21324595   6.451   8.139   3.905
  184POPC  H13R24596   6.348   8.099   3.902
  184POPC  H13S24597   6.446   8.240   3.857
  184POPC  C21424598   6.501   8.154   4.049
  184POPC  H14R24599   6.612   8.153   4.046
  184POPC  H14S24600   6.471   8.069   4.110
  184POPC  C21524601   6.459   8.284   4.115
  184POPC  H15R24602   6.402   8.348   4.044
  184POPC  H15S24603   6.556   8.335   4.134
  184POPC  C21624604   6.394   8.278   4.254
  184POPC  H16R24605   6.389   8.382   4.293
  184POPC  H16S24606   6.464   8.219   4.317
  184POPC  C21724607   6.258   8.213   4.271
  184POPC  H17R24608   6.272   8.106   4.248
  184POPC  H17S24609   6.180   8.246   4.201
  184POPC  C21824610   6.203   8.235   4.413
  184POPC  H18R24611   6.117   8.169   4.433
  184POPC  H18S24612   6.170   8.341   4.425
  184POPC  H18T24613   6.282   8.215   4.488
  184POPC   C3324614   5.945   8.066   3.081
  184POPC   H3X24615   5.835   8.070   3.095
  184POPC   H3Y24616   5.991   8.103   3.176
  184POPC   C3424617   5.987   7.920   3.058
  184POPC   H4X24618   6.095   7.916   3.031
  184POPC   H4Y24619   5.929   7.877   2.974
  184POPC   C3524620   5.968   7.834   3.184
  184POPC   H5X24621   5.861   7.820   3.206
  184POPC   H5Y24622   6.014   7.890   3.269
  184POPC   C3624623   6.038   7.698   3.170
  184POPC   H6X24624   6.146   7.718   3.152
  184POPC   H6Y24625   6.000   7.645   3.081
  184POPC   C3724626   6.025   7.606   3.292
  184POPC   H7X24627   6.105   7.529   3.284
  184POPC   H7Y24628   5.927   7.553   3.288
  184POPC   C3824629   6.038   7.674   3.429
  184POPC   H8X24630   6.020   7.597   3.508
  184POPC   H8Y24631   5.959   7.750   3.439
  184POPC   C3924632   6.176   7.737   3.454
  184POPC   H9X24633   6.191   7.823   3.385
  184POPC   H9Y24634   6.256   7.664   3.431
  184POPC  C31024635   6.190   7.786   3.598
  184POPC  H10X24636   6.296   7.815   3.612
  184POPC  H10Y24637   6.168   7.704   3.670
  184POPC  C31124638   6.098   7.906   3.622
  184POPC  H11X24639   5.992   7.876   3.609
  184POPC  H11Y24640   6.122   7.980   3.542
  184POPC  C31224641   6.112   7.974   3.758
  184POPC  H12X24642   6.044   8.061   3.760
  184POPC  H12Y24643   6.214   8.013   3.772
  184POPC  C31324644   6.070   7.886   3.876
  184POPC  H13X24645   6.150   7.811   3.898
  184POPC  H13Y24646   5.977   7.832   3.849
  184POPC  C31424647   6.043   7.972   4.000
  184POPC  H14X24648   5.964   8.047   3.977
  184POPC  H14Y24649   6.135   8.030   4.024
  184POPC  C31524650   5.999   7.891   4.122
  184POPC  H15X24651   6.004   7.957   4.211
  184POPC  H15Y24652   6.070   7.807   4.138
  184POPC  C31624653   5.857   7.836   4.107
  184POPC  H16X24654   5.827   7.777   4.197
  184POPC  H16Y24655   5.849   7.769   4.019
  184POPC  H16Z24656   5.784   7.919   4.095
  185POPC     N24657   2.497   7.472   2.474
  185POPC   C1224658   2.599   7.364   2.435
  185POPC  H12A24659   2.557   7.265   2.449
  185POPC  H12B24660   2.684   7.372   2.504
  185POPC   C1324661   2.576   7.596   2.505
  185POPC  H13A24662   2.641   7.579   2.589
  185POPC  H13B24663   2.640   7.618   2.419
  185POPC  H13C24664   2.513   7.681   2.523
  185POPC   C1424665   2.407   7.502   2.358
  185POPC  H14A24666   2.469   7.536   2.275
  185POPC  H14B24667   2.357   7.413   2.323
  185POPC  H14C24668   2.333   7.578   2.380
  185POPC   C1524669   2.420   7.427   2.594
  185POPC  H15A24670   2.359   7.506   2.634
  185POPC  H15B24671   2.489   7.394   2.672
  185POPC  H15C24672   2.356   7.342   2.569
  185POPC   C1124673   2.660   7.373   2.294
  185POPC  H11A24674   2.582   7.357   2.215
  185POPC  H11B24675   2.735   7.291   2.283
  185POPC     P24676   2.814   7.520   2.149
  185POPC   O1324677   2.787   7.657   2.103
  185POPC   O1424678   2.795   7.411   2.052
  185POPC   O1224679   2.721   7.499   2.277
  185POPC   O1124680   2.960   7.508   2.213
  185POPC    C124681   2.993   7.548   2.347
  185POPC    HA24682   2.908   7.596   2.401
  185POPC    HB24683   3.075   7.623   2.342
  185POPC    C224684   3.045   7.430   2.435
  185POPC    HS24685   3.137   7.392   2.385
  185POPC   O2124686   2.942   7.330   2.447
  185POPC   C2124687   2.976   7.209   2.409
  185POPC   O2224688   3.078   7.176   2.352
  185POPC   C2224689   2.877   7.106   2.464
  185POPC   H2R24690   2.924   7.007   2.452
  185POPC   H2S24691   2.784   7.108   2.405
  185POPC    C324692   3.087   7.472   2.580
  185POPC    HX24693   3.193   7.504   2.578
  185POPC    HY24694   3.085   7.382   2.646
  185POPC   O3124695   3.010   7.580   2.637
  185POPC   C3124696   2.895   7.552   2.694
  185POPC   O3224697   2.836   7.445   2.692
  185POPC   C3224698   2.836   7.681   2.755
  185POPC   H2X24699   2.761   7.721   2.684
  185POPC   H2Y24700   2.918   7.756   2.761
  185POPC   C2324701   2.849   7.134   2.614
  185POPC   H3R24702   2.775   7.217   2.617
  185POPC   H3S24703   2.940   7.171   2.666
  185POPC   C2424704   2.795   7.013   2.690
  185POPC   H4R24705   2.880   6.949   2.723
  185POPC   H4S24706   2.730   6.953   2.622
  185POPC   C2524707   2.711   7.052   2.812
  185POPC   H5R24708   2.772   7.108   2.886
  185POPC   H5S24709   2.676   6.958   2.860
  185POPC   C2624710   2.587   7.137   2.776
  185POPC   H6R24711   2.548   7.102   2.677
  185POPC   H6S24712   2.617   7.243   2.766
  185POPC   C2724713   2.472   7.124   2.877
  185POPC   H7R24714   2.435   7.019   2.873
  185POPC   H7S24715   2.388   7.189   2.847
  185POPC   C2824716   2.514   7.154   3.023
  185POPC   H8R24717   2.598   7.087   3.048
  185POPC   H8S24718   2.431   7.122   3.089
  185POPC   C2924719   2.548   7.299   3.046
  185POPC   H9124720   2.480   7.371   2.997
  185POPC  C21024721   2.649   7.347   3.122
  185POPC  H10124722   2.660   7.456   3.133
  185POPC  C21124723   2.749   7.265   3.200
  185POPC  H11R24724   2.853   7.295   3.172
  185POPC  H11S24725   2.740   7.157   3.177
  185POPC  C21224726   2.731   7.282   3.352
  185POPC  H12R24727   2.623   7.280   3.378
  185POPC  H12S24728   2.772   7.380   3.384
  185POPC  C21324729   2.799   7.168   3.429
  185POPC  H13R24730   2.908   7.166   3.406
  185POPC  H13S24731   2.756   7.072   3.393
  185POPC  C21424732   2.778   7.174   3.581
  185POPC  H14R24733   2.807   7.075   3.622
  185POPC  H14S24734   2.670   7.189   3.603
  185POPC  C21524735   2.860   7.284   3.650
  185POPC  H15R24736   2.829   7.383   3.613
  185POPC  H15S24737   2.968   7.271   3.624
  185POPC  C21624738   2.846   7.280   3.803
  185POPC  H16R24739   2.740   7.291   3.833
  185POPC  H16S24740   2.902   7.367   3.846
  185POPC  C21724741   2.906   7.154   3.866
  185POPC  H17R24742   3.009   7.142   3.824
  185POPC  H17S24743   2.846   7.065   3.835
  185POPC  C21824744   2.916   7.156   4.018
  185POPC  H18R24745   2.986   7.077   4.054
  185POPC  H18S24746   2.817   7.138   4.064
  185POPC  H18T24747   2.956   7.253   4.052
  185POPC   C3324748   2.772   7.664   2.896
  185POPC   H3X24749   2.802   7.567   2.942
  185POPC   H3Y24750   2.661   7.663   2.887
  185POPC   C3424751   2.816   7.778   2.991
  185POPC   H4X24752   2.781   7.875   2.950
  185POPC   H4Y24753   2.927   7.782   2.992
  185POPC   C3524754   2.768   7.763   3.136
  185POPC   H5X24755   2.818   7.844   3.196
  185POPC   H5Y24756   2.802   7.666   3.179
  185POPC   C3624757   2.616   7.779   3.152
  185POPC   H6X24758   2.563   7.691   3.111
  185POPC   H6Y24759   2.586   7.869   3.093
  185POPC   C3724760   2.571   7.806   3.297
  185POPC   H7X24761   2.468   7.849   3.295
  185POPC   H7Y24762   2.638   7.883   3.340
  185POPC   C3824763   2.566   7.684   3.389
  185POPC   H8X24764   2.656   7.620   3.375
  185POPC   H8Y24765   2.478   7.621   3.362
  185POPC   C3924766   2.553   7.725   3.538
  185POPC   H9X24767   2.532   7.634   3.598
  185POPC   H9Y24768   2.467   7.794   3.550
  185POPC  C31024769   2.679   7.790   3.595
  185POPC  H10X24770   2.662   7.815   3.702
  185POPC  H10Y24771   2.702   7.886   3.543
  185POPC  C31124772   2.801   7.698   3.584
  185POPC  H11X24773   2.824   7.681   3.476
  185POPC  H11Y24774   2.776   7.599   3.628
  185POPC  C31224775   2.927   7.754   3.648
  185POPC  H12X24776   2.949   7.853   3.601
  185POPC  H12Y24777   3.010   7.684   3.625
  185POPC  C31324778   2.923   7.772   3.799
  185POPC  H13X24779   2.849   7.850   3.827
  185POPC  H13Y24780   3.024   7.808   3.827
  185POPC  C31424781   2.894   7.642   3.872
  185POPC  H14X24782   2.967   7.565   3.839
  185POPC  H14Y24783   2.792   7.606   3.846
  185POPC  C31524784   2.904   7.658   4.023
  185POPC  H15X24785   2.846   7.748   4.054
  185POPC  H15Y24786   3.012   7.675   4.048
  185POPC  C31624787   2.856   7.538   4.103
  185POPC  H16X24788   2.758   7.502   4.067
  185POPC  H16Y24789   2.846   7.565   4.210
  185POPC  H16Z24790   2.930   7.455   4.096
  186POPC     N24791   1.252   4.138   2.110
  186POPC   C1224792   1.309   4.009   2.170
  186POPC  H12A24793   1.408   3.993   2.130
  186POPC  H12B24794   1.246   3.928   2.135
  186POPC   C1324795   1.313   4.257   2.176
  186POPC  H13A24796   1.420   4.262   2.159
  186POPC  H13B24797   1.267   4.349   2.143
  186POPC  H13C24798   1.299   4.248   2.284
  186POPC   C1424799   1.281   4.143   1.965
  186POPC  H14A24800   1.388   4.145   1.949
  186POPC  H14B24801   1.239   4.058   1.913
  186POPC  H14C24802   1.241   4.234   1.919
  186POPC   C1524803   1.105   4.139   2.136
  186POPC  H15A24804   1.057   4.223   2.088
  186POPC  H15B24805   1.092   4.146   2.244
  186POPC  H15C24806   1.058   4.047   2.102
  186POPC   C1124807   1.319   3.997   2.325
  186POPC  H11A24808   1.423   4.025   2.353
  186POPC  H11B24809   1.305   3.890   2.353
  186POPC     P24810   1.260   4.130   2.539
  186POPC   O1324811   1.319   4.264   2.517
  186POPC   O1424812   1.343   4.029   2.609
  186POPC   O1224813   1.222   4.075   2.394
  186POPC   O1124814   1.117   4.143   2.606
  186POPC    C124815   1.002   4.166   2.524
  186POPC    HA24816   0.996   4.088   2.444
  186POPC    HB24817   1.007   4.267   2.478
  186POPC    C224818   0.865   4.153   2.599
  186POPC    HS24819   0.786   4.157   2.522
  186POPC   O2124820   0.850   4.263   2.690
  186POPC   C2124821   0.729   4.287   2.739
  186POPC   O2224822   0.627   4.228   2.706
  186POPC   C2224823   0.742   4.397   2.845
  186POPC   H2R24824   0.645   4.450   2.849
  186POPC   H2S24825   0.818   4.470   2.811
  186POPC    C324826   0.856   4.017   2.673
  186POPC    HX24827   0.880   3.938   2.597
  186POPC    HY24828   0.751   4.002   2.706
  186POPC   O3124829   0.942   4.012   2.788
  186POPC   C3124830   1.013   3.903   2.808
  186POPC   O3224831   1.005   3.800   2.742
  186POPC   C3224832   1.091   3.920   2.938
  186POPC   H2X24833   1.087   4.026   2.969
  186POPC   H2Y24834   1.196   3.894   2.915
  186POPC   C2324835   0.778   4.344   2.987
  186POPC   H3R24836   0.706   4.264   3.015
  186POPC   H3S24837   0.766   4.426   3.060
  186POPC   C2424838   0.921   4.288   3.001
  186POPC   H4R24839   0.948   4.227   2.912
  186POPC   H4S24840   0.923   4.219   3.089
  186POPC   C2524841   1.031   4.393   3.025
  186POPC   H5R24842   1.008   4.446   3.120
  186POPC   H5S24843   1.031   4.468   2.943
  186POPC   C2624844   1.171   4.332   3.039
  186POPC   H6R24845   1.165   4.243   3.105
  186POPC   H6S24846   1.239   4.406   3.087
  186POPC   C2724847   1.237   4.290   2.906
  186POPC   H7R24848   1.244   4.380   2.841
  186POPC   H7S24849   1.172   4.217   2.853
  186POPC   C2824850   1.380   4.233   2.923
  186POPC   H8R24851   1.443   4.307   2.976
  186POPC   H8S24852   1.422   4.221   2.820
  186POPC   C2924853   1.381   4.098   2.990
  186POPC   H9124854   1.355   4.016   2.921
  186POPC  C21024855   1.416   4.070   3.117
  186POPC  H10124856   1.417   3.964   3.149
  186POPC  C21124857   1.462   4.168   3.221
  186POPC  H11R24858   1.508   4.259   3.176
  186POPC  H11S24859   1.541   4.116   3.280
  186POPC  C21224860   1.361   4.210   3.327
  186POPC  H12R24861   1.318   4.116   3.366
  186POPC  H12S24862   1.280   4.275   3.287
  186POPC  C21324863   1.432   4.277   3.443
  186POPC  H13R24864   1.473   4.376   3.414
  186POPC  H13S24865   1.516   4.206   3.459
  186POPC  C21424866   1.358   4.281   3.577
  186POPC  H14R24867   1.258   4.329   3.563
  186POPC  H14S24868   1.416   4.343   3.648
  186POPC  C21524869   1.345   4.140   3.634
  186POPC  H15R24870   1.445   4.092   3.641
  186POPC  H15S24871   1.285   4.078   3.564
  186POPC  C21624872   1.275   4.131   3.770
  186POPC  H16R24873   1.210   4.041   3.770
  186POPC  H16S24874   1.210   4.220   3.786
  186POPC  C21724875   1.373   4.116   3.886
  186POPC  H17R24876   1.436   4.207   3.894
  186POPC  H17S24877   1.440   4.029   3.869
  186POPC  C21824878   1.296   4.096   4.015
  186POPC  H18R24879   1.220   4.016   4.005
  186POPC  H18S24880   1.242   4.190   4.036
  186POPC  H18T24881   1.362   4.071   4.100
  186POPC   C3324882   1.039   3.828   3.051
  186POPC   H3X24883   1.079   3.726   3.030
  186POPC   H3Y24884   0.927   3.823   3.050
  186POPC   C3424885   1.083   3.869   3.192
  186POPC   H4X24886   1.185   3.912   3.186
  186POPC   H4Y24887   1.093   3.777   3.253
  186POPC   C3524888   0.989   3.966   3.266
  186POPC   H5X24889   0.918   3.909   3.330
  186POPC   H5Y24890   0.928   4.025   3.193
  186POPC   C3624891   1.074   4.062   3.349
  186POPC   H6X24892   1.133   4.119   3.274
  186POPC   H6Y24893   1.145   4.000   3.408
  186POPC   C3724894   1.010   4.165   3.444
  186POPC   H7X24895   0.992   4.260   3.389
  186POPC   H7Y24896   1.085   4.187   3.523
  186POPC   C3824897   0.880   4.118   3.510
  186POPC   H8X24898   0.894   4.015   3.548
  186POPC   H8Y24899   0.801   4.114   3.432
  186POPC   C3924900   0.831   4.208   3.626
  186POPC   H9X24901   0.739   4.160   3.665
  186POPC   H9Y24902   0.803   4.308   3.586
  186POPC  C31024903   0.927   4.226   3.745
  186POPC  H10X24904   1.005   4.300   3.717
  186POPC  H10Y24905   0.979   4.130   3.766
  186POPC  C31124906   0.855   4.273   3.873
  186POPC  H11X24907   0.775   4.200   3.900
  186POPC  H11Y24908   0.805   4.370   3.850
  186POPC  C31224909   0.949   4.292   3.994
  186POPC  H12X24910   0.928   4.389   4.042
  186POPC  H12Y24911   1.052   4.293   3.953
  186POPC  C31324912   0.944   4.178   4.097
  186POPC  H13X24913   0.975   4.090   4.037
  186POPC  H13Y24914   0.841   4.163   4.133
  186POPC  C31424915   1.044   4.176   4.215
  186POPC  H14X24916   1.131   4.238   4.190
  186POPC  H14Y24917   1.079   4.071   4.227
  186POPC  C31524918   0.997   4.224   4.353
  186POPC  H15X24919   0.998   4.334   4.350
  186POPC  H15Y24920   1.074   4.192   4.428
  186POPC  C31624921   0.861   4.175   4.401
  186POPC  H16X24922   0.780   4.217   4.338
  186POPC  H16Y24923   0.842   4.204   4.506
  186POPC  H16Z24924   0.856   4.064   4.393
  187POPC     N24925   8.244   4.585   2.355
  187POPC   C1224926   8.196   4.723   2.398
  187POPC  H12A24927   8.279   4.777   2.444
  187POPC  H12B24928   8.120   4.712   2.475
  187POPC   C1324929   8.140   4.514   2.274
  187POPC  H13A24930   8.120   4.576   2.187
  187POPC  H13B24931   8.178   4.418   2.242
  187POPC  H13C24932   8.049   4.499   2.329
  187POPC   C1424933   8.363   4.602   2.267
  187POPC  H14A24934   8.402   4.508   2.231
  187POPC  H14B24935   8.336   4.663   2.181
  187POPC  H14C24936   8.440   4.655   2.322
  187POPC   C1524937   8.285   4.502   2.472
  187POPC  H15A24938   8.374   4.540   2.523
  187POPC  H15B24939   8.311   4.401   2.441
  187POPC  H15C24940   8.208   4.491   2.549
  187POPC   C1124941   8.140   4.819   2.288
  187POPC  H11A24942   8.090   4.905   2.339
  187POPC  H11B24943   8.059   4.768   2.231
  187POPC     P24944   8.331   4.987   2.235
  187POPC   O1324945   8.239   5.100   2.263
  187POPC   O1424946   8.434   5.012   2.130
  187POPC   O1224947   8.240   4.862   2.194
  187POPC   O1124948   8.394   4.930   2.371
  187POPC    C124949   8.420   5.018   2.480
  187POPC    HA24950   8.330   5.078   2.508
  187POPC    HB24951   8.501   5.089   2.451
  187POPC    C224952   8.469   4.942   2.607
  187POPC    HS24953   8.553   4.875   2.574
  187POPC   O2124954   8.363   4.871   2.674
  187POPC   C2124955   8.385   4.744   2.702
  187POPC   O2224956   8.462   4.670   2.642
  187POPC   C2224957   8.291   4.699   2.813
  187POPC   H2R24958   8.285   4.588   2.807
  187POPC   H2S24959   8.191   4.741   2.791
  187POPC    C324960   8.525   5.042   2.711
  187POPC    HX24961   8.440   5.108   2.741
  187POPC    HY24962   8.600   5.107   2.661
  187POPC   O3124963   8.587   4.972   2.821
  187POPC   C3124964   8.552   5.008   2.943
  187POPC   O3224965   8.460   5.083   2.972
  187POPC   C3224966   8.643   4.942   3.048
  187POPC   H2X24967   8.735   4.905   2.998
  187POPC   H2Y24968   8.588   4.856   3.089
  187POPC   C2324969   8.330   4.739   2.958
  187POPC   H3R24970   8.327   4.850   2.970
  187POPC   H3S24971   8.432   4.703   2.984
  187POPC   C2424972   8.229   4.675   3.054
  187POPC   H4R24973   8.238   4.565   3.041
  187POPC   H4S24974   8.127   4.706   3.022
  187POPC   C2524975   8.240   4.703   3.205
  187POPC   H5R24976   8.250   4.812   3.222
  187POPC   H5S24977   8.330   4.653   3.246
  187POPC   C2624978   8.112   4.651   3.273
  187POPC   H6R24979   8.087   4.556   3.223
  187POPC   H6S24980   8.029   4.722   3.253
  187POPC   C2724981   8.119   4.619   3.423
  187POPC   H7R24982   8.193   4.537   3.438
  187POPC   H7S24983   8.021   4.580   3.457
  187POPC   C2824984   8.160   4.737   3.511
  187POPC   H8R24985   8.258   4.770   3.473
  187POPC   H8S24986   8.177   4.700   3.615
  187POPC   C2924987   8.057   4.847   3.514
  187POPC   H9124988   7.958   4.817   3.551
  187POPC  C21024989   8.076   4.976   3.476
  187POPC  H10124990   7.991   5.045   3.484
  187POPC  C21124991   8.205   5.036   3.424
  187POPC  H11R24992   8.182   5.119   3.354
  187POPC  H11S24993   8.261   4.961   3.364
  187POPC  C21224994   8.301   5.086   3.534
  187POPC  H12R24995   8.251   5.159   3.600
  187POPC  H12S24996   8.387   5.137   3.484
  187POPC  C21324997   8.357   4.969   3.616
  187POPC  H13R24998   8.398   4.895   3.544
  187POPC  H13S24999   8.276   4.920   3.674
  187POPC  C21425000   8.471   5.005   3.710
  187POPC  H14R25001   8.545   5.070   3.659
  187POPC  H14S25002   8.521   4.911   3.740
  187POPC  C21525003   8.420   5.069   3.838
  187POPC  H15R25004   8.345   5.003   3.886
  187POPC  H15S25005   8.367   5.163   3.812
  187POPC  C21625006   8.535   5.095   3.934
  187POPC  H16R25007   8.618   5.148   3.882
  187POPC  H16S25008   8.573   4.998   3.972
  187POPC  C21725009   8.487   5.178   4.051
  187POPC  H17R25010   8.425   5.258   4.009
  187POPC  H17S25011   8.572   5.229   4.101
  187POPC  C21825012   8.405   5.094   4.149
  187POPC  H18R25013   8.464   5.006   4.182
  187POPC  H18S25014   8.312   5.057   4.102
  187POPC  H18T25015   8.377   5.153   4.238
  187POPC   C3325016   8.679   5.041   3.162
  187POPC   H3X25017   8.586   5.095   3.194
  187POPC   H3Y25018   8.750   5.117   3.123
  187POPC   C3425019   8.739   4.978   3.288
  187POPC   H4X25020   8.778   5.059   3.353
  187POPC   H4Y25021   8.825   4.913   3.261
  187POPC   C3525022   8.634   4.898   3.366
  187POPC   H5X25023   8.601   4.812   3.303
  187POPC   H5Y25024   8.545   4.962   3.386
  187POPC   C3625025   8.690   4.845   3.498
  187POPC   H6X25026   8.680   4.922   3.577
  187POPC   H6Y25027   8.798   4.828   3.483
  187POPC   C3725028   8.625   4.713   3.542
  187POPC   H7X25029   8.661   4.633   3.473
  187POPC   H7Y25030   8.515   4.721   3.529
  187POPC   C3825031   8.658   4.672   3.686
  187POPC   H8X25032   8.637   4.752   3.759
  187POPC   H8Y25033   8.767   4.651   3.691
  187POPC   C3925034   8.589   4.543   3.730
  187POPC   H9X25035   8.629   4.513   3.829
  187POPC   H9Y25036   8.619   4.466   3.656
  187POPC  C31025037   8.436   4.552   3.738
  187POPC  H10X25038   8.395   4.449   3.746
  187POPC  H10Y25039   8.392   4.594   3.645
  187POPC  C31125040   8.387   4.634   3.858
  187POPC  H11X25041   8.394   4.741   3.831
  187POPC  H11Y25042   8.453   4.617   3.946
  187POPC  C31225043   8.243   4.600   3.898
  187POPC  H12X25044   8.240   4.506   3.958
  187POPC  H12Y25045   8.185   4.581   3.805
  187POPC  C31325046   8.175   4.713   3.976
  187POPC  H13X25047   8.232   4.807   3.961
  187POPC  H13Y25048   8.176   4.691   4.085
  187POPC  C31425049   8.030   4.738   3.930
  187POPC  H14X25050   7.974   4.643   3.936
  187POPC  H14Y25051   8.029   4.772   3.824
  187POPC  C31525052   7.960   4.843   4.016
  187POPC  H15X25053   7.981   4.820   4.123
  187POPC  H15Y25054   7.850   4.832   4.003
  187POPC  C31625055   8.002   4.987   3.987
  187POPC  H16X25056   7.975   5.015   3.883
  187POPC  H16Y25057   8.112   4.998   3.998
  187POPC  H16Z25058   7.953   5.057   4.058
  188POPC     N25059   3.437   1.388   2.163
  188POPC   C1225060   3.336   1.410   2.275
  188POPC  H12A25061   3.329   1.515   2.299
  188POPC  H12B25062   3.372   1.358   2.364
  188POPC   C1325063   3.374   1.419   2.031
  188POPC  H13A25064   3.445   1.407   1.949
  188POPC  H13B25065   3.292   1.349   2.018
  188POPC  H13C25066   3.332   1.519   2.030
  188POPC   C1425067   3.561   1.469   2.184
  188POPC  H14A25068   3.541   1.576   2.177
  188POPC  H14B25069   3.600   1.452   2.284
  188POPC  H14C25070   3.636   1.443   2.111
  188POPC   C1525071   3.471   1.243   2.166
  188POPC  H15A25072   3.531   1.211   2.082
  188POPC  H15B25073   3.376   1.189   2.164
  188POPC  H15C25074   3.516   1.212   2.260
  188POPC   C1125075   3.192   1.353   2.253
  188POPC  H11A25076   3.149   1.392   2.158
  188POPC  H11B25077   3.127   1.395   2.331
  188POPC     P25078   3.213   1.132   2.389
  188POPC   O1325079   3.359   1.148   2.409
  188POPC   O1425080   3.165   0.992   2.375
  188POPC   O1225081   3.182   1.211   2.254
  188POPC   O1125082   3.135   1.211   2.505
  188POPC    C125083   3.003   1.175   2.549
  188POPC    HA25084   3.000   1.069   2.585
  188POPC    HB25085   2.931   1.184   2.465
  188POPC    C225086   2.947   1.265   2.667
  188POPC    HS25087   2.837   1.246   2.672
  188POPC   O2125088   2.967   1.406   2.654
  188POPC   C2125089   2.993   1.458   2.538
  188POPC   O2225090   2.928   1.445   2.435
  188POPC   C2225091   3.115   1.548   2.555
  188POPC   H2R25092   3.080   1.645   2.592
  188POPC   H2S25093   3.159   1.564   2.455
  188POPC    C325094   3.003   1.232   2.810
  188POPC    HX25095   2.967   1.133   2.845
  188POPC    HY25096   2.957   1.307   2.880
  188POPC   O3125097   3.146   1.248   2.817
  188POPC   C3125098   3.214   1.137   2.792
  188POPC   O3225099   3.166   1.025   2.792
  188POPC   C3225100   3.358   1.169   2.754
  188POPC   H2X25101   3.367   1.153   2.645
  188POPC   H2Y25102   3.378   1.275   2.773
  188POPC   C2325103   3.221   1.499   2.657
  188POPC   H3R25104   3.261   1.401   2.625
  188POPC   H3S25105   3.176   1.488   2.758
  188POPC   C2425106   3.332   1.603   2.663
  188POPC   H4R25107   3.288   1.702   2.692
  188POPC   H4S25108   3.369   1.611   2.558
  188POPC   C2525109   3.454   1.575   2.752
  188POPC   H5R25110   3.544   1.592   2.689
  188POPC   H5S25111   3.457   1.469   2.783
  188POPC   C2625112   3.466   1.666   2.877
  188POPC   H6R25113   3.455   1.601   2.966
  188POPC   H6S25114   3.381   1.738   2.881
  188POPC   C2725115   3.600   1.742   2.884
  188POPC   H7R25116   3.589   1.840   2.833
  188POPC   H7S25117   3.676   1.683   2.829
  188POPC   C2825118   3.658   1.760   3.026
  188POPC   H8R25119   3.753   1.817   3.018
  188POPC   H8S25120   3.689   1.660   3.063
  188POPC   C2925121   3.571   1.831   3.125
  188POPC   H9125122   3.570   1.941   3.115
  188POPC  C21025123   3.495   1.774   3.220
  188POPC  H10125124   3.436   1.841   3.284
  188POPC  C21125125   3.480   1.626   3.248
  188POPC  H11R25126   3.533   1.566   3.172
  188POPC  H11S25127   3.372   1.598   3.237
  188POPC  C21225128   3.528   1.575   3.387
  188POPC  H12R25129   3.632   1.610   3.406
  188POPC  H12S25130   3.528   1.464   3.385
  188POPC  C21325131   3.436   1.616   3.503
  188POPC  H13R25132   3.333   1.585   3.473
  188POPC  H13S25133   3.440   1.727   3.513
  188POPC  C21425134   3.458   1.557   3.642
  188POPC  H14R25135   3.452   1.447   3.642
  188POPC  H14S25136   3.371   1.595   3.702
  188POPC  C21525137   3.585   1.606   3.711
  188POPC  H15R25138   3.609   1.708   3.674
  188POPC  H15S25139   3.669   1.540   3.680
  188POPC  C21625140   3.578   1.613   3.866
  188POPC  H16R25141   3.536   1.711   3.898
  188POPC  H16S25142   3.684   1.610   3.900
  188POPC  C21725143   3.504   1.500   3.939
  188POPC  H17R25144   3.558   1.482   4.035
  188POPC  H17S25145   3.511   1.406   3.880
  188POPC  C21825146   3.358   1.530   3.976
  188POPC  H18R25147   3.312   1.442   4.027
  188POPC  H18S25148   3.297   1.553   3.887
  188POPC  H18T25149   3.352   1.616   4.045
  188POPC   C3325150   3.459   1.077   2.827
  188POPC   H3X25151   3.559   1.100   2.785
  188POPC   H3Y25152   3.437   0.971   2.801
  188POPC   C3425153   3.462   1.095   2.980
  188POPC   H4X25154   3.560   1.058   3.019
  188POPC   H4Y25155   3.384   1.030   3.027
  188POPC   C3525156   3.438   1.240   3.024
  188POPC   H5X25157   3.346   1.282   2.978
  188POPC   H5Y25158   3.520   1.304   2.989
  188POPC   C3625159   3.415   1.255   3.174
  188POPC   H6X25160   3.448   1.355   3.209
  188POPC   H6Y25161   3.473   1.178   3.230
  188POPC   C3725162   3.265   1.243   3.201
  188POPC   H7X25163   3.222   1.178   3.121
  188POPC   H7Y25164   3.217   1.343   3.190
  188POPC   C3825165   3.230   1.179   3.334
  188POPC   H8X25166   3.261   1.245   3.417
  188POPC   H8Y25167   3.285   1.083   3.344
  188POPC   C3925168   3.079   1.151   3.338
  188POPC   H9X25169   3.055   1.080   3.255
  188POPC   H9Y25170   3.023   1.245   3.319
  188POPC  C31025171   3.034   1.089   3.470
  188POPC  H10X25172   3.104   1.006   3.495
  188POPC  H10Y25173   2.932   1.045   3.458
  188POPC  C31125174   3.030   1.190   3.585
  188POPC  H11X25175   2.942   1.256   3.572
  188POPC  H11Y25176   3.121   1.254   3.584
  188POPC  C31225177   3.022   1.118   3.720
  188POPC  H12X25178   3.106   1.045   3.725
  188POPC  H12Y25179   2.928   1.059   3.722
  188POPC  C31325180   3.030   1.209   3.843
  188POPC  H13X25181   3.137   1.224   3.871
  188POPC  H13Y25182   2.979   1.153   3.924
  188POPC  C31425183   2.964   1.347   3.833
  188POPC  H14X25184   2.856   1.331   3.809
  188POPC  H14Y25185   3.008   1.405   3.748
  188POPC  C31525186   2.979   1.430   3.961
  188POPC  H15X25187   2.911   1.518   3.955
  188POPC  H15Y25188   3.083   1.470   3.966
  188POPC  C31625189   2.952   1.354   4.092
  188POPC  H16X25190   2.919   1.423   4.173
  188POPC  H16Y25191   3.044   1.301   4.126
  188POPC  H16Z25192   2.872   1.278   4.077
  189POPC     N25193   6.825   1.556   2.106
  189POPC   C1225194   6.804   1.439   2.201
  189POPC  H12A25195   6.886   1.369   2.190
  189POPC  H12B25196   6.715   1.385   2.170
  189POPC   C1325197   6.706   1.644   2.094
  189POPC  H13A25198   6.689   1.697   2.189
  189POPC  H13B25199   6.720   1.721   2.020
  189POPC  H13C25200   6.617   1.589   2.068
  189POPC   C1425201   6.938   1.644   2.151
  189POPC  H14A25202   6.919   1.672   2.255
  189POPC  H14B25203   7.033   1.595   2.144
  189POPC  H14C25204   6.937   1.736   2.094
  189POPC   C1525205   6.851   1.498   1.973
  189POPC  H15A25206   6.761   1.453   1.932
  189POPC  H15B25207   6.929   1.423   1.976
  189POPC  H15C25208   6.884   1.577   1.906
  189POPC   C1125209   6.790   1.464   2.352
  189POPC  H11A25210   6.890   1.490   2.394
  189POPC  H11B25211   6.761   1.365   2.395
  189POPC     P25212   6.716   1.690   2.468
  189POPC   O1325213   6.687   1.797   2.372
  189POPC   O1425214   6.854   1.684   2.523
  189POPC   O1225215   6.688   1.558   2.383
  189POPC   O1125216   6.607   1.678   2.583
  189POPC    C125217   6.481   1.611   2.571
  189POPC    HA25218   6.458   1.588   2.465
  189POPC    HB25219   6.401   1.680   2.607
  189POPC    C225220   6.466   1.477   2.652
  189POPC    HS25221   6.375   1.425   2.614
  189POPC   O2125222   6.455   1.499   2.794
  189POPC   C2125223   6.329   1.521   2.836
  189POPC   O2225224   6.232   1.527   2.762
  189POPC   C2225225   6.328   1.534   2.988
  189POPC   H2R25226   6.422   1.492   3.029
  189POPC   H2S25227   6.242   1.476   3.028
  189POPC    C325228   6.581   1.372   2.629
  189POPC    HX25229   6.571   1.334   2.525
  189POPC    HY25230   6.559   1.290   2.699
  189POPC   O3125231   6.716   1.418   2.652
  189POPC   C3125232   6.807   1.321   2.638
  189POPC   O3225233   6.781   1.205   2.612
  189POPC   C3225234   6.947   1.376   2.661
  189POPC   H2X25235   6.947   1.485   2.639
  189POPC   H2Y25236   7.016   1.323   2.592
  189POPC   C2325237   6.315   1.682   3.030
  189POPC   H3R25238   6.325   1.690   3.140
  189POPC   H3S25239   6.213   1.717   3.004
  189POPC   C2425240   6.417   1.777   2.964
  189POPC   H4R25241   6.383   1.881   2.981
  189POPC   H4S25242   6.421   1.763   2.854
  189POPC   C2525243   6.558   1.771   3.021
  189POPC   H5R25244   6.602   1.670   3.005
  189POPC   H5S25245   6.553   1.789   3.131
  189POPC   C2625246   6.646   1.878   2.956
  189POPC   H6R25247   6.600   1.979   2.972
  189POPC   H6S25248   6.647   1.859   2.846
  189POPC   C2725249   6.790   1.881   3.008
  189POPC   H7R25250   6.848   1.950   2.942
  189POPC   H7S25251   6.835   1.779   2.996
  189POPC   C2825252   6.803   1.926   3.154
  189POPC   H8R25253   6.754   1.851   3.219
  189POPC   H8S25254   6.748   2.021   3.167
  189POPC   C2925255   6.949   1.945   3.188
  189POPC   H9125256   7.001   2.020   3.126
  189POPC  C21025257   7.019   1.881   3.283
  189POPC  H10125258   7.125   1.906   3.297
  189POPC  C21125259   6.968   1.776   3.379
  189POPC  H11R25260   7.044   1.695   3.388
  189POPC  H11S25261   6.873   1.728   3.345
  189POPC  C21225262   6.946   1.839   3.517
  189POPC  H12R25263   6.853   1.901   3.516
  189POPC  H12S25264   7.031   1.908   3.541
  189POPC  C21325265   6.939   1.735   3.629
  189POPC  H13R25266   7.024   1.664   3.617
  189POPC  H13S25267   6.845   1.677   3.621
  189POPC  C21425268   6.952   1.802   3.766
  189POPC  H14R25269   6.865   1.869   3.784
  189POPC  H14S25270   7.044   1.864   3.766
  189POPC  C21525271   6.964   1.701   3.881
  189POPC  H15R25272   6.994   1.759   3.971
  189POPC  H15S25273   7.045   1.628   3.858
  189POPC  C21625274   6.833   1.628   3.913
  189POPC  H16R25275   6.794   1.579   3.821
  189POPC  H16S25276   6.762   1.706   3.947
  189POPC  C21725277   6.844   1.522   4.023
  189POPC  H17R25278   6.869   1.424   3.978
  189POPC  H17S25279   6.744   1.511   4.071
  189POPC  C21825280   6.948   1.558   4.128
  189POPC  H18R25281   6.953   1.478   4.205
  189POPC  H18S25282   6.924   1.655   4.177
  189POPC  H18T25283   7.048   1.564   4.081
  189POPC   C3325284   6.987   1.351   2.807
  189POPC   H3X25285   7.090   1.389   2.825
  189POPC   H3Y25286   6.985   1.242   2.828
  189POPC   C3425287   6.891   1.420   2.904
  189POPC   H4X25288   6.788   1.379   2.893
  189POPC   H4Y25289   6.887   1.529   2.882
  189POPC   C3525290   6.934   1.400   3.049
  189POPC   H5X25291   7.037   1.440   3.062
  189POPC   H5Y25292   6.938   1.291   3.072
  189POPC   C3625293   6.839   1.471   3.144
  189POPC   H6X25294   6.825   1.576   3.112
  189POPC   H6Y25295   6.887   1.472   3.244
  189POPC   C3725296   6.702   1.402   3.155
  189POPC   H7X25297   6.719   1.292   3.153
  189POPC   H7Y25298   6.636   1.425   3.069
  189POPC   C3825299   6.635   1.434   3.289
  189POPC   H8X25300   6.715   1.425   3.366
  189POPC   H8Y25301   6.555   1.360   3.313
  189POPC   C3925302   6.582   1.576   3.299
  189POPC   H9X25303   6.485   1.585   3.246
  189POPC   H9Y25304   6.655   1.644   3.250
  189POPC  C31025305   6.570   1.618   3.445
  189POPC  H10X25306   6.665   1.594   3.498
  189POPC  H10Y25307   6.488   1.560   3.493
  189POPC  C31125308   6.546   1.769   3.458
  189POPC  H11X25309   6.449   1.793   3.410
  189POPC  H11Y25310   6.625   1.823   3.402
  189POPC  C31225311   6.547   1.817   3.602
  189POPC  H12X25312   6.525   1.925   3.604
  189POPC  H12Y25313   6.650   1.806   3.644
  189POPC  C31325314   6.449   1.738   3.691
  189POPC  H13X25315   6.373   1.687   3.630
  189POPC  H13Y25316   6.396   1.806   3.761
  189POPC  C31425317   6.527   1.638   3.774
  189POPC  H14X25318   6.609   1.697   3.820
  189POPC  H14Y25319   6.571   1.559   3.711
  189POPC  C31525320   6.451   1.574   3.889
  189POPC  H15X25321   6.528   1.508   3.936
  189POPC  H15Y25322   6.367   1.511   3.852
  189POPC  C31625323   6.404   1.670   3.998
  189POPC  H16X25324   6.369   1.612   4.085
  189POPC  H16Y25325   6.321   1.734   3.962
  189POPC  H16Z25326   6.487   1.734   4.033
  190POPC     N25327   7.756   7.045   2.196
  190POPC   C1225328   7.755   7.197   2.204
  190POPC  H12A25329   7.773   7.238   2.105
  190POPC  H12B25330   7.842   7.226   2.264
  190POPC   C1325331   7.634   6.977   2.143
  190POPC  H13A25332   7.653   6.870   2.138
  190POPC  H13B25333   7.549   6.992   2.209
  190POPC  H13C25334   7.606   7.010   2.043
  190POPC   C1425335   7.873   6.998   2.115
  190POPC  H14A25336   7.885   6.891   2.130
  190POPC  H14B25337   7.860   7.015   2.009
  190POPC  H14C25338   7.965   7.044   2.150
  190POPC   C1525339   7.776   6.994   2.336
  190POPC  H15A25340   7.787   6.885   2.335
  190POPC  H15B25341   7.694   7.026   2.400
  190POPC  H15C25342   7.867   7.036   2.377
  190POPC   C1125343   7.634   7.268   2.268
  190POPC  H11A25344   7.541   7.222   2.227
  190POPC  H11B25345   7.637   7.376   2.237
  190POPC     P25346   7.502   7.303   2.484
  190POPC   O1325347   7.444   7.179   2.539
  190POPC   O1425348   7.421   7.375   2.383
  190POPC   O1225349   7.640   7.264   2.412
  190POPC   O1125350   7.530   7.411   2.596
  190POPC    C125351   7.614   7.525   2.570
  190POPC    HA25352   7.562   7.619   2.599
  190POPC    HB25353   7.639   7.535   2.462
  190POPC    C225354   7.750   7.512   2.643
  190POPC    HS25355   7.827   7.562   2.581
  190POPC   O2125356   7.772   7.370   2.651
  190POPC   C2125357   7.877   7.323   2.705
  190POPC   O2225358   7.970   7.388   2.749
  190POPC   C2225359   7.874   7.172   2.690
  190POPC   H2R25360   7.977   7.137   2.685
  190POPC   H2S25361   7.823   7.149   2.594
  190POPC    C325362   7.761   7.581   2.782
  190POPC    HX25363   7.725   7.686   2.774
  190POPC    HY25364   7.868   7.591   2.810
  190POPC   O3125365   7.696   7.500   2.881
  190POPC   C3125366   7.570   7.533   2.900
  190POPC   O3225367   7.522   7.641   2.870
  190POPC   C3225368   7.497   7.423   2.975
  190POPC   H2X25369   7.408   7.469   3.023
  190POPC   H2Y25370   7.563   7.386   3.056
  190POPC   C2325371   7.799   7.108   2.808
  190POPC   H3R25372   7.789   6.999   2.793
  190POPC   H3S25373   7.697   7.150   2.811
  190POPC   C2425374   7.870   7.136   2.940
  190POPC   H4R25375   7.894   7.245   2.943
  190POPC   H4S25376   7.967   7.083   2.945
  190POPC   C2525377   7.784   7.105   3.062
  190POPC   H5R25378   7.759   6.996   3.063
  190POPC   H5S25379   7.688   7.160   3.050
  190POPC   C2625380   7.849   7.145   3.195
  190POPC   H6R25381   7.932   7.074   3.218
  190POPC   H6S25382   7.775   7.138   3.276
  190POPC   C2725383   7.909   7.287   3.197
  190POPC   H7R25384   7.994   7.288   3.127
  190POPC   H7S25385   7.948   7.309   3.299
  190POPC   C2825386   7.813   7.397   3.151
  190POPC   H8R25387   7.729   7.405   3.222
  190POPC   H8S25388   7.769   7.365   3.055
  190POPC   C2925389   7.884   7.527   3.127
  190POPC   H9125390   7.931   7.539   3.028
  190POPC  C21025391   7.899   7.623   3.220
  190POPC  H10125392   7.951   7.717   3.195
  190POPC  C21125393   7.847   7.610   3.359
  190POPC  H11R25394   7.901   7.678   3.428
  190POPC  H11S25395   7.870   7.508   3.398
  190POPC  C21225396   7.695   7.629   3.367
  190POPC  H12R25397   7.647   7.620   3.267
  190POPC  H12S25398   7.672   7.732   3.402
  190POPC  C21325399   7.631   7.522   3.458
  190POPC  H13R25400   7.660   7.420   3.426
  190POPC  H13S25401   7.522   7.531   3.448
  190POPC  C21425402   7.667   7.542   3.605
  190POPC  H14R25403   7.705   7.645   3.611
  190POPC  H14S25404   7.747   7.472   3.638
  190POPC  C21525405   7.544   7.533   3.695
  190POPC  H15R25406   7.467   7.602   3.654
  190POPC  H15S25407   7.570   7.569   3.797
  190POPC  C21625408   7.483   7.393   3.697
  190POPC  H16R25409   7.565   7.324   3.670
  190POPC  H16S25410   7.408   7.384   3.616
  190POPC  C21725411   7.419   7.350   3.831
  190POPC  H17R25412   7.397   7.241   3.823
  190POPC  H17S25413   7.321   7.403   3.840
  190POPC  C21825414   7.501   7.377   3.958
  190POPC  H18R25415   7.499   7.484   3.985
  190POPC  H18S25416   7.607   7.348   3.948
  190POPC  H18T25417   7.461   7.318   4.043
  190POPC   C3325418   7.450   7.308   2.884
  190POPC   H3X25419   7.533   7.253   2.836
  190POPC   H3Y25420   7.391   7.352   2.800
  190POPC   C3425421   7.356   7.213   2.958
  190POPC   H4X25422   7.313   7.138   2.889
  190POPC   H4Y25423   7.275   7.283   2.988
  190POPC   C3525424   7.407   7.149   3.089
  190POPC   H5X25425   7.328   7.160   3.166
  190POPC   H5Y25426   7.496   7.202   3.127
  190POPC   C3625427   7.437   6.999   3.077
  190POPC   H6X25428   7.534   6.985   3.024
  190POPC   H6Y25429   7.358   6.951   3.015
  190POPC   C3725430   7.441   6.928   3.214
  190POPC   H7X25431   7.497   6.833   3.199
  190POPC   H7Y25432   7.338   6.902   3.245
  190POPC   C3825433   7.504   7.007   3.330
  190POPC   H8X25434   7.429   7.075   3.373
  190POPC   H8Y25435   7.586   7.069   3.289
  190POPC   C3925436   7.561   6.914   3.439
  190POPC   H9X25437   7.646   6.859   3.394
  190POPC   H9Y25438   7.483   6.839   3.466
  190POPC  C31025439   7.610   6.983   3.567
  190POPC  H10X25440   7.656   6.905   3.632
  190POPC  H10Y25441   7.522   7.023   3.622
  190POPC  C31125442   7.712   7.095   3.543
  190POPC  H11X25443   7.658   7.180   3.496
  190POPC  H11Y25444   7.789   7.059   3.471
  190POPC  C31225445   7.787   7.148   3.667
  190POPC  H12X25446   7.816   7.253   3.642
  190POPC  H12Y25447   7.882   7.095   3.684
  190POPC  C31325448   7.706   7.153   3.798
  190POPC  H13X25449   7.598   7.159   3.773
  190POPC  H13Y25450   7.737   7.247   3.847
  190POPC  C31425451   7.720   7.039   3.899
  190POPC  H14X25452   7.738   6.944   3.845
  190POPC  H14Y25453   7.623   7.027   3.952
  190POPC  C31525454   7.827   7.064   4.007
  190POPC  H15X25455   7.924   7.085   3.957
  190POPC  H15Y25456   7.840   6.969   4.066
  190POPC  C31625457   7.793   7.176   4.106
  190POPC  H16X25458   7.786   7.274   4.055
  190POPC  H16Y25459   7.871   7.184   4.184
  190POPC  H16Z25460   7.696   7.155   4.156
  191POPC     N25461   8.142   6.253   2.281
  191POPC   C1225462   8.003   6.276   2.339
  191POPC  H12A25463   7.982   6.203   2.415
  191POPC  H12B25464   7.931   6.262   2.259
  191POPC   C1325465   8.152   6.334   2.155
  191POPC  H13A25466   8.242   6.315   2.098
  191POPC  H13B25467   8.067   6.316   2.089
  191POPC  H13C25468   8.149   6.440   2.182
  191POPC   C1425469   8.247   6.298   2.378
  191POPC  H14A25470   8.230   6.403   2.403
  191POPC  H14B25471   8.246   6.242   2.471
  191POPC  H14C25472   8.348   6.293   2.338
  191POPC   C1525473   8.152   6.108   2.247
  191POPC  H15A25474   8.155   6.044   2.334
  191POPC  H15B25475   8.240   6.088   2.187
  191POPC  H15C25476   8.066   6.080   2.186
  191POPC   C1125477   7.971   6.414   2.398
  191POPC  H11A25478   8.034   6.430   2.489
  191POPC  H11B25479   7.863   6.415   2.429
  191POPC     P25480   7.988   6.664   2.344
  191POPC   O1325481   7.905   6.738   2.248
  191POPC   O1425482   8.125   6.717   2.360
  191POPC   O1225483   7.994   6.514   2.300
  191POPC   O1125484   7.914   6.658   2.483
  191POPC    C125485   7.927   6.754   2.586
  191POPC    HA25486   7.850   6.731   2.664
  191POPC    HB25487   7.906   6.858   2.550
  191POPC    C225488   8.066   6.749   2.654
  191POPC    HS25489   8.139   6.793   2.582
  191POPC   O2125490   8.099   6.612   2.687
  191POPC   C2125491   8.229   6.595   2.705
  191POPC   O2225492   8.316   6.678   2.681
  191POPC   C2225493   8.256   6.458   2.766
  191POPC   H2R25494   8.307   6.399   2.686
  191POPC   H2S25495   8.161   6.409   2.791
  191POPC    C325496   8.069   6.836   2.781
  191POPC    HX25497   8.040   6.940   2.758
  191POPC    HY25498   8.174   6.836   2.820
  191POPC   O3125499   7.975   6.780   2.875
  191POPC   C3125500   8.007   6.806   2.999
  191POPC   O3225501   8.081   6.895   3.036
  191POPC   C3225502   7.947   6.704   3.093
  191POPC   H2X25503   8.034   6.646   3.130
  191POPC   H2Y25504   7.879   6.636   3.038
  191POPC   C2325505   8.350   6.463   2.889
  191POPC   H3R25506   8.442   6.520   2.867
  191POPC   H3S25507   8.387   6.360   2.910
  191POPC   C2425508   8.283   6.505   3.021
  191POPC   H4R25509   8.176   6.475   3.019
  191POPC   H4S25510   8.287   6.615   3.028
  191POPC   C2525511   8.351   6.436   3.142
  191POPC   H5R25512   8.457   6.467   3.148
  191POPC   H5S25513   8.349   6.326   3.124
  191POPC   C2625514   8.283   6.463   3.277
  191POPC   H6R25515   8.337   6.403   3.355
  191POPC   H6S25516   8.179   6.427   3.274
  191POPC   C2725517   8.287   6.610   3.320
  191POPC   H7R25518   8.228   6.670   3.247
  191POPC   H7S25519   8.393   6.640   3.316
  191POPC   C2825520   8.238   6.640   3.463
  191POPC   H8R25521   8.309   6.594   3.534
  191POPC   H8S25522   8.139   6.591   3.478
  191POPC   C2925523   8.231   6.788   3.488
  191POPC   H9125524   8.293   6.851   3.423
  191POPC  C21025525   8.160   6.846   3.587
  191POPC  H10125526   8.157   6.956   3.594
  191POPC  C21125527   8.076   6.770   3.687
  191POPC  H11R25528   8.113   6.794   3.790
  191POPC  H11S25529   8.086   6.660   3.676
  191POPC  C21225530   7.926   6.804   3.681
  191POPC  H12R25531   7.887   6.805   3.578
  191POPC  H12S25532   7.914   6.906   3.722
  191POPC  C21325533   7.841   6.710   3.767
  191POPC  H13R25534   7.845   6.607   3.726
  191POPC  H13S25535   7.735   6.743   3.765
  191POPC  C21425536   7.893   6.712   3.911
  191POPC  H14R25537   7.924   6.816   3.936
  191POPC  H14S25538   7.984   6.650   3.916
  191POPC  C21525539   7.793   6.665   4.016
  191POPC  H15R25540   7.699   6.724   4.011
  191POPC  H15S25541   7.842   6.686   4.113
  191POPC  C21625542   7.763   6.515   4.004
  191POPC  H16R25543   7.778   6.492   3.896
  191POPC  H16S25544   7.659   6.491   4.028
  191POPC  C21725545   7.862   6.425   4.078
  191POPC  H17R25546   7.941   6.486   4.125
  191POPC  H17S25547   7.909   6.370   3.995
  191POPC  C21825548   7.815   6.316   4.173
  191POPC  H18R25549   7.901   6.269   4.224
  191POPC  H18S25550   7.766   6.234   4.116
  191POPC  H18T25551   7.745   6.355   4.250
  191POPC   C3325552   7.875   6.772   3.210
  191POPC   H3X25553   7.769   6.793   3.182
  191POPC   H3Y25554   7.922   6.870   3.236
  191POPC   C3425555   7.880   6.689   3.338
  191POPC   H4X25556   7.790   6.710   3.398
  191POPC   H4Y25557   7.968   6.721   3.398
  191POPC   C3525558   7.891   6.539   3.314
  191POPC   H5X25559   7.998   6.509   3.309
  191POPC   H5Y25560   7.843   6.511   3.219
  191POPC   C3625561   7.820   6.462   3.424
  191POPC   H6X25562   7.714   6.492   3.414
  191POPC   H6Y25563   7.855   6.495   3.524
  191POPC   C3725564   7.828   6.310   3.409
  191POPC   H7X25565   7.865   6.289   3.305
  191POPC   H7Y25566   7.728   6.262   3.416
  191POPC   C3825567   7.926   6.248   3.508
  191POPC   H8X25568   8.020   6.304   3.487
  191POPC   H8Y25569   7.938   6.142   3.480
  191POPC   C3925570   7.904   6.257   3.661
  191POPC   H9X25571   7.816   6.198   3.692
  191POPC   H9Y25572   7.888   6.362   3.692
  191POPC  C31025573   8.033   6.202   3.726
  191POPC  H10X25574   8.116   6.243   3.664
  191POPC  H10Y25575   8.032   6.091   3.715
  191POPC  C31125576   8.075   6.237   3.870
  191POPC  H11X25577   8.163   6.174   3.894
  191POPC  H11Y25578   7.996   6.206   3.941
  191POPC  C31225579   8.126   6.382   3.890
  191POPC  H12X25580   8.046   6.454   3.868
  191POPC  H12Y25581   8.206   6.403   3.816
  191POPC  C31325582   8.184   6.404   4.032
  191POPC  H13X25583   8.275   6.341   4.038
  191POPC  H13Y25584   8.117   6.363   4.109
  191POPC  C31425585   8.216   6.552   4.066
  191POPC  H14X25586   8.121   6.610   4.069
  191POPC  H14Y25587   8.278   6.596   3.985
  191POPC  C31525588   8.287   6.574   4.201
  191POPC  H15X25589   8.371   6.503   4.209
  191POPC  H15Y25590   8.217   6.550   4.285
  191POPC  C31625591   8.345   6.714   4.222
  191POPC  H16X25592   8.265   6.788   4.244
  191POPC  H16Y25593   8.401   6.747   4.132
  191POPC  H16Z25594   8.417   6.714   4.307
  192POPC     N25595   1.423   6.830   2.207
  192POPC   C1225596   1.414   6.797   2.356
  192POPC  H12A25597   1.313   6.763   2.378
  192POPC  H12B25598   1.432   6.886   2.414
  192POPC   C1325599   1.335   6.944   2.166
  192POPC  H13A25600   1.363   7.039   2.209
  192POPC  H13B25601   1.334   6.954   2.057
  192POPC  H13C25602   1.231   6.924   2.190
  192POPC   C1425603   1.565   6.863   2.170
  192POPC  H14A25604   1.571   6.911   2.073
  192POPC  H14B25605   1.609   6.929   2.243
  192POPC  H14C25606   1.624   6.772   2.164
  192POPC   C1525607   1.384   6.708   2.129
  192POPC  H15A25608   1.281   6.684   2.148
  192POPC  H15B25609   1.442   6.623   2.167
  192POPC  H15C25610   1.399   6.720   2.023
  192POPC   C1125611   1.505   6.684   2.415
  192POPC  H11A25612   1.481   6.675   2.524
  192POPC  H11B25613   1.612   6.714   2.407
  192POPC     P25614   1.525   6.420   2.417
  192POPC   O1325615   1.653   6.436   2.490
  192POPC   O1425616   1.513   6.311   2.316
  192POPC   O1225617   1.485   6.560   2.348
  192POPC   O1125618   1.408   6.404   2.523
  192POPC    C125619   1.271   6.422   2.489
  192POPC    HA25620   1.228   6.324   2.459
  192POPC    HB25621   1.259   6.493   2.404
  192POPC    C225622   1.186   6.481   2.607
  192POPC    HS25623   1.083   6.497   2.566
  192POPC   O2125624   1.243   6.607   2.646
  192POPC   C2125625   1.172   6.678   2.731
  192POPC   O2225626   1.052   6.668   2.749
  192POPC   C2225627   1.262   6.786   2.791
  192POPC   H2R25628   1.237   6.881   2.740
  192POPC   H2S25629   1.369   6.761   2.771
  192POPC    C325630   1.175   6.385   2.730
  192POPC    HX25631   1.137   6.286   2.696
  192POPC    HY25632   1.099   6.425   2.801
  192POPC   O3125633   1.302   6.377   2.799
  192POPC   C3125634   1.376   6.269   2.778
  192POPC   O3225635   1.335   6.161   2.739
  192POPC   C3225636   1.524   6.301   2.806
  192POPC   H2X25637   1.538   6.411   2.806
  192POPC   H2Y25638   1.579   6.261   2.718
  192POPC   C2325639   1.238   6.799   2.942
  192POPC   H3R25640   1.129   6.803   2.965
  192POPC   H3S25641   1.282   6.895   2.978
  192POPC   C2425642   1.303   6.685   3.022
  192POPC   H4R25643   1.411   6.677   2.997
  192POPC   H4S25644   1.255   6.589   2.991
  192POPC   C2525645   1.286   6.707   3.173
  192POPC   H5R25646   1.187   6.754   3.192
  192POPC   H5S25647   1.364   6.779   3.208
  192POPC   C2625648   1.293   6.578   3.256
  192POPC   H6R25649   1.285   6.608   3.363
  192POPC   H6S25650   1.392   6.529   3.243
  192POPC   C2725651   1.179   6.480   3.224
  192POPC   H7R25652   1.215   6.410   3.145
  192POPC   H7S25653   1.094   6.536   3.180
  192POPC   C2825654   1.130   6.400   3.346
  192POPC   H8R25655   1.219   6.353   3.394
  192POPC   H8S25656   1.067   6.316   3.309
  192POPC   C2925657   1.050   6.487   3.440
  192POPC   H9125658   0.957   6.527   3.398
  192POPC  C21025659   1.085   6.520   3.566
  192POPC  H10125660   1.019   6.586   3.625
  192POPC  C21125661   1.212   6.474   3.633
  192POPC  H11R25662   1.300   6.517   3.580
  192POPC  H11S25663   1.221   6.363   3.627
  192POPC  C21225664   1.225   6.514   3.782
  192POPC  H12R25665   1.223   6.625   3.791
  192POPC  H12S25666   1.325   6.481   3.816
  192POPC  C21325667   1.119   6.451   3.873
  192POPC  H13R25668   1.116   6.341   3.855
  192POPC  H13S25669   1.019   6.492   3.846
  192POPC  C21425670   1.144   6.476   4.023
  192POPC  H14R25671   1.057   6.436   4.079
  192POPC  H14S25672   1.149   6.585   4.043
  192POPC  C21525673   1.271   6.408   4.077
  192POPC  H15R25674   1.362   6.460   4.039
  192POPC  H15S25675   1.273   6.304   4.037
  192POPC  C21625676   1.273   6.403   4.230
  192POPC  H16R25677   1.185   6.344   4.263
  192POPC  H16S25678   1.260   6.506   4.271
  192POPC  C21725679   1.399   6.341   4.294
  192POPC  H17R25680   1.368   6.290   4.388
  192POPC  H17S25681   1.467   6.424   4.324
  192POPC  C21825682   1.478   6.242   4.208
  192POPC  H18R25683   1.547   6.184   4.272
  192POPC  H18S25684   1.538   6.296   4.131
  192POPC  H18T25685   1.411   6.171   4.156
  192POPC   C3325686   1.583   6.236   2.934
  192POPC   H3X25687   1.693   6.225   2.919
  192POPC   H3Y25688   1.544   6.132   2.939
  192POPC   C3425689   1.563   6.315   3.065
  192POPC   H4X25690   1.467   6.371   3.061
  192POPC   H4Y25691   1.645   6.390   3.073
  192POPC   C3525692   1.561   6.226   3.192
  192POPC   H5X25693   1.634   6.143   3.180
  192POPC   H5Y25694   1.459   6.184   3.200
  192POPC   C3625695   1.588   6.295   3.327
  192POPC   H6X25696   1.515   6.378   3.340
  192POPC   H6Y25697   1.690   6.338   3.329
  192POPC   C3725698   1.570   6.196   3.445
  192POPC   H7X25699   1.659   6.131   3.454
  192POPC   H7Y25700   1.482   6.131   3.422
  192POPC   C3825701   1.536   6.262   3.579
  192POPC   H8X25702   1.517   6.182   3.655
  192POPC   H8Y25703   1.441   6.319   3.567
  192POPC   C3925704   1.644   6.356   3.632
  192POPC   H9X25705   1.679   6.423   3.551
  192POPC   H9Y25706   1.731   6.295   3.666
  192POPC  C31025707   1.593   6.442   3.748
  192POPC  H10X25708   1.540   6.378   3.823
  192POPC  H10Y25709   1.520   6.517   3.709
  192POPC  C31125710   1.709   6.512   3.817
  192POPC  H11X25711   1.763   6.575   3.743
  192POPC  H11Y25712   1.777   6.431   3.854
  192POPC  C31225713   1.675   6.599   3.937
  192POPC  H12X25714   1.753   6.585   4.014
  192POPC  H12Y25715   1.580   6.565   3.983
  192POPC  C31325716   1.676   6.748   3.903
  192POPC  H13X25717   1.596   6.772   3.829
  192POPC  H13Y25718   1.774   6.772   3.855
  192POPC  C31425719   1.660   6.834   4.028
  192POPC  H14X25720   1.724   6.925   4.020
  192POPC  H14Y25721   1.697   6.779   4.118
  192POPC  C31525722   1.515   6.877   4.047
  192POPC  H15X25723   1.481   6.934   3.958
  192POPC  H15Y25724   1.515   6.945   4.133
  192POPC  C31625725   1.418   6.761   4.073
  192POPC  H16X25726   1.446   6.708   4.167
  192POPC  H16Y25727   1.420   6.688   3.990
  192POPC  H16Z25728   1.314   6.796   4.082
  193POPC     N25729   3.997   8.590   2.251
  193POPC   C1225730   3.954   8.554   2.392
  193POPC  H12A25731   3.860   8.603   2.414
  193POPC  H12B25732   4.027   8.592   2.463
  193POPC   C1325733   4.125   8.516   2.219
  193POPC  H13A25734   4.203   8.535   2.292
  193POPC  H13B25735   4.105   8.409   2.218
  193POPC  H13C25736   4.166   8.544   2.122
  193POPC   C1425737   3.890   8.552   2.155
  193POPC  H14A25738   3.865   8.447   2.170
  193POPC  H14B25739   3.798   8.607   2.174
  193POPC  H14C25740   3.920   8.569   2.052
  193POPC   C1525741   4.017   8.738   2.248
  193POPC  H15A25742   4.038   8.774   2.147
  193POPC  H15B25743   4.100   8.766   2.311
  193POPC  H15C25744   3.929   8.792   2.281
  193POPC   C1125745   3.936   8.405   2.424
  193POPC  H11A25746   3.915   8.397   2.534
  193POPC  H11B25747   4.032   8.351   2.406
  193POPC     P25748   3.734   8.244   2.410
  193POPC   O1325749   3.674   8.156   2.306
  193POPC   O1425750   3.640   8.316   2.498
  193POPC   O1225751   3.833   8.348   2.342
  193POPC   O1125752   3.841   8.161   2.493
  193POPC    C125753   3.945   8.087   2.426
  193POPC    HA25754   4.000   8.148   2.351
  193POPC    HB25755   3.896   8.003   2.373
  193POPC    C225756   4.052   8.017   2.520
  193POPC    HS25757   4.063   7.911   2.486
  193POPC   O2125758   4.008   8.019   2.657
  193POPC   C2125759   3.888   7.965   2.667
  193POPC   O2225760   3.846   7.875   2.595
  193POPC   C2225761   3.811   8.044   2.772
  193POPC   H2R25762   3.704   8.043   2.744
  193POPC   H2S25763   3.844   8.150   2.767
  193POPC    C325764   4.196   8.077   2.513
  193POPC    HX25765   4.240   8.063   2.413
  193POPC    HY25766   4.260   8.019   2.584
  193POPC   O3125767   4.192   8.218   2.541
  193POPC   C3125768   4.265   8.258   2.643
  193POPC   O3225769   4.348   8.194   2.704
  193POPC   C3225770   4.203   8.388   2.694
  193POPC   H2X25771   4.129   8.428   2.622
  193POPC   H2Y25772   4.284   8.463   2.705
  193POPC   C2325773   3.831   7.991   2.916
  193POPC   H3R25774   3.939   7.995   2.944
  193POPC   H3S25775   3.798   7.885   2.920
  193POPC   C2425776   3.750   8.073   3.016
  193POPC   H4R25777   3.644   8.076   2.981
  193POPC   H4S25778   3.788   8.177   3.017
  193POPC   C2525779   3.752   8.016   3.158
  193POPC   H5R25780   3.691   8.083   3.223
  193POPC   H5S25781   3.856   8.016   3.198
  193POPC   C2625782   3.693   7.874   3.166
  193POPC   H6R25783   3.770   7.799   3.136
  193POPC   H6S25784   3.609   7.868   3.093
  193POPC   C2725785   3.634   7.836   3.303
  193POPC   H7R25786   3.584   7.737   3.292
  193POPC   H7S25787   3.555   7.909   3.325
  193POPC   C2825788   3.736   7.827   3.418
  193POPC   H8R25789   3.824   7.769   3.382
  193POPC   H8S25790   3.691   7.767   3.501
  193POPC   C2925791   3.769   7.965   3.467
  193POPC   H9125792   3.684   8.034   3.476
  193POPC  C21025793   3.891   8.011   3.496
  193POPC  H10125794   3.903   8.115   3.531
  193POPC  C21125795   4.017   7.931   3.484
  193POPC  H11R25796   4.067   7.953   3.388
  193POPC  H11S25797   3.997   7.822   3.491
  193POPC  C21225798   4.113   7.969   3.596
  193POPC  H12R25799   4.156   8.069   3.576
  193POPC  H12S25800   4.196   7.894   3.594
  193POPC  C21325801   4.053   7.967   3.736
  193POPC  H13R25802   4.004   7.868   3.753
  193POPC  H13S25803   3.974   8.045   3.748
  193POPC  C21425804   4.163   7.991   3.837
  193POPC  H14R25805   4.253   7.930   3.814
  193POPC  H14S25806   4.127   7.960   3.936
  193POPC  C21525807   4.199   8.139   3.852
  193POPC  H15R25808   4.106   8.197   3.867
  193POPC  H15S25809   4.252   8.176   3.762
  193POPC  C21625810   4.286   8.151   3.976
  193POPC  H16R25811   4.367   8.074   3.968
  193POPC  H16S25812   4.225   8.126   4.066
  193POPC  C21725813   4.352   8.285   3.998
  193POPC  H17R25814   4.278   8.358   4.039
  193POPC  H17S25815   4.392   8.326   3.903
  193POPC  C21825816   4.465   8.260   4.097
  193POPC  H18R25817   4.497   8.351   4.150
  193POPC  H18S25818   4.553   8.215   4.044
  193POPC  H18T25819   4.433   8.185   4.172
  193POPC   C3325820   4.136   8.354   2.828
  193POPC   H3X25821   4.215   8.316   2.898
  193POPC   H3Y25822   4.063   8.271   2.813
  193POPC   C3425823   4.066   8.469   2.898
  193POPC   H4X25824   3.978   8.503   2.838
  193POPC   H4Y25825   4.135   8.555   2.909
  193POPC   C3525826   4.018   8.423   3.036
  193POPC   H5X25827   4.098   8.365   3.087
  193POPC   H5Y25828   3.932   8.355   3.022
  193POPC   C3625829   3.978   8.540   3.126
  193POPC   H6X25830   3.925   8.615   3.063
  193POPC   H6Y25831   4.069   8.589   3.167
  193POPC   C3725832   3.882   8.498   3.239
  193POPC   H7X25833   3.793   8.450   3.194
  193POPC   H7Y25834   3.848   8.591   3.291
  193POPC   C3825835   3.942   8.403   3.344
  193POPC   H8X25836   3.969   8.305   3.297
  193POPC   H8Y25837   3.862   8.382   3.419
  193POPC   C3925838   4.063   8.461   3.417
  193POPC   H9X25839   4.055   8.572   3.422
  193POPC   H9Y25840   4.154   8.437   3.357
  193POPC  C31025841   4.077   8.407   3.560
  193POPC  H10X25842   4.184   8.406   3.590
  193POPC  H10Y25843   4.041   8.302   3.564
  193POPC  C31125844   3.999   8.493   3.661
  193POPC  H11X25845   3.897   8.514   3.620
  193POPC  H11Y25846   4.052   8.590   3.673
  193POPC  C31225847   3.985   8.425   3.797
  193POPC  H12X25848   4.087   8.404   3.837
  193POPC  H12Y25849   3.933   8.328   3.781
  193POPC  C31325850   3.909   8.508   3.902
  193POPC  H13X25851   3.810   8.538   3.863
  193POPC  H13Y25852   3.967   8.600   3.922
  193POPC  C31425853   3.891   8.433   4.036
  193POPC  H14X25854   3.852   8.504   4.111
  193POPC  H14Y25855   3.991   8.398   4.071
  193POPC  C31525856   3.797   8.313   4.024
  193POPC  H15X25857   3.829   8.250   3.938
  193POPC  H15Y25858   3.696   8.351   4.000
  193POPC  C31625859   3.792   8.222   4.148
  193POPC  H16X25860   3.769   8.118   4.118
  193POPC  H16Y25861   3.713   8.255   4.219
  193POPC  H16Z25862   3.890   8.223   4.200
  194POPC     N25863   4.901   8.596   2.173
  194POPC   C1225864   4.900   8.447   2.208
  194POPC  H12A25865   5.001   8.409   2.204
  194POPC  H12B25866   4.843   8.394   2.132
  194POPC   C1325867   4.760   8.647   2.178
  194POPC  H13A25868   4.753   8.753   2.160
  194POPC  H13B25869   4.694   8.593   2.111
  194POPC  H13C25870   4.719   8.624   2.276
  194POPC   C1425871   4.982   8.680   2.267
  194POPC  H14A25872   5.087   8.655   2.266
  194POPC  H14B25873   4.970   8.786   2.244
  194POPC  H14C25874   4.946   8.669   2.370
  194POPC   C1525875   4.950   8.611   2.032
  194POPC  H15A25876   4.893   8.550   1.963
  194POPC  H15B25877   5.054   8.581   2.024
  194POPC  H15C25878   4.941   8.712   1.997
  194POPC   C1125879   4.835   8.399   2.340
  194POPC  H11A25880   4.880   8.456   2.425
  194POPC  H11B25881   4.859   8.291   2.355
  194POPC     P25882   4.612   8.394   2.468
  194POPC   O1325883   4.649   8.266   2.530
  194POPC   O1425884   4.470   8.425   2.439
  194POPC   O1225885   4.693   8.415   2.332
  194POPC   O1125886   4.674   8.511   2.554
  194POPC    C125887   4.683   8.642   2.500
  194POPC    HA25888   4.608   8.663   2.421
  194POPC    HB25889   4.783   8.657   2.455
  194POPC    C225890   4.663   8.746   2.611
  194POPC    HS25891   4.691   8.844   2.567
  194POPC   O2125892   4.745   8.720   2.727
  194POPC   C2125893   4.874   8.716   2.702
  194POPC   O2225894   4.932   8.765   2.607
  194POPC   C2225895   4.943   8.636   2.813
  194POPC   H2R25896   4.911   8.678   2.910
  194POPC   H2S25897   5.053   8.651   2.802
  194POPC    C325898   4.511   8.750   2.651
  194POPC    HX25899   4.453   8.752   2.556
  194POPC    HY25900   4.485   8.843   2.704
  194POPC   O3125901   4.466   8.636   2.725
  194POPC   C3125902   4.492   8.644   2.855
  194POPC   O3225903   4.534   8.743   2.912
  194POPC   C3225904   4.453   8.515   2.921
  194POPC   H2X25905   4.468   8.431   2.850
  194POPC   H2Y25906   4.346   8.521   2.948
  194POPC   C2325907   4.907   8.486   2.804
  194POPC   H3R25908   4.944   8.443   2.708
  194POPC   H3S25909   4.796   8.476   2.802
  194POPC   C2425910   4.959   8.403   2.922
  194POPC   H4R25911   4.915   8.445   3.015
  194POPC   H4S25912   5.070   8.414   2.929
  194POPC   C2525913   4.923   8.254   2.911
  194POPC   H5R25914   4.998   8.203   2.847
  194POPC   H5S25915   4.824   8.245   2.860
  194POPC   C2625916   4.913   8.184   3.048
  194POPC   H6R25917   4.889   8.077   3.033
  194POPC   H6S25918   4.828   8.230   3.103
  194POPC   C2725919   5.041   8.197   3.133
  194POPC   H7R25920   5.071   8.304   3.139
  194POPC   H7S25921   5.123   8.143   3.082
  194POPC   C2825922   5.027   8.142   3.277
  194POPC   H8R25923   5.128   8.147   3.324
  194POPC   H8S25924   5.000   8.034   3.273
  194POPC   C2925925   4.927   8.218   3.361
  194POPC   H9125926   4.828   8.171   3.373
  194POPC  C21025927   4.950   8.336   3.422
  194POPC  H10125928   4.869   8.383   3.481
  194POPC  C21125929   5.079   8.413   3.417
  194POPC  H11R25930   5.059   8.522   3.405
  194POPC  H11S25931   5.141   8.383   3.329
  194POPC  C21225932   5.164   8.391   3.543
  194POPC  H12R25933   5.266   8.431   3.522
  194POPC  H12S25934   5.176   8.282   3.564
  194POPC  C21325935   5.109   8.465   3.666
  194POPC  H13R25936   5.012   8.421   3.698
  194POPC  H13S25937   5.090   8.570   3.636
  194POPC  C21425938   5.207   8.466   3.783
  194POPC  H14R25939   5.311   8.464   3.744
  194POPC  H14S25940   5.194   8.375   3.845
  194POPC  C21525941   5.191   8.593   3.869
  194POPC  H15R25942   5.087   8.600   3.909
  194POPC  H15S25943   5.209   8.681   3.804
  194POPC  C21625944   5.292   8.595   3.984
  194POPC  H16R25945   5.314   8.700   4.014
  194POPC  H16S25946   5.384   8.548   3.946
  194POPC  C21725947   5.246   8.516   4.106
  194POPC  H17R25948   5.333   8.463   4.151
  194POPC  H17S25949   5.172   8.440   4.073
  194POPC  C21825950   5.183   8.605   4.213
  194POPC  H18R25951   5.258   8.677   4.253
  194POPC  H18S25952   5.144   8.544   4.298
  194POPC  H18T25953   5.099   8.663   4.169
  194POPC   C3325954   4.536   8.492   3.048
  194POPC   H3X25955   4.509   8.570   3.122
  194POPC   H3Y25956   4.645   8.503   3.027
  194POPC   C3425957   4.510   8.353   3.105
  194POPC   H4X25958   4.556   8.279   3.035
  194POPC   H4Y25959   4.400   8.333   3.108
  194POPC   C3525960   4.570   8.335   3.244
  194POPC   H5X25961   4.659   8.400   3.258
  194POPC   H5Y25962   4.610   8.233   3.250
  194POPC   C3625963   4.466   8.357   3.356
  194POPC   H6X25964   4.510   8.324   3.453
  194POPC   H6Y25965   4.375   8.296   3.336
  194POPC   C3725966   4.419   8.502   3.372
  194POPC   H7X25967   4.348   8.507   3.458
  194POPC   H7Y25968   4.363   8.533   3.281
  194POPC   C3825969   4.534   8.599   3.397
  194POPC   H8X25970   4.608   8.598   3.315
  194POPC   H8Y25971   4.588   8.564   3.488
  194POPC   C3925972   4.480   8.741   3.413
  194POPC   H9X25973   4.396   8.739   3.487
  194POPC   H9Y25974   4.437   8.774   3.316
  194POPC  C31025975   4.586   8.842   3.458
  194POPC  H10X25976   4.535   8.940   3.471
  194POPC  H10Y25977   4.661   8.854   3.377
  194POPC  C31125978   4.658   8.804   3.587
  194POPC  H11X25979   4.711   8.894   3.626
  194POPC  H11Y25980   4.736   8.727   3.566
  194POPC  C31225981   4.564   8.749   3.695
  194POPC  H12X25982   4.523   8.649   3.666
  194POPC  H12Y25983   4.477   8.816   3.706
  194POPC  C31325984   4.637   8.730   3.827
  194POPC  H13X25985   4.685   8.824   3.861
  194POPC  H13Y25986   4.722   8.661   3.807
  194POPC  C31425987   4.544   8.677   3.936
  194POPC  H14X25988   4.453   8.634   3.890
  194POPC  H14Y25989   4.511   8.760   4.002
  194POPC  C31525990   4.612   8.570   4.020
  194POPC  H15X25991   4.538   8.535   4.095
  194POPC  H15Y25992   4.694   8.620   4.076
  194POPC  C31625993   4.673   8.453   3.942
  194POPC  H16X25994   4.603   8.416   3.864
  194POPC  H16Y25995   4.698   8.369   4.009
  194POPC  H16Z25996   4.768   8.483   3.893
  195POPC     N25997   0.947   5.962   2.330
  195POPC   C1225998   0.907   5.816   2.343
  195POPC  H12A25999   0.799   5.808   2.340
  195POPC  H12B26000   0.940   5.775   2.438
  195POPC   C1326001   0.933   6.002   2.185
  195POPC  H13A26002   0.840   5.964   2.143
  195POPC  H13B26003   0.939   6.108   2.166
  195POPC  H13C26004   1.010   5.950   2.127
  195POPC   C1426005   0.861   6.047   2.418
  195POPC  H14A26006   0.868   6.017   2.522
  195POPC  H14B26007   0.894   6.150   2.414
  195POPC  H14C26008   0.756   6.039   2.389
  195POPC   C1526009   1.090   5.976   2.373
  195POPC  H15A26010   1.102   5.961   2.480
  195POPC  H15B26011   1.130   6.072   2.346
  195POPC  H15C26012   1.150   5.897   2.326
  195POPC   C1126013   0.963   5.720   2.235
  195POPC  H11A26014   0.939   5.756   2.134
  195POPC  H11B26015   0.911   5.622   2.248
  195POPC     P26016   1.163   5.592   2.335
  195POPC   O1326017   1.310   5.607   2.338
  195POPC   O1426018   1.103   5.462   2.294
  195POPC   O1226019   1.104   5.706   2.243
  195POPC   O1126020   1.097   5.639   2.471
  195POPC    C126021   1.173   5.630   2.592
  195POPC    HA26022   1.248   5.712   2.599
  195POPC    HB26023   1.230   5.534   2.597
  195POPC    C226024   1.077   5.633   2.713
  195POPC    HS26025   1.005   5.550   2.694
  195POPC   O2126026   1.013   5.762   2.726
  195POPC   C2126027   0.883   5.756   2.745
  195POPC   O2226028   0.810   5.663   2.714
  195POPC   C2226029   0.837   5.886   2.811
  195POPC   H2R26030   0.795   5.953   2.734
  195POPC   H2S26031   0.925   5.935   2.857
  195POPC    C326032   1.151   5.602   2.845
  195POPC    HX26033   1.201   5.503   2.834
  195POPC    HY26034   1.078   5.594   2.929
  195POPC   O3126035   1.253   5.700   2.867
  195POPC   C3126036   1.230   5.794   2.955
  195POPC   O3226037   1.127   5.815   3.016
  195POPC   C3226038   1.363   5.864   2.975
  195POPC   H2X26039   1.394   5.909   2.878
  195POPC   H2Y26040   1.436   5.786   3.002
  195POPC   C2326041   0.733   5.858   2.921
  195POPC   H3R26042   0.641   5.810   2.880
  195POPC   H3S26043   0.703   5.955   2.967
  195POPC   C2426044   0.792   5.769   3.031
  195POPC   H4R26045   0.894   5.807   3.056
  195POPC   H4S26046   0.805   5.664   2.994
  195POPC   C2526047   0.712   5.768   3.161
  195POPC   H5R26048   0.612   5.721   3.144
  195POPC   H5S26049   0.696   5.873   3.193
  195POPC   C2626050   0.787   5.692   3.271
  195POPC   H6R26051   0.892   5.729   3.274
  195POPC   H6S26052   0.789   5.584   3.246
  195POPC   C2726053   0.724   5.713   3.410
  195POPC   H7R26054   0.631   5.653   3.416
  195POPC   H7S26055   0.698   5.821   3.420
  195POPC   C2826056   0.818   5.677   3.526
  195POPC   H8R26057   0.770   5.707   3.622
  195POPC   H8S26058   0.908   5.740   3.515
  195POPC   C2926059   0.854   5.531   3.524
  195POPC   H9126060   0.873   5.489   3.424
  195POPC  C21026061   0.872   5.452   3.630
  195POPC  H10126062   0.895   5.346   3.613
  195POPC  C21126063   0.861   5.490   3.776
  195POPC  H11R26064   0.768   5.451   3.822
  195POPC  H11S26065   0.864   5.600   3.792
  195POPC  C21226066   0.982   5.427   3.846
  195POPC  H12R26067   1.075   5.474   3.804
  195POPC  H12S26068   0.987   5.317   3.827
  195POPC  C21326069   0.986   5.448   3.996
  195POPC  H13R26070   0.960   5.553   4.017
  195POPC  H13S26071   1.090   5.430   4.031
  195POPC  C21426072   0.891   5.358   4.075
  195POPC  H14R26073   0.891   5.256   4.030
  195POPC  H14S26074   0.788   5.399   4.068
  195POPC  C21526075   0.934   5.346   4.221
  195POPC  H15R26076   1.023   5.279   4.224
  195POPC  H15S26077   0.851   5.298   4.278
  195POPC  C21626078   0.973   5.476   4.291
  195POPC  H16R26079   1.044   5.536   4.231
  195POPC  H16S26080   1.026   5.448   4.384
  195POPC  C21726081   0.852   5.560   4.331
  195POPC  H17R26082   0.788   5.500   4.400
  195POPC  H17S26083   0.791   5.583   4.240
  195POPC  C21826084   0.892   5.691   4.398
  195POPC  H18R26085   0.808   5.737   4.454
  195POPC  H18S26086   0.924   5.763   4.321
  195POPC  H18T26087   0.975   5.676   4.470
  195POPC   C3326088   1.368   5.967   3.088
  195POPC   H3X26089   1.285   6.041   3.085
  195POPC   H3Y26090   1.463   6.022   3.071
  195POPC   C3426091   1.388   5.906   3.226
  195POPC   H4X26092   1.439   5.982   3.289
  195POPC   H4Y26093   1.456   5.818   3.222
  195POPC   C3526094   1.258   5.871   3.296
  195POPC   H5X26095   1.217   5.776   3.254
  195POPC   H5Y26096   1.182   5.950   3.281
  195POPC   C3626097   1.289   5.856   3.444
  195POPC   H6X26098   1.278   5.955   3.494
  195POPC   H6Y26099   1.394   5.822   3.458
  195POPC   C3726100   1.200   5.752   3.510
  195POPC   H7X26101   1.213   5.653   3.461
  195POPC   H7Y26102   1.095   5.783   3.495
  195POPC   C3826103   1.231   5.743   3.659
  195POPC   H8X26104   1.341   5.734   3.675
  195POPC   H8Y26105   1.183   5.652   3.700
  195POPC   C3926106   1.176   5.865   3.731
  195POPC   H9X26107   1.073   5.885   3.691
  195POPC   H9Y26108   1.237   5.956   3.711
  195POPC  C31026109   1.164   5.840   3.880
  195POPC  H10X26110   1.251   5.888   3.931
  195POPC  H10Y26111   1.169   5.730   3.899
  195POPC  C31126112   1.031   5.889   3.938
  195POPC  H11X26113   0.947   5.851   3.875
  195POPC  H11Y26114   1.029   6.000   3.934
  195POPC  C31226115   1.011   5.839   4.081
  195POPC  H12X26116   0.986   5.732   4.079
  195POPC  H12Y26117   0.924   5.891   4.128
  195POPC  C31326118   1.135   5.855   4.169
  195POPC  H13X26119   1.224   5.806   4.123
  195POPC  H13Y26120   1.122   5.800   4.264
  195POPC  C31426121   1.164   6.003   4.190
  195POPC  H14X26122   1.095   6.065   4.128
  195POPC  H14Y26123   1.267   6.024   4.153
  195POPC  C31526124   1.153   6.053   4.334
  195POPC  H15X26125   1.120   6.158   4.327
  195POPC  H15Y26126   1.257   6.059   4.371
  195POPC  C31626127   1.063   5.977   4.432
  195POPC  H16X26128   1.101   5.877   4.460
  195POPC  H16Y26129   0.962   5.960   4.390
  195POPC  H16Z26130   1.056   6.034   4.527
  196POPC     N26131   1.502   2.710   2.449
  196POPC   C1226132   1.423   2.821   2.380
  196POPC  H12A26133   1.486   2.908   2.368
  196POPC  H12B26134   1.339   2.848   2.443
  196POPC   C1326135   1.400   2.615   2.505
  196POPC  H13A26136   1.339   2.665   2.579
  196POPC  H13B26137   1.332   2.589   2.423
  196POPC  H13C26138   1.442   2.525   2.545
  196POPC   C1426139   1.580   2.633   2.347
  196POPC  H14A26140   1.510   2.594   2.273
  196POPC  H14B26141   1.645   2.698   2.290
  196POPC  H14C26142   1.634   2.551   2.390
  196POPC   C1526143   1.587   2.761   2.559
  196POPC  H15A26144   1.641   2.680   2.607
  196POPC  H15B26145   1.528   2.810   2.636
  196POPC  H15C26146   1.660   2.832   2.521
  196POPC   C1126147   1.367   2.785   2.241
  196POPC  H11A26148   1.451   2.767   2.171
  196POPC  H11B26149   1.310   2.871   2.198
  196POPC     P26150   1.133   2.667   2.250
  196POPC   O1326151   1.089   2.528   2.226
  196POPC   O1426152   1.080   2.775   2.164
  196POPC   O1226153   1.291   2.665   2.243
  196POPC   O1126154   1.106   2.704   2.403
  196POPC    C126155   0.969   2.737   2.431
  196POPC    HA26156   0.905   2.648   2.410
  196POPC    HB26157   0.935   2.823   2.370
  196POPC    C226158   0.939   2.775   2.579
  196POPC    HS26159   0.972   2.880   2.598
  196POPC   O2126160   1.000   2.684   2.670
  196POPC   C2126161   1.125   2.702   2.701
  196POPC   O2226162   1.201   2.791   2.666
  196POPC   C2226163   1.164   2.588   2.795
  196POPC   H2R26164   1.231   2.521   2.737
  196POPC   H2S26165   1.073   2.530   2.821
  196POPC    C326166   0.785   2.765   2.603
  196POPC    HX26167   0.755   2.661   2.580
  196POPC    HY26168   0.733   2.832   2.531
  196POPC   O3126169   0.749   2.800   2.737
  196POPC   C3126170   0.769   2.706   2.829
  196POPC   O3226171   0.750   2.586   2.819
  196POPC   C3226172   0.830   2.779   2.947
  196POPC   H2X26173   0.751   2.846   2.988
  196POPC   H2Y26174   0.917   2.838   2.911
  196POPC   C2326175   1.235   2.630   2.926
  196POPC   H3R26176   1.168   2.695   2.987
  196POPC   H3S26177   1.328   2.688   2.905
  196POPC   C2426178   1.269   2.503   3.005
  196POPC   H4R26179   1.348   2.446   2.951
  196POPC   H4S26180   1.177   2.440   3.007
  196POPC   C2526181   1.312   2.525   3.151
  196POPC   H5R26182   1.242   2.595   3.200
  196POPC   H5S26183   1.414   2.570   3.154
  196POPC   C2626184   1.311   2.391   3.228
  196POPC   H6R26185   1.381   2.319   3.181
  196POPC   H6S26186   1.208   2.349   3.220
  196POPC   C2726187   1.343   2.404   3.378
  196POPC   H7R26188   1.328   2.306   3.427
  196POPC   H7S26189   1.271   2.476   3.421
  196POPC   C2826190   1.486   2.455   3.408
  196POPC   H8R26191   1.503   2.549   3.351
  196POPC   H8S26192   1.558   2.379   3.369
  196POPC   C2926193   1.509   2.479   3.555
  196POPC   H9126194   1.558   2.397   3.609
  196POPC  C21026195   1.471   2.588   3.624
  196POPC  H10126196   1.491   2.592   3.732
  196POPC  C21126197   1.398   2.709   3.569
  196POPC  H11R26198   1.313   2.674   3.505
  196POPC  H11S26199   1.463   2.768   3.502
  196POPC  C21226200   1.338   2.804   3.675
  196POPC  H12R26201   1.271   2.749   3.745
  196POPC  H12S26202   1.274   2.878   3.621
  196POPC  C21326203   1.436   2.882   3.762
  196POPC  H13R26204   1.492   2.954   3.698
  196POPC  H13S26205   1.509   2.814   3.811
  196POPC  C21426206   1.359   2.958   3.870
  196POPC  H14R26207   1.329   2.887   3.950
  196POPC  H14S26208   1.265   2.998   3.825
  196POPC  C21526209   1.434   3.077   3.931
  196POPC  H15R26210   1.449   3.154   3.852
  196POPC  H15S26211   1.534   3.047   3.969
  196POPC  C21626212   1.350   3.135   4.045
  196POPC  H16R26213   1.369   3.077   4.138
  196POPC  H16S26214   1.242   3.122   4.020
  196POPC  C21726215   1.374   3.284   4.069
  196POPC  H17R26216   1.353   3.339   3.975
  196POPC  H17S26217   1.481   3.300   4.095
  196POPC  C21826218   1.285   3.339   4.181
  196POPC  H18R26219   1.306   3.446   4.198
  196POPC  H18S26220   1.301   3.284   4.276
  196POPC  H18T26221   1.178   3.327   4.153
  196POPC   C3326222   0.872   2.688   3.063
  196POPC   H3X26223   0.956   2.621   3.034
  196POPC   H3Y26224   0.781   2.629   3.084
  196POPC   C3426225   0.902   2.766   3.190
  196POPC   H4X26226   0.805   2.812   3.220
  196POPC   H4Y26227   0.975   2.847   3.169
  196POPC   C3526228   0.956   2.684   3.309
  196POPC   H5X26229   1.067   2.682   3.302
  196POPC   H5Y26230   0.922   2.579   3.302
  196POPC   C3626231   0.909   2.741   3.444
  196POPC   H6X26232   0.800   2.762   3.437
  196POPC   H6Y26233   0.963   2.837   3.463
  196POPC   C3726234   0.925   2.648   3.565
  196POPC   H7X26235   0.851   2.565   3.552
  196POPC   H7Y26236   0.897   2.702   3.659
  196POPC   C3826237   1.066   2.590   3.581
  196POPC   H8X26238   1.124   2.655   3.649
  196POPC   H8Y26239   1.116   2.592   3.483
  196POPC   C3926240   1.067   2.446   3.633
  196POPC   H9X26241   1.137   2.385   3.571
  196POPC   H9Y26242   0.966   2.406   3.617
  196POPC  C31026243   1.106   2.431   3.781
  196POPC  H10X26244   1.076   2.329   3.813
  196POPC  H10Y26245   1.052   2.504   3.844
  196POPC  C31126246   1.258   2.442   3.802
  196POPC  H11X26247   1.284   2.550   3.814
  196POPC  H11Y26248   1.307   2.403   3.711
  196POPC  C31226249   1.317   2.361   3.919
  196POPC  H12X26250   1.421   2.395   3.939
  196POPC  H12Y26251   1.324   2.256   3.885
  196POPC  C31326252   1.234   2.367   4.047
  196POPC  H13X26253   1.275   2.293   4.119
  196POPC  H13Y26254   1.131   2.333   4.025
  196POPC  C31426255   1.231   2.507   4.109
  196POPC  H14X26256   1.260   2.581   4.032
  196POPC  H14Y26257   1.306   2.514   4.191
  196POPC  C31526258   1.093   2.545   4.161
  196POPC  H15X26259   1.083   2.505   4.264
  196POPC  H15Y26260   1.014   2.496   4.100
  196POPC  C31626261   1.067   2.696   4.159
  196POPC  H16X26262   1.003   2.725   4.245
  196POPC  H16Y26263   1.014   2.726   4.066
  196POPC  H16Z26264   1.162   2.753   4.166
  197POPC     N26265   0.793   4.913   2.163
  197POPC   C1226266   0.921   4.874   2.236
  197POPC  H12A26267   0.997   4.948   2.215
  197POPC  H12B26268   0.953   4.779   2.196
  197POPC   C1326269   0.743   5.047   2.205
  197POPC  H13A26270   0.820   5.123   2.191
  197POPC  H13B26271   0.655   5.076   2.149
  197POPC  H13C26272   0.719   5.044   2.311
  197POPC   C1426273   0.818   4.914   2.016
  197POPC  H14A26274   0.910   4.967   1.994
  197POPC  H14B26275   0.826   4.812   1.976
  197POPC  H14C26276   0.735   4.960   1.965
  197POPC   C1526277   0.690   4.810   2.193
  197POPC  H15A26278   0.670   4.808   2.300
  197POPC  H15B26279   0.726   4.710   2.170
  197POPC  H15C26280   0.597   4.828   2.142
  197POPC   C1126281   0.915   4.853   2.390
  197POPC  H11A26282   0.871   4.944   2.436
  197POPC  H11B26283   1.020   4.844   2.428
  197POPC     P26284   0.742   4.728   2.544
  197POPC   O1326285   0.807   4.777   2.667
  197POPC   O1426286   0.678   4.594   2.548
  197POPC   O1226287   0.847   4.733   2.425
  197POPC   O1126288   0.638   4.838   2.494
  197POPC    C126289   0.579   4.928   2.588
  197POPC    HA26290   0.585   4.890   2.693
  197POPC    HB26291   0.471   4.937   2.564
  197POPC    C226292   0.639   5.073   2.586
  197POPC    HS26293   0.620   5.112   2.483
  197POPC   O2126294   0.780   5.074   2.615
  197POPC   C2126295   0.840   5.190   2.588
  197POPC   O2226296   0.787   5.283   2.528
  197POPC   C2226297   0.981   5.193   2.649
  197POPC   H2R26298   1.049   5.238   2.573
  197POPC   H2S26299   1.015   5.090   2.669
  197POPC    C326300   0.561   5.162   2.688
  197POPC    HX26301   0.455   5.170   2.655
  197POPC    HY26302   0.603   5.265   2.686
  197POPC   O3126303   0.564   5.101   2.818
  197POPC   C3126304   0.605   5.175   2.919
  197POPC   O3226305   0.624   5.296   2.917
  197POPC   C3226306   0.621   5.085   3.041
  197POPC   H2X26307   0.699   5.127   3.107
  197POPC   H2Y26308   0.653   4.984   3.007
  197POPC   C2326309   0.987   5.279   2.779
  197POPC   H3R26310   0.927   5.372   2.768
  197POPC   H3S26311   1.093   5.308   2.795
  197POPC   C2426312   0.940   5.204   2.904
  197POPC   H4R26313   0.910   5.100   2.878
  197POPC   H4S26314   0.850   5.256   2.943
  197POPC   C2526315   1.040   5.201   3.020
  197POPC   H5R26316   1.063   5.305   3.052
  197POPC   H5S26317   1.135   5.154   2.985
  197POPC   C2626318   0.984   5.122   3.139
  197POPC   H6R26319   0.960   5.020   3.100
  197POPC   H6S26320   0.889   5.168   3.174
  197POPC   C2726321   1.079   5.111   3.258
  197POPC   H7R26322   1.095   5.213   3.301
  197POPC   H7S26323   1.177   5.075   3.222
  197POPC   C2826324   1.033   5.016   3.371
  197POPC   H8R26325   0.950   5.067   3.427
  197POPC   H8S26326   1.117   5.006   3.443
  197POPC   C2926327   0.984   4.882   3.322
  197POPC   H9126328   0.895   4.887   3.257
  197POPC  C21026329   1.030   4.759   3.353
  197POPC  H10126330   0.980   4.671   3.309
  197POPC  C21126331   1.145   4.728   3.445
  197POPC  H11R26332   1.217   4.810   3.442
  197POPC  H11S26333   1.197   4.636   3.409
  197POPC  C21226334   1.111   4.708   3.593
  197POPC  H12R26335   1.202   4.669   3.644
  197POPC  H12S26336   1.032   4.630   3.604
  197POPC  C21326337   1.068   4.835   3.668
  197POPC  H13R26338   0.976   4.876   3.622
  197POPC  H13S26339   1.147   4.913   3.660
  197POPC  C21426340   1.046   4.797   3.815
  197POPC  H14R26341   1.147   4.773   3.854
  197POPC  H14S26342   0.983   4.705   3.816
  197POPC  C21526343   0.980   4.897   3.910
  197POPC  H15R26344   0.893   4.943   3.860
  197POPC  H15S26345   1.048   4.979   3.936
  197POPC  C21626346   0.931   4.830   4.039
  197POPC  H16R26347   0.861   4.747   4.013
  197POPC  H16S26348   0.871   4.905   4.095
  197POPC  C21726349   1.040   4.773   4.132
  197POPC  H17R26350   1.051   4.664   4.116
  197POPC  H17S26351   0.999   4.784   4.235
  197POPC  C21826352   1.178   4.839   4.132
  197POPC  H18R26353   1.169   4.950   4.136
  197POPC  H18S26354   1.235   4.812   4.041
  197POPC  H18T26355   1.237   4.806   4.220
  197POPC   C3326356   0.487   5.076   3.116
  197POPC   H3X26357   0.406   5.060   3.041
  197POPC   H3Y26358   0.471   5.174   3.168
  197POPC   C3426359   0.477   4.964   3.219
  197POPC   H4X26360   0.490   4.866   3.168
  197POPC   H4Y26361   0.374   4.966   3.263
  197POPC   C3526362   0.578   4.979   3.332
  197POPC   H5X26363   0.566   5.079   3.377
  197POPC   H5Y26364   0.680   4.973   3.288
  197POPC   C3626365   0.562   4.870   3.438
  197POPC   H6X26366   0.541   4.774   3.386
  197POPC   H6Y26367   0.476   4.891   3.505
  197POPC   C3726368   0.687   4.852   3.524
  197POPC   H7X26369   0.776   4.878   3.463
  197POPC   H7Y26370   0.698   4.745   3.552
  197POPC   C3826371   0.689   4.936   3.652
  197POPC   H8X26372   0.792   4.933   3.692
  197POPC   H8Y26373   0.623   4.883   3.724
  197POPC   C3926374   0.648   5.083   3.635
  197POPC   H9X26375   0.538   5.091   3.622
  197POPC   H9Y26376   0.696   5.117   3.540
  197POPC  C31026377   0.696   5.183   3.743
  197POPC  H10X26378   0.684   5.284   3.699
  197POPC  H10Y26379   0.804   5.165   3.762
  197POPC  C31126380   0.619   5.185   3.876
  197POPC  H11X26381   0.517   5.228   3.859
  197POPC  H11Y26382   0.672   5.251   3.948
  197POPC  C31226383   0.604   5.044   3.932
  197POPC  H12X26384   0.703   4.994   3.933
  197POPC  H12Y26385   0.537   4.995   3.859
  197POPC  C31326386   0.538   5.026   4.069
  197POPC  H13X26387   0.435   5.070   4.063
  197POPC  H13Y26388   0.594   5.079   4.148
  197POPC  C31426389   0.527   4.875   4.104
  197POPC  H14X26390   0.447   4.864   4.179
  197POPC  H14Y26391   0.622   4.842   4.153
  197POPC  C31526392   0.500   4.783   3.984
  197POPC  H15X26393   0.596   4.768   3.929
  197POPC  H15Y26394   0.430   4.834   3.914
  197POPC  C31626395   0.440   4.646   4.014
  197POPC  H16X26396   0.425   4.589   3.919
  197POPC  H16Y26397   0.340   4.658   4.062
  197POPC  H16Z26398   0.505   4.586   4.081
  198POPC     N26399   7.835   2.511   2.168
  198POPC   C1226400   7.870   2.411   2.278
  198POPC  H12A26401   7.852   2.310   2.242
  198POPC  H12B26402   7.802   2.427   2.361
  198POPC   C1326403   7.932   2.493   2.054
  198POPC  H13A26404   7.924   2.395   2.008
  198POPC  H13B26405   7.921   2.568   1.978
  198POPC  H13C26406   8.032   2.504   2.093
  198POPC   C1426407   7.695   2.491   2.122
  198POPC  H14A26408   7.675   2.389   2.091
  198POPC  H14B26409   7.624   2.521   2.197
  198POPC  H14C26410   7.671   2.554   2.037
  198POPC   C1526411   7.851   2.653   2.216
  198POPC  H15A26412   7.800   2.669   2.310
  198POPC  H15B26413   7.820   2.727   2.144
  198POPC  H15C26414   7.956   2.672   2.240
  198POPC   C1126415   8.013   2.413   2.335
  198POPC  H11A26416   8.083   2.367   2.262
  198POPC  H11B26417   8.017   2.353   2.430
  198POPC     P26418   8.171   2.592   2.447
  198POPC   O1326419   8.196   2.732   2.411
  198POPC   O1426420   8.278   2.491   2.434
  198POPC   O1226421   8.053   2.546   2.356
  198POPC   O1126422   8.097   2.579   2.587
  198POPC    C126423   7.960   2.624   2.591
  198POPC    HA26424   7.893   2.548   2.546
  198POPC    HB26425   7.945   2.722   2.539
  198POPC    C226426   7.913   2.643   2.736
  198POPC    HS26427   7.973   2.728   2.776
  198POPC   O2126428   7.935   2.518   2.804
  198POPC   C2126429   8.035   2.524   2.891
  198POPC   O2226430   8.071   2.624   2.951
  198POPC   C2226431   8.096   2.386   2.909
  198POPC   H2R26432   8.161   2.365   2.821
  198POPC   H2S26433   8.015   2.310   2.914
  198POPC    C326434   7.762   2.681   2.743
  198POPC    HX26435   7.704   2.595   2.703
  198POPC    HY26436   7.743   2.768   2.677
  198POPC   O3126437   7.719   2.707   2.878
  198POPC   C3126438   7.770   2.820   2.926
  198POPC   O3226439   7.832   2.902   2.862
  198POPC   C3226440   7.735   2.837   3.074
  198POPC   H2X26441   7.627   2.819   3.088
  198POPC   H2Y26442   7.760   2.942   3.097
  198POPC   C2326443   8.179   2.384   3.039
  198POPC   H3R26444   8.111   2.420   3.119
  198POPC   H3S26445   8.263   2.457   3.031
  198POPC   C2426446   8.235   2.247   3.077
  198POPC   H4R26447   8.298   2.207   2.995
  198POPC   H4S26448   8.149   2.177   3.091
  198POPC   C2526449   8.315   2.251   3.208
  198POPC   H5R26450   8.417   2.292   3.189
  198POPC   H5S26451   8.328   2.147   3.246
  198POPC   C2626452   8.246   2.338   3.313
  198POPC   H6R26453   8.137   2.321   3.304
  198POPC   H6S26454   8.265   2.446   3.293
  198POPC   C2726455   8.282   2.306   3.458
  198POPC   H7R26456   8.230   2.213   3.483
  198POPC   H7S26457   8.236   2.381   3.524
  198POPC   C2826458   8.432   2.292   3.486
  198POPC   H8R26459   8.477   2.213   3.422
  198POPC   H8S26460   8.446   2.258   3.591
  198POPC   C2926461   8.498   2.424   3.459
  198POPC   H9126462   8.517   2.446   3.353
  198POPC  C21026463   8.536   2.513   3.552
  198POPC  H10126464   8.584   2.607   3.519
  198POPC  C21126465   8.522   2.497   3.701
  198POPC  H11R26466   8.616   2.532   3.750
  198POPC  H11S26467   8.508   2.392   3.734
  198POPC  C21226468   8.408   2.582   3.760
  198POPC  H12R26469   8.398   2.678   3.709
  198POPC  H12S26470   8.438   2.605   3.865
  198POPC  C21326471   8.266   2.526   3.751
  198POPC  H13R26472   8.263   2.420   3.784
  198POPC  H13S26473   8.233   2.533   3.645
  198POPC  C21426474   8.167   2.611   3.833
  198POPC  H14R26475   8.068   2.560   3.834
  198POPC  H14S26476   8.154   2.709   3.781
  198POPC  C21526477   8.213   2.641   3.976
  198POPC  H15R26478   8.129   2.686   4.034
  198POPC  H15S26479   8.292   2.719   3.971
  198POPC  C21626480   8.268   2.519   4.052
  198POPC  H16R26481   8.345   2.465   3.993
  198POPC  H16S26482   8.185   2.447   4.070
  198POPC  C21726483   8.332   2.559   4.185
  198POPC  H17R26484   8.355   2.467   4.243
  198POPC  H17S26485   8.254   2.617   4.240
  198POPC  C21826486   8.458   2.646   4.178
  198POPC  H18R26487   8.432   2.748   4.144
  198POPC  H18S26488   8.533   2.603   4.108
  198POPC  H18T26489   8.504   2.655   4.279
  198POPC   C3326490   7.822   2.754   3.169
  198POPC   H3X26491   7.806   2.793   3.272
  198POPC   H3Y26492   7.930   2.765   3.144
  198POPC   C3426493   7.782   2.607   3.166
  198POPC   H4X26494   7.810   2.562   3.068
  198POPC   H4Y26495   7.672   2.597   3.178
  198POPC   C3526496   7.849   2.529   3.279
  198POPC   H5X26497   7.812   2.570   3.375
  198POPC   H5Y26498   7.960   2.545   3.276
  198POPC   C3626499   7.818   2.380   3.267
  198POPC   H6X26500   7.868   2.341   3.175
  198POPC   H6Y26501   7.709   2.366   3.254
  198POPC   C3726502   7.864   2.300   3.388
  198POPC   H7X26503   7.970   2.323   3.412
  198POPC   H7Y26504   7.855   2.192   3.366
  198POPC   C3826505   7.782   2.334   3.512
  198POPC   H8X26506   7.673   2.326   3.490
  198POPC   H8Y26507   7.802   2.440   3.541
  198POPC   C3926508   7.818   2.243   3.629
  198POPC   H9X26509   7.927   2.247   3.648
  198POPC   H9Y26510   7.792   2.138   3.601
  198POPC  C31026511   7.744   2.282   3.756
  198POPC  H10X26512   7.770   2.205   3.831
  198POPC  H10Y26513   7.634   2.279   3.740
  198POPC  C31126514   7.787   2.417   3.814
  198POPC  H11X26515   7.769   2.498   3.740
  198POPC  H11Y26516   7.896   2.414   3.836
  198POPC  C31226517   7.709   2.453   3.940
  198POPC  H12X26518   7.700   2.367   4.008
  198POPC  H12Y26519   7.605   2.474   3.908
  198POPC  C31326520   7.767   2.571   4.020
  198POPC  H13X26521   7.686   2.616   4.081
  198POPC  H13Y26522   7.804   2.650   3.951
  198POPC  C31426523   7.879   2.524   4.115
  198POPC  H14X26524   7.976   2.534   4.062
  198POPC  H14Y26525   7.865   2.417   4.138
  198POPC  C31526526   7.887   2.598   4.250
  198POPC  H15X26527   7.914   2.703   4.228
  198POPC  H15Y26528   7.971   2.553   4.307
  198POPC  C31626529   7.762   2.594   4.339
  198POPC  H16X26530   7.716   2.493   4.340
  198POPC  H16Y26531   7.684   2.665   4.304
  198POPC  H16Z26532   7.788   2.621   4.443
  199POPC     N26533   7.039   7.909   2.095
  199POPC   C1226534   7.115   7.991   2.200
  199POPC  H12A26535   7.068   8.087   2.209
  199POPC  H12B26536   7.217   8.007   2.168
  199POPC   C1326537   7.105   7.776   2.080
  199POPC  H13A26538   7.109   7.723   2.175
  199POPC  H13B26539   7.053   7.714   2.007
  199POPC  H13C26540   7.207   7.784   2.046
  199POPC   C1426541   6.898   7.886   2.140
  199POPC  H14A26542   6.897   7.859   2.246
  199POPC  H14B26543   6.838   7.976   2.135
  199POPC  H14C26544   6.848   7.808   2.085
  199POPC   C1526545   7.039   7.982   1.964
  199POPC  H15A26546   7.139   8.009   1.933
  199POPC  H15B26547   6.981   8.073   1.970
  199POPC  H15C26548   6.994   7.919   1.888
  199POPC   C1126549   7.121   7.936   2.345
  199POPC  H11A26550   7.191   8.001   2.402
  199POPC  H11B26551   7.165   7.833   2.345
  199POPC     P26552   6.979   7.926   2.561
  199POPC   O1326553   6.839   7.908   2.605
  199POPC   O1426554   7.062   8.033   2.620
  199POPC   O1226555   6.990   7.936   2.403
  199POPC   O1126556   7.052   7.788   2.572
  199POPC    C126557   6.998   7.674   2.506
  199POPC    HA26558   7.038   7.665   2.403
  199POPC    HB26559   6.887   7.678   2.497
  199POPC    C226560   7.041   7.551   2.587
  199POPC    HS26561   7.009   7.459   2.531
  199POPC   O2126562   6.978   7.554   2.716
  199POPC   C2126563   6.848   7.550   2.718
  199POPC   O2226564   6.776   7.509   2.629
  199POPC   C2226565   6.800   7.604   2.853
  199POPC   H2R26566   6.691   7.588   2.855
  199POPC   H2S26567   6.820   7.713   2.852
  199POPC    C326568   7.198   7.546   2.603
  199POPC    HX26569   7.240   7.571   2.503
  199POPC    HY26570   7.238   7.446   2.627
  199POPC   O3126571   7.247   7.644   2.696
  199POPC   C3126572   7.230   7.617   2.824
  199POPC   O3226573   7.201   7.510   2.874
  199POPC   C3226574   7.254   7.741   2.907
  199POPC   H2X26575   7.296   7.821   2.841
  199POPC   H2Y26576   7.329   7.717   2.985
  199POPC   C2326577   6.865   7.538   2.979
  199POPC   H3R26578   6.975   7.551   2.982
  199POPC   H3S26579   6.842   7.430   2.975
  199POPC   C2426580   6.796   7.594   3.103
  199POPC   H4R26581   6.691   7.561   3.083
  199POPC   H4S26582   6.803   7.705   3.101
  199POPC   C2526583   6.825   7.543   3.245
  199POPC   H5R26584   6.852   7.437   3.244
  199POPC   H5S26585   6.729   7.551   3.302
  199POPC   C2626586   6.926   7.627   3.323
  199POPC   H6R26587   6.907   7.736   3.308
  199POPC   H6S26588   7.026   7.605   3.281
  199POPC   C2726589   6.921   7.599   3.475
  199POPC   H7R26590   6.922   7.489   3.489
  199POPC   H7S26591   6.825   7.635   3.517
  199POPC   C2826592   7.037   7.662   3.553
  199POPC   H8R26593   7.029   7.642   3.662
  199POPC   H8S26594   7.033   7.772   3.538
  199POPC   C2926595   7.162   7.599   3.496
  199POPC   H9126596   7.152   7.490   3.482
  199POPC  C21026597   7.278   7.656   3.464
  199POPC  H10126598   7.347   7.594   3.405
  199POPC  C21126599   7.322   7.800   3.474
  199POPC  H11R26600   7.283   7.859   3.388
  199POPC  H11S26601   7.433   7.803   3.466
  199POPC  C21226602   7.288   7.874   3.606
  199POPC  H12R26603   7.180   7.893   3.612
  199POPC  H12S26604   7.339   7.973   3.604
  199POPC  C21326605   7.332   7.799   3.732
  199POPC  H13R26606   7.441   7.787   3.725
  199POPC  H13S26607   7.287   7.697   3.734
  199POPC  C21426608   7.296   7.866   3.866
  199POPC  H14R26609   7.186   7.872   3.872
  199POPC  H14S26610   7.336   7.970   3.869
  199POPC  C21526611   7.347   7.786   3.986
  199POPC  H15R26612   7.455   7.807   4.000
  199POPC  H15S26613   7.337   7.678   3.964
  199POPC  C21626614   7.271   7.818   4.116
  199POPC  H16R26615   7.167   7.777   4.109
  199POPC  H16S26616   7.262   7.928   4.129
  199POPC  C21726617   7.338   7.759   4.241
  199POPC  H17R26618   7.291   7.801   4.332
  199POPC  H17S26619   7.446   7.786   4.243
  199POPC  C21826620   7.324   7.608   4.244
  199POPC  H18R26621   7.372   7.567   4.336
  199POPC  H18S26622   7.372   7.561   4.156
  199POPC  H18T26623   7.216   7.580   4.245
  199POPC   C3326624   7.127   7.788   2.976
  199POPC   H3X26625   7.096   7.716   3.055
  199POPC   H3Y26626   7.043   7.798   2.902
  199POPC   C3426627   7.153   7.924   3.038
  199POPC   H4X26628   7.193   7.993   2.959
  199POPC   H4Y26629   7.232   7.913   3.116
  199POPC   C3526630   7.027   7.984   3.096
  199POPC   H5X26631   6.977   7.912   3.164
  199POPC   H5Y26632   6.956   8.004   3.011
  199POPC   C3626633   7.054   8.115   3.169
  199POPC   H6X26634   6.955   8.151   3.205
  199POPC   H6Y26635   7.098   8.188   3.096
  199POPC   C3726636   7.147   8.106   3.290
  199POPC   H7X26637   7.251   8.083   3.259
  199POPC   H7Y26638   7.111   8.019   3.349
  199POPC   C3826639   7.144   8.235   3.373
  199POPC   H8X26640   7.050   8.290   3.350
  199POPC   H8Y26641   7.228   8.301   3.340
  199POPC   C3926642   7.149   8.213   3.525
  199POPC   H9X26643   7.147   8.313   3.575
  199POPC   H9Y26644   7.246   8.165   3.550
  199POPC  C31026645   7.033   8.128   3.578
  199POPC  H10X26646   7.038   8.026   3.535
  199POPC  H10Y26647   6.936   8.171   3.546
  199POPC  C31126648   7.036   8.112   3.731
  199POPC  H11X26649   6.993   8.203   3.778
  199POPC  H11Y26650   7.141   8.101   3.765
  199POPC  C31226651   6.958   7.988   3.777
  199POPC  H12X26652   7.010   7.896   3.740
  199POPC  H12Y26653   6.857   7.988   3.731
  199POPC  C31326654   6.944   7.978   3.930
  199POPC  H13X26655   6.874   8.059   3.961
  199POPC  H13Y26656   7.041   7.997   3.980
  199POPC  C31426657   6.887   7.843   3.975
  199POPC  H14X26658   6.968   7.777   4.014
  199POPC  H14Y26659   6.845   7.791   3.886
  199POPC  C31526660   6.776   7.858   4.079
  199POPC  H15X26661   6.714   7.946   4.054
  199POPC  H15Y26662   6.822   7.877   4.178
  199POPC  C31626663   6.684   7.737   4.085
  199POPC  H16X26664   6.624   7.727   3.992
  199POPC  H16Y26665   6.615   7.746   4.171
  199POPC  H16Z26666   6.743   7.644   4.097
  200POPC     N26667   1.918   2.078   2.166
  200POPC   C1226668   1.833   2.130   2.281
  200POPC  H12A26669   1.778   2.218   2.252
  200POPC  H12B26670   1.898   2.155   2.364
  200POPC   C1326671   1.953   1.935   2.194
  200POPC  H13A26672   1.861   1.876   2.201
  200POPC  H13B26673   2.017   1.890   2.121
  200POPC  H13C26674   1.992   1.924   2.296
  200POPC   C1426675   1.839   2.084   2.038
  200POPC  H14A26676   1.897   2.051   1.952
  200POPC  H14B26677   1.751   2.021   2.043
  200POPC  H14C26678   1.804   2.185   2.014
  200POPC   C1526679   2.043   2.158   2.149
  200POPC  H15A26680   2.108   2.144   2.236
  200POPC  H15B26681   2.025   2.264   2.136
  200POPC  H15C26682   2.096   2.122   2.062
  200POPC   C1126683   1.735   2.030   2.346
  200POPC  H11A26684   1.682   1.971   2.267
  200POPC  H11B26685   1.658   2.085   2.405
  200POPC     P26686   1.771   1.802   2.467
  200POPC   O1326687   1.776   1.728   2.338
  200POPC   O1426688   1.645   1.800   2.545
  200POPC   O1226689   1.812   1.951   2.435
  200POPC   O1126690   1.895   1.756   2.556
  200POPC    C126691   2.013   1.702   2.494
  200POPC    HA26692   2.019   1.727   2.385
  200POPC    HB26693   2.006   1.592   2.499
  200POPC    C226694   2.151   1.744   2.556
  200POPC    HS26695   2.226   1.669   2.523
  200POPC   O2126696   2.147   1.748   2.700
  200POPC   C2126697   2.269   1.754   2.757
  200POPC   O2226698   2.373   1.754   2.695
  200POPC   C2226699   2.258   1.748   2.909
  200POPC   H2R26700   2.340   1.682   2.944
  200POPC   H2S26701   2.160   1.703   2.935
  200POPC    C326702   2.194   1.884   2.497
  200POPC    HX26703   2.200   1.871   2.387
  200POPC    HY26704   2.298   1.910   2.528
  200POPC   O3126705   2.097   1.987   2.526
  200POPC   C3126706   2.113   2.037   2.649
  200POPC   O3226707   2.220   2.038   2.708
  200POPC   C3226708   1.986   2.099   2.703
  200POPC   H2X26709   1.903   2.079   2.632
  200POPC   H2Y26710   2.003   2.209   2.711
  200POPC   C2326711   2.272   1.885   2.977
  200POPC   H3R26712   2.208   1.960   2.927
  200POPC   H3S26713   2.378   1.919   2.971
  200POPC   C2426714   2.226   1.879   3.122
  200POPC   H4R26715   2.281   1.797   3.173
  200POPC   H4S26716   2.117   1.856   3.128
  200POPC   C2526717   2.256   2.012   3.191
  200POPC   H5R26718   2.200   2.096   3.144
  200POPC   H5S26719   2.364   2.032   3.174
  200POPC   C2626720   2.230   2.006   3.341
  200POPC   H6R26721   2.199   1.903   3.370
  200POPC   H6S26722   2.145   2.071   3.370
  200POPC   C2726723   2.359   2.041   3.415
  200POPC   H7R26724   2.437   1.974   3.372
  200POPC   H7S26725   2.349   2.015   3.523
  200POPC   C2826726   2.404   2.186   3.397
  200POPC   H8R26727   2.412   2.214   3.290
  200POPC   H8S26728   2.503   2.202   3.444
  200POPC   C2926729   2.296   2.262   3.466
  200POPC   H9126730   2.211   2.295   3.404
  200POPC  C21026731   2.297   2.289   3.596
  200POPC  H10126732   2.204   2.328   3.640
  200POPC  C21126733   2.401   2.254   3.699
  200POPC  H11R26734   2.477   2.335   3.706
  200POPC  H11S26735   2.454   2.161   3.674
  200POPC  C21226736   2.330   2.239   3.834
  200POPC  H12R26737   2.273   2.332   3.857
  200POPC  H12S26738   2.407   2.228   3.913
  200POPC  C21326739   2.235   2.118   3.839
  200POPC  H13R26740   2.297   2.028   3.859
  200POPC  H13S26741   2.188   2.101   3.739
  200POPC  C21426742   2.120   2.130   3.940
  200POPC  H14R26743   2.074   2.029   3.950
  200POPC  H14S26744   2.043   2.198   3.898
  200POPC  C21526745   2.155   2.183   4.081
  200POPC  H15R26746   2.071   2.157   4.150
  200POPC  H15S26747   2.163   2.294   4.080
  200POPC  C21626748   2.283   2.124   4.139
  200POPC  H16R26749   2.367   2.194   4.121
  200POPC  H16S26750   2.301   2.029   4.083
  200POPC  C21726751   2.279   2.088   4.288
  200POPC  H17R26752   2.217   2.160   4.345
  200POPC  H17S26753   2.383   2.095   4.328
  200POPC  C21826754   2.230   1.945   4.311
  200POPC  H18R26755   2.275   1.875   4.236
  200POPC  H18S26756   2.120   1.939   4.302
  200POPC  H18T26757   2.261   1.910   4.412
  200POPC   C3326758   1.949   2.043   2.843
  200POPC   H3X26759   2.028   2.071   2.916
  200POPC   H3Y26760   1.945   1.931   2.837
  200POPC   C3426761   1.814   2.093   2.894
  200POPC   H4X26762   1.737   2.069   2.817
  200POPC   H4Y26763   1.818   2.204   2.903
  200POPC   C3526764   1.770   2.032   3.029
  200POPC   H5X26765   1.762   1.922   3.015
  200POPC   H5Y26766   1.669   2.070   3.054
  200POPC   C3626767   1.865   2.062   3.146
  200POPC   H6X26768   1.877   2.173   3.154
  200POPC   H6Y26769   1.966   2.020   3.124
  200POPC   C3726770   1.819   2.008   3.282
  200POPC   H7X26771   1.718   2.048   3.305
  200POPC   H7Y26772   1.889   2.047   3.360
  200POPC   C3826773   1.817   1.854   3.291
  200POPC   H8X26774   1.917   1.814   3.262
  200POPC   H8Y26775   1.743   1.815   3.218
  200POPC   C3926776   1.780   1.800   3.431
  200POPC   H9X26777   1.768   1.690   3.422
  200POPC   H9Y26778   1.683   1.842   3.463
  200POPC  C31026779   1.887   1.827   3.539
  200POPC  H10X26780   1.897   1.936   3.557
  200POPC  H10Y26781   1.985   1.792   3.499
  200POPC  C31126782   1.860   1.754   3.672
  200POPC  H11X26783   1.955   1.745   3.729
  200POPC  H11Y26784   1.827   1.650   3.648
  200POPC  C31226785   1.755   1.821   3.763
  200POPC  H12X26786   1.719   1.746   3.837
  200POPC  H12Y26787   1.668   1.851   3.701
  200POPC  C31326788   1.810   1.942   3.840
  200POPC  H13X26789   1.859   2.011   3.768
  200POPC  H13Y26790   1.887   1.909   3.913
  200POPC  C31426791   1.699   2.020   3.915
  200POPC  H14X26792   1.659   1.959   3.998
  200POPC  H14Y26793   1.617   2.038   3.842
  200POPC  C31526794   1.745   2.157   3.968
  200POPC  H15X26795   1.658   2.226   3.968
  200POPC  H15Y26796   1.820   2.199   3.898
  200POPC  C31626797   1.802   2.154   4.110
  200POPC  H16X26798   1.856   2.249   4.133
  200POPC  H16Y26799   1.874   2.069   4.121
  200POPC  H16Z26800   1.721   2.141   4.185
  201POPC     N26801   8.467   3.367   2.151
  201POPC   C1226802   8.465   3.215   2.168
  201POPC  H12A26803   8.525   3.168   2.093
  201POPC  H12B26804   8.362   3.180   2.156
  201POPC   C1326805   8.470   3.408   2.007
  201POPC  H13A26806   8.571   3.408   1.967
  201POPC  H13B26807   8.406   3.348   1.944
  201POPC  H13C26808   8.436   3.511   1.998
  201POPC   C1426809   8.345   3.424   2.218
  201POPC  H14A26810   8.335   3.379   2.317
  201POPC  H14B26811   8.350   3.531   2.231
  201POPC  H14C26812   8.256   3.399   2.162
  201POPC   C1526813   8.586   3.427   2.218
  201POPC  H15A26814   8.599   3.531   2.186
  201POPC  H15B26815   8.676   3.374   2.192
  201POPC  H15C26816   8.573   3.424   2.325
  201POPC   C1126817   8.510   3.158   2.304
  201POPC  H11A26818   8.620   3.168   2.316
  201POPC  H11B26819   8.487   3.048   2.308
  201POPC     P26820   8.335   3.167   2.500
  201POPC   O1326821   8.397   3.063   2.586
  201POPC   O1426822   8.225   3.129   2.409
  201POPC   O1226823   8.446   3.229   2.407
  201POPC   O1126824   8.298   3.298   2.581
  201POPC    C126825   8.392   3.405   2.602
  201POPC    HA26826   8.349   3.477   2.675
  201POPC    HB26827   8.409   3.462   2.508
  201POPC    C226828   8.531   3.357   2.656
  201POPC    HS26829   8.583   3.309   2.570
  201POPC   O2126830   8.508   3.265   2.762
  201POPC   C2126831   8.594   3.166   2.769
  201POPC   O2226832   8.699   3.158   2.708
  201POPC   C2226833   8.540   3.073   2.876
  201POPC   H2R26834   8.576   2.971   2.858
  201POPC   H2S26835   8.429   3.070   2.865
  201POPC    C326836   8.626   3.469   2.706
  201POPC    HX26837   8.641   3.540   2.623
  201POPC    HY26838   8.725   3.422   2.728
  201POPC   O3126839   8.567   3.537   2.819
  201POPC   C3126840   8.629   3.522   2.935
  201POPC   O3226841   8.735   3.467   2.954
  201POPC   C3226842   8.543   3.585   3.045
  201POPC   H2X26843   8.443   3.611   3.006
  201POPC   H2Y26844   8.594   3.677   3.080
  201POPC   C2326845   8.579   3.131   3.012
  201POPC   H3R26846   8.544   3.237   3.018
  201POPC   H3S26847   8.690   3.134   3.023
  201POPC   C2426848   8.517   3.056   3.128
  201POPC   H4R26849   8.561   2.954   3.135
  201POPC   H4S26850   8.407   3.045   3.113
  201POPC   C2526851   8.545   3.137   3.254
  201POPC   H5R26852   8.482   3.227   3.251
  201POPC   H5S26853   8.651   3.170   3.252
  201POPC   C2626854   8.523   3.060   3.383
  201POPC   H6R26855   8.583   3.109   3.463
  201POPC   H6S26856   8.564   2.958   3.367
  201POPC   C2726857   8.379   3.052   3.434
  201POPC   H7R26858   8.320   2.984   3.368
  201POPC   H7S26859   8.331   3.153   3.429
  201POPC   C2826860   8.376   3.003   3.579
  201POPC   H8R26861   8.272   2.980   3.611
  201POPC   H8S26862   8.413   3.086   3.645
  201POPC   C2926863   8.464   2.883   3.590
  201POPC   H9126864   8.451   2.808   3.510
  201POPC  C21026865   8.558   2.860   3.683
  201POPC  H10126866   8.616   2.767   3.679
  201POPC  C21126867   8.593   2.950   3.798
  201POPC  H11R26868   8.596   3.057   3.766
  201POPC  H11S26869   8.693   2.923   3.834
  201POPC  C21226870   8.499   2.935   3.916
  201POPC  H12R26871   8.488   2.828   3.945
  201POPC  H12S26872   8.398   2.974   3.889
  201POPC  C21326873   8.551   3.012   4.038
  201POPC  H13R26874   8.474   3.004   4.115
  201POPC  H13S26875   8.564   3.120   4.014
  201POPC  C21426876   8.679   2.958   4.099
  201POPC  H14R26877   8.753   3.041   4.092
  201POPC  H14S26878   8.718   2.872   4.039
  201POPC  C21526879   8.677   2.911   4.246
  201POPC  H15R26880   8.775   2.932   4.296
  201POPC  H15S26881   8.664   2.801   4.247
  201POPC  C21626882   8.575   2.971   4.340
  201POPC  H16R26883   8.475   2.945   4.301
  201POPC  H16S26884   8.583   3.082   4.347
  201POPC  C21726885   8.588   2.902   4.475
  201POPC  H17R26886   8.674   2.941   4.534
  201POPC  H17S26887   8.604   2.793   4.456
  201POPC  C21826888   8.459   2.914   4.551
  201POPC  H18R26889   8.381   2.905   4.475
  201POPC  H18S26890   8.451   3.012   4.603
  201POPC  H18T26891   8.440   2.829   4.619
  201POPC   C3326892   8.530   3.484   3.160
  201POPC   H3X26893   8.628   3.435   3.181
  201POPC   H3Y26894   8.457   3.405   3.131
  201POPC   C3426895   8.485   3.547   3.292
  201POPC   H4X26896   8.383   3.590   3.281
  201POPC   H4Y26897   8.554   3.629   3.320
  201POPC   C3526898   8.485   3.440   3.400
  201POPC   H5X26899   8.585   3.390   3.404
  201POPC   H5Y26900   8.408   3.363   3.377
  201POPC   C3626901   8.453   3.496   3.536
  201POPC   H6X26902   8.348   3.533   3.536
  201POPC   H6Y26903   8.520   3.582   3.558
  201POPC   C3726904   8.469   3.390   3.643
  201POPC   H7X26905   8.574   3.352   3.646
  201POPC   H7Y26906   8.401   3.304   3.625
  201POPC   C3826907   8.433   3.457   3.773
  201POPC   H8X26908   8.324   3.478   3.772
  201POPC   H8Y26909   8.486   3.555   3.779
  201POPC   C3926910   8.468   3.378   3.898
  201POPC   H9X26911   8.578   3.370   3.910
  201POPC   H9Y26912   8.425   3.276   3.894
  201POPC  C31026913   8.406   3.460   4.010
  201POPC  H10X26914   8.296   3.457   3.992
  201POPC  H10Y26915   8.439   3.565   4.002
  201POPC  C31126916   8.433   3.405   4.148
  201POPC  H11X26917   8.523   3.340   4.153
  201POPC  H11Y26918   8.342   3.346   4.163
  201POPC  C31226919   8.426   3.505   4.261
  201POPC  H12X26920   8.355   3.585   4.228
  201POPC  H12Y26921   8.524   3.551   4.280
  201POPC  C31326922   8.371   3.443   4.390
  201POPC  H13X26923   8.292   3.369   4.368
  201POPC  H13Y26924   8.325   3.524   4.450
  201POPC  C31426925   8.477   3.376   4.473
  201POPC  H14X26926   8.526   3.295   4.414
  201POPC  H14Y26927   8.427   3.330   4.561
  201POPC  C31526928   8.583   3.476   4.520
  201POPC  H15X26929   8.649   3.509   4.436
  201POPC  H15Y26930   8.646   3.415   4.583
  201POPC  C31626931   8.533   3.596   4.601
  201POPC  H16X26932   8.620   3.656   4.637
  201POPC  H16Y26933   8.475   3.562   4.689
  201POPC  H16Z26934   8.469   3.661   4.539
  202POPC     N26935   2.000   7.379   2.155
  202POPC   C1226936   2.031   7.396   2.303
  202POPC  H12A26937   2.006   7.498   2.333
  202POPC  H12B26938   2.136   7.378   2.320
  202POPC   C1326939   1.866   7.441   2.127
  202POPC  H13A26940   1.791   7.396   2.193
  202POPC  H13B26941   1.862   7.547   2.149
  202POPC  H13C26942   1.835   7.427   2.025
  202POPC   C1426943   2.103   7.441   2.066
  202POPC  H14A26944   2.073   7.430   1.962
  202POPC  H14B26945   2.109   7.548   2.083
  202POPC  H14C26946   2.201   7.395   2.078
  202POPC   C1526947   1.986   7.234   2.123
  202POPC  H15A26948   1.944   7.217   2.025
  202POPC  H15B26949   1.919   7.188   2.195
  202POPC  H15C26950   2.081   7.181   2.129
  202POPC   C1126951   1.955   7.305   2.402
  202POPC  H11A26952   1.992   7.324   2.505
  202POPC  H11B26953   1.978   7.199   2.382
  202POPC     P26954   1.749   7.458   2.455
  202POPC   O1326955   1.664   7.518   2.349
  202POPC   O1426956   1.861   7.541   2.507
  202POPC   O1226957   1.814   7.327   2.391
  202POPC   O1126958   1.664   7.392   2.573
  202POPC    C126959   1.719   7.273   2.631
  202POPC    HA26960   1.828   7.283   2.648
  202POPC    HB26961   1.700   7.186   2.565
  202POPC    C226962   1.658   7.242   2.770
  202POPC    HS26963   1.553   7.209   2.753
  202POPC   O2126964   1.668   7.357   2.856
  202POPC   C2126965   1.555   7.401   2.906
  202POPC   O2226966   1.443   7.365   2.876
  202POPC   C2226967   1.591   7.488   3.028
  202POPC   H2R26968   1.583   7.594   2.998
  202POPC   H2S26969   1.697   7.469   3.056
  202POPC    C326970   1.738   7.127   2.837
  202POPC    HX26971   1.735   7.037   2.772
  202POPC    HY26972   1.684   7.103   2.931
  202POPC   O3126973   1.876   7.168   2.858
  202POPC   C3126974   1.925   7.137   2.977
  202POPC   O3226975   1.878   7.054   3.053
  202POPC   C3226976   2.045   7.226   3.009
  202POPC   H2X26977   2.023   7.329   2.975
  202POPC   H2Y26978   2.132   7.187   2.954
  202POPC   C2326979   1.500   7.457   3.149
  202POPC   H3R26980   1.524   7.354   3.185
  202POPC   H3S26981   1.394   7.456   3.116
  202POPC   C2426982   1.513   7.556   3.266
  202POPC   H4R26983   1.466   7.652   3.237
  202POPC   H4S26984   1.620   7.576   3.289
  202POPC   C2526985   1.442   7.504   3.392
  202POPC   H5R26986   1.346   7.458   3.360
  202POPC   H5S26987   1.417   7.589   3.460
  202POPC   C2626988   1.527   7.402   3.468
  202POPC   H6R26989   1.602   7.456   3.530
  202POPC   H6S26990   1.583   7.338   3.396
  202POPC   C2726991   1.444   7.311   3.559
  202POPC   H7R26992   1.377   7.246   3.499
  202POPC   H7S26993   1.379   7.376   3.623
  202POPC   C2826994   1.531   7.226   3.653
  202POPC   H8R26995   1.464   7.169   3.721
  202POPC   H8S26996   1.589   7.297   3.716
  202POPC   C2926997   1.623   7.132   3.580
  202POPC   H9126998   1.604   7.116   3.473
  202POPC  C21026999   1.724   7.067   3.640
  202POPC  H10127000   1.788   6.998   3.583
  202POPC  C21127001   1.754   7.082   3.787
  202POPC  H11R27002   1.686   7.016   3.842
  202POPC  H11S27003   1.733   7.185   3.824
  202POPC  C21227004   1.900   7.051   3.825
  202POPC  H12R27005   1.929   6.949   3.792
  202POPC  H12S27006   1.908   7.053   3.936
  202POPC  C21327007   1.997   7.155   3.768
  202POPC  H13R27008   1.955   7.257   3.786
  202POPC  H13S27009   2.005   7.141   3.658
  202POPC  C21427010   2.136   7.147   3.831
  202POPC  H14R27011   2.170   7.042   3.823
  202POPC  H14S27012   2.129   7.169   3.940
  202POPC  C21527013   2.239   7.240   3.765
  202POPC  H15R27014   2.253   7.210   3.659
  202POPC  H15S27015   2.337   7.226   3.816
  202POPC  C21627016   2.204   7.390   3.771
  202POPC  H16R27017   2.119   7.410   3.702
  202POPC  H16S27018   2.292   7.448   3.736
  202POPC  C21727019   2.165   7.437   3.912
  202POPC  H17R27020   2.239   7.394   3.984
  202POPC  H17S27021   2.065   7.394   3.938
  202POPC  C21827022   2.160   7.589   3.928
  202POPC  H18R27023   2.130   7.616   4.032
  202POPC  H18S27024   2.087   7.633   3.858
  202POPC  H18T27025   2.260   7.633   3.908
  202POPC   C3327026   2.073   7.224   3.162
  202POPC   H3X27027   2.083   7.118   3.195
  202POPC   H3Y27028   1.988   7.268   3.217
  202POPC   C3427029   2.203   7.297   3.202
  202POPC   H4X27030   2.286   7.251   3.147
  202POPC   H4Y27031   2.222   7.278   3.310
  202POPC   C3527032   2.206   7.448   3.175
  202POPC   H5X27033   2.189   7.466   3.067
  202POPC   H5Y27034   2.308   7.486   3.201
  202POPC   C3627035   2.103   7.529   3.256
  202POPC   H6X27036   2.001   7.498   3.226
  202POPC   H6Y27037   2.115   7.637   3.230
  202POPC   C3727038   2.120   7.513   3.408
  202POPC   H7X27039   2.226   7.531   3.435
  202POPC   H7Y27040   2.095   7.408   3.438
  202POPC   C3827041   2.031   7.608   3.489
  202POPC   H8X27042   2.057   7.714   3.465
  202POPC   H8Y27043   2.054   7.593   3.597
  202POPC   C3927044   1.881   7.584   3.465
  202POPC   H9X27045   1.859   7.476   3.477
  202POPC   H9Y27046   1.857   7.613   3.360
  202POPC  C31027047   1.791   7.663   3.561
  202POPC  H10X27048   1.687   7.661   3.521
  202POPC  H10Y27049   1.823   7.770   3.564
  202POPC  C31127050   1.789   7.604   3.702
  202POPC  H11X27051   1.889   7.618   3.749
  202POPC  H11Y27052   1.770   7.495   3.695
  202POPC  C31227053   1.682   7.667   3.792
  202POPC  H12X27054   1.582   7.645   3.750
  202POPC  H12Y27055   1.696   7.778   3.791
  202POPC  C31327056   1.689   7.619   3.938
  202POPC  H13X27057   1.605   7.665   3.994
  202POPC  H13Y27058   1.783   7.657   3.983
  202POPC  C31427059   1.683   7.466   3.954
  202POPC  H14X27060   1.776   7.420   3.914
  202POPC  H14Y27061   1.599   7.427   3.893
  202POPC  C31527062   1.664   7.424   4.100
  202POPC  H15X27063   1.647   7.314   4.104
  202POPC  H15Y27064   1.571   7.472   4.139
  202POPC  C31627065   1.782   7.462   4.189
  202POPC  H16X27066   1.754   7.449   4.295
  202POPC  H16Y27067   1.811   7.568   4.175
  202POPC  H16Z27068   1.870   7.397   4.167
  203POPC     N27069   5.539   8.436   2.210
  203POPC   C1227070   5.529   8.583   2.249
  203POPC  H12A27071   5.429   8.619   2.229
  203POPC  H12B27072   5.598   8.639   2.185
  203POPC   C1327073   5.480   8.348   2.316
  203POPC  H13A27074   5.490   8.242   2.292
  203POPC  H13B27075   5.534   8.366   2.409
  203POPC  H13C27076   5.374   8.367   2.333
  203POPC   C1427077   5.475   8.408   2.078
  203POPC  H14A27078   5.367   8.415   2.084
  203POPC  H14B27079   5.506   8.478   2.001
  203POPC  H14C27080   5.499   8.309   2.042
  203POPC   C1527081   5.685   8.403   2.196
  203POPC  H15A27082   5.704   8.301   2.169
  203POPC  H15B27083   5.734   8.427   2.290
  203POPC  H15C27084   5.733   8.470   2.124
  203POPC   C1127085   5.568   8.623   2.394
  203POPC  H11A27086   5.504   8.569   2.468
  203POPC  H11B27087   5.546   8.731   2.411
  203POPC     P27088   5.816   8.687   2.354
  203POPC   O1327089   5.815   8.824   2.409
  203POPC   O1427090   5.804   8.672   2.206
  203POPC   O1227091   5.705   8.594   2.422
  203POPC   O1127092   5.951   8.616   2.396
  203POPC    C127093   5.973   8.475   2.401
  203POPC    HA27094   6.051   8.447   2.328
  203POPC    HB27095   5.882   8.417   2.376
  203POPC    C227096   6.018   8.422   2.541
  203POPC    HS27097   6.026   8.311   2.531
  203POPC   O2127098   5.925   8.459   2.646
  203POPC   C2127099   5.822   8.377   2.652
  203POPC   O2227100   5.805   8.280   2.579
  203POPC   C2227101   5.729   8.413   2.768
  203POPC   H2R27102   5.735   8.522   2.785
  203POPC   H2S27103   5.766   8.361   2.858
  203POPC    C327104   6.160   8.464   2.590
  203POPC    HX27105   6.236   8.436   2.514
  203POPC    HY27106   6.174   8.402   2.680
  203POPC   O3127107   6.173   8.604   2.618
  203POPC   C3127108   6.219   8.639   2.737
  203POPC   O3227109   6.257   8.565   2.826
  203POPC   C3227110   6.196   8.789   2.747
  203POPC   H2X27111   6.231   8.835   2.652
  203POPC   H2Y27112   6.257   8.830   2.829
  203POPC   C2327113   5.583   8.370   2.738
  203POPC   H3R27114   5.573   8.261   2.758
  203POPC   H3S27115   5.561   8.384   2.630
  203POPC   C2427116   5.476   8.448   2.816
  203POPC   H4R27117   5.377   8.406   2.789
  203POPC   H4S27118   5.478   8.554   2.783
  203POPC   C2527119   5.491   8.444   2.969
  203POPC   H5R27120   5.408   8.504   3.013
  203POPC   H5S27121   5.587   8.493   2.998
  203POPC   C2627122   5.485   8.303   3.029
  203POPC   H6R27123   5.580   8.249   3.007
  203POPC   H6S27124   5.403   8.246   2.980
  203POPC   C2727125   5.460   8.303   3.180
  203POPC   H7R27126   5.463   8.197   3.215
  203POPC   H7S27127   5.356   8.341   3.199
  203POPC   C2827128   5.559   8.388   3.262
  203POPC   H8R27129   5.551   8.495   3.232
  203POPC   H8S27130   5.663   8.356   3.236
  203POPC   C2927131   5.532   8.373   3.409
  203POPC   H9127132   5.474   8.455   3.455
  203POPC  C21027133   5.573   8.270   3.485
  203POPC  H10127134   5.549   8.270   3.592
  203POPC  C21127135   5.654   8.153   3.435
  203POPC  H11R27136   5.670   8.155   3.325
  203POPC  H11S27137   5.600   8.058   3.457
  203POPC  C21227138   5.792   8.147   3.503
  203POPC  H12R27139   5.848   8.059   3.464
  203POPC  H12S27140   5.776   8.129   3.612
  203POPC  C21327141   5.880   8.272   3.485
  203POPC  H13R27142   5.825   8.363   3.521
  203POPC  H13S27143   5.907   8.288   3.379
  203POPC  C21427144   6.005   8.256   3.571
  203POPC  H14R27145   6.071   8.178   3.528
  203POPC  H14S27146   5.966   8.218   3.668
  203POPC  C21527147   6.088   8.381   3.601
  203POPC  H15R27148   6.021   8.470   3.611
  203POPC  H15S27149   6.159   8.400   3.517
  203POPC  C21627150   6.163   8.363   3.733
  203POPC  H16R27151   6.233   8.446   3.747
  203POPC  H16S27152   6.222   8.268   3.732
  203POPC  C21727153   6.071   8.370   3.855
  203POPC  H17R27154   5.997   8.287   3.854
  203POPC  H17S27155   6.016   8.466   3.851
  203POPC  C21827156   6.147   8.360   3.985
  203POPC  H18R27157   6.228   8.436   3.989
  203POPC  H18S27158   6.196   8.261   3.994
  203POPC  H18T27159   6.080   8.376   4.071
  203POPC   C3327160   6.046   8.819   2.769
  203POPC   H3X27161   5.985   8.774   2.687
  203POPC   H3Y27162   6.031   8.930   2.765
  203POPC   C3427163   5.998   8.768   2.905
  203POPC   H4X27164   6.070   8.804   2.983
  203POPC   H4Y27165   5.999   8.657   2.907
  203POPC   C3527166   5.857   8.816   2.944
  203POPC   H5X27167   5.781   8.767   2.880
  203POPC   H5Y27168   5.850   8.925   2.927
  203POPC   C3627169   5.828   8.786   3.092
  203POPC   H6X27170   5.919   8.813   3.150
  203POPC   H6Y27171   5.811   8.677   3.105
  203POPC   C3727172   5.708   8.864   3.148
  203POPC   H7X27173   5.620   8.845   3.082
  203POPC   H7Y27174   5.730   8.973   3.144
  203POPC   C3827175   5.673   8.823   3.291
  203POPC   H8X27176   5.649   8.714   3.291
  203POPC   H8Y27177   5.582   8.877   3.324
  203POPC   C3927178   5.785   8.847   3.394
  203POPC   H9X27179   5.787   8.955   3.422
  203POPC   H9Y27180   5.884   8.822   3.352
  203POPC  C31027181   5.767   8.761   3.520
  203POPC  H10X27182   5.854   8.776   3.588
  203POPC  H10Y27183   5.766   8.654   3.491
  203POPC  C31127184   5.638   8.794   3.596
  203POPC  H11X27185   5.552   8.788   3.527
  203POPC  H11Y27186   5.645   8.898   3.634
  203POPC  C31227187   5.612   8.698   3.712
  203POPC  H12X27188   5.626   8.593   3.677
  203POPC  H12Y27189   5.506   8.709   3.744
  203POPC  C31327190   5.701   8.726   3.834
  203POPC  H13X27191   5.680   8.829   3.870
  203POPC  H13Y27192   5.809   8.720   3.806
  203POPC  C31427193   5.671   8.627   3.946
  203POPC  H14X27194   5.707   8.525   3.919
  203POPC  H14Y27195   5.561   8.623   3.955
  203POPC  C31527196   5.722   8.668   4.084
  203POPC  H15X27197   5.678   8.599   4.159
  203POPC  H15Y27198   5.685   8.771   4.106
  203POPC  C31627199   5.874   8.665   4.098
  203POPC  H16X27200   5.913   8.564   4.077
  203POPC  H16Y27201   5.904   8.694   4.201
  203POPC  H16Z27202   5.920   8.737   4.027
  204POPC     N27203   3.256   8.267   2.326
  204POPC   C1227204   3.128   8.319   2.389
  204POPC  H12A27205   3.075   8.370   2.309
  204POPC  H12B27206   3.147   8.396   2.461
  204POPC   C1327207   3.364   8.243   2.426
  204POPC  H13A27208   3.455   8.209   2.377
  204POPC  H13B27209   3.395   8.335   2.476
  204POPC  H13C27210   3.337   8.169   2.500
  204POPC   C1427211   3.229   8.142   2.248
  204POPC  H14A27212   3.173   8.071   2.307
  204POPC  H14B27213   3.166   8.166   2.162
  204POPC  H14C27214   3.322   8.098   2.216
  204POPC   C1527215   3.304   8.369   2.225
  204POPC  H15A27216   3.238   8.370   2.137
  204POPC  H15B27217   3.403   8.343   2.188
  204POPC  H15C27218   3.310   8.469   2.264
  204POPC   C1127219   3.019   8.222   2.442
  204POPC  H11A27220   2.947   8.280   2.505
  204POPC  H11B27221   3.063   8.142   2.504
  204POPC     P27222   2.877   8.256   2.223
  204POPC   O1327223   2.738   8.209   2.204
  204POPC   O1427224   2.963   8.256   2.102
  204POPC   O1227225   2.949   8.166   2.333
  204POPC   O1127226   2.872   8.398   2.289
  204POPC    C127227   2.930   8.527   2.289
  204POPC    HA27228   2.868   8.592   2.223
  204POPC    HB27229   3.033   8.530   2.250
  204POPC    C227230   2.925   8.593   2.433
  204POPC    HS27231   2.922   8.703   2.418
  204POPC   O2127232   3.039   8.554   2.515
  204POPC   C2127233   3.040   8.623   2.632
  204POPC   O2227234   3.001   8.737   2.644
  204POPC   C2227235   3.091   8.537   2.748
  204POPC   H2R27236   3.174   8.473   2.712
  204POPC   H2S27237   3.007   8.472   2.779
  204POPC    C327238   2.791   8.555   2.505
  204POPC    HX27239   2.728   8.502   2.431
  204POPC    HY27240   2.738   8.649   2.533
  204POPC   O3127241   2.812   8.468   2.618
  204POPC   C3127242   2.726   8.480   2.717
  204POPC   O3227243   2.660   8.579   2.745
  204POPC   C3227244   2.711   8.344   2.780
  204POPC   H2X27245   2.790   8.275   2.745
  204POPC   H2Y27246   2.613   8.307   2.744
  204POPC   C2327247   3.134   8.623   2.870
  204POPC   H3R27248   3.051   8.692   2.899
  204POPC   H3S27249   3.221   8.687   2.843
  204POPC   C2427250   3.170   8.537   2.991
  204POPC   H4R27251   3.264   8.481   2.966
  204POPC   H4S27252   3.090   8.462   3.009
  204POPC   C2527253   3.194   8.617   3.120
  204POPC   H5R27254   3.250   8.710   3.095
  204POPC   H5S27255   3.259   8.557   3.189
  204POPC   C2627256   3.066   8.653   3.197
  204POPC   H6R27257   2.996   8.705   3.129
  204POPC   H6S27258   3.096   8.726   3.276
  204POPC   C2727259   2.998   8.533   3.265
  204POPC   H7R27260   3.073   8.486   3.334
  204POPC   H7S27261   2.972   8.457   3.189
  204POPC   C2827262   2.871   8.564   3.347
  204POPC   H8R27263   2.859   8.486   3.425
  204POPC   H8S27264   2.783   8.550   3.280
  204POPC   C2927265   2.869   8.704   3.404
  204POPC   H9127266   2.853   8.784   3.330
  204POPC  C21027267   2.887   8.737   3.533
  204POPC  H10127268   2.892   8.844   3.559
  204POPC  C21127269   2.911   8.640   3.646
  204POPC  H11R27270   2.970   8.689   3.727
  204POPC  H11S27271   2.972   8.555   3.608
  204POPC  C21227272   2.781   8.582   3.705
  204POPC  H12R27273   2.720   8.541   3.621
  204POPC  H12S27274   2.721   8.664   3.752
  204POPC  C21327275   2.802   8.469   3.808
  204POPC  H13R27276   2.844   8.511   3.902
  204POPC  H13S27277   2.874   8.396   3.767
  204POPC  C21427278   2.671   8.394   3.836
  204POPC  H14R27279   2.632   8.359   3.738
  204POPC  H14S27280   2.597   8.464   3.880
  204POPC  C21527281   2.679   8.268   3.924
  204POPC  H15R27282   2.725   8.187   3.863
  204POPC  H15S27283   2.574   8.238   3.947
  204POPC  C21627284   2.754   8.279   4.057
  204POPC  H16R27285   2.724   8.371   4.112
  204POPC  H16S27286   2.864   8.286   4.037
  204POPC  C21727287   2.728   8.156   4.145
  204POPC  H17R27288   2.625   8.164   4.189
  204POPC  H17S27289   2.800   8.155   4.230
  204POPC  C21827290   2.738   8.024   4.067
  204POPC  H18R27291   2.744   7.936   4.133
  204POPC  H18S27292   2.829   8.025   4.003
  204POPC  H18T27293   2.649   8.011   4.001
  204POPC   C3327294   2.705   8.345   2.932
  204POPC   H3X27295   2.629   8.418   2.971
  204POPC   H3Y27296   2.804   8.374   2.973
  204POPC   C3427297   2.666   8.205   2.977
  204POPC   H4X27298   2.680   8.133   2.893
  204POPC   H4Y27299   2.559   8.202   3.008
  204POPC   C3527300   2.754   8.157   3.090
  204POPC   H5X27301   2.861   8.165   3.061
  204POPC   H5Y27302   2.731   8.050   3.111
  204POPC   C3627303   2.727   8.237   3.216
  204POPC   H6X27304   2.617   8.249   3.228
  204POPC   H6Y27305   2.771   8.339   3.209
  204POPC   C3727306   2.786   8.162   3.333
  204POPC   H7X27307   2.745   8.059   3.336
  204POPC   H7Y27308   2.755   8.213   3.426
  204POPC   C3827309   2.938   8.154   3.316
  204POPC   H8X27310   2.976   8.249   3.274
  204POPC   H8Y27311   2.962   8.073   3.242
  204POPC   C3927312   3.011   8.126   3.446
  204POPC   H9X27313   3.120   8.117   3.425
  204POPC   H9Y27314   2.974   8.029   3.486
  204POPC  C31027315   2.989   8.237   3.548
  204POPC  H10X27316   2.881   8.254   3.569
  204POPC  H10Y27317   3.030   8.331   3.507
  204POPC  C31127318   3.055   8.205   3.682
  204POPC  H11X27319   3.119   8.114   3.672
  204POPC  H11Y27320   2.976   8.182   3.757
  204POPC  C31227321   3.140   8.322   3.728
  204POPC  H12X27322   3.083   8.417   3.718
  204POPC  H12Y27323   3.230   8.331   3.663
  204POPC  C31327324   3.183   8.307   3.874
  204POPC  H13X27325   3.092   8.306   3.939
  204POPC  H13Y27326   3.243   8.396   3.901
  204POPC  C31427327   3.261   8.177   3.895
  204POPC  H14X27328   3.339   8.168   3.816
  204POPC  H14Y27329   3.192   8.091   3.884
  204POPC  C31527330   3.330   8.173   4.032
  204POPC  H15X27331   3.366   8.070   4.051
  204POPC  H15Y27332   3.256   8.200   4.111
  204POPC  C31627333   3.449   8.268   4.037
  204POPC  H16X27334   3.524   8.236   3.962
  204POPC  H16Y27335   3.495   8.268   4.138
  204POPC  H16Z27336   3.419   8.372   4.012
  205POPC     N27337   5.639   0.813   2.170
  205POPC   C1227338   5.651   0.725   2.294
  205POPC  H12A27339   5.752   0.725   2.329
  205POPC  H12B27340   5.625   0.623   2.266
  205POPC   C1327341   5.510   0.786   2.100
  205POPC  H13A27342   5.502   0.683   2.067
  205POPC  H13B27343   5.425   0.802   2.167
  205POPC  H13C27344   5.499   0.852   2.015
  205POPC   C1427345   5.642   0.959   2.204
  205POPC  H14A27346   5.566   0.979   2.280
  205POPC  H14B27347   5.738   0.992   2.242
  205POPC  H14C27348   5.615   1.020   2.117
  205POPC   C1527349   5.747   0.783   2.072
  205POPC  H15A27350   5.739   0.680   2.037
  205POPC  H15B27351   5.845   0.794   2.116
  205POPC  H15C27352   5.737   0.846   1.983
  205POPC   C1127353   5.558   0.756   2.414
  205POPC  H11A27354   5.585   0.854   2.458
  205POPC  H11B27355   5.574   0.679   2.493
  205POPC     P27356   5.302   0.738   2.464
  205POPC   O1327357   5.302   0.600   2.516
  205POPC   O1427358   5.182   0.784   2.390
  205POPC   O1227359   5.424   0.755   2.367
  205POPC   O1127360   5.341   0.840   2.579
  205POPC    C127361   5.351   0.981   2.550
  205POPC    HA27362   5.285   1.012   2.465
  205POPC    HB27363   5.456   1.005   2.522
  205POPC    C227364   5.313   1.070   2.671
  205POPC    HS27365   5.358   1.171   2.657
  205POPC   O2127366   5.359   1.012   2.796
  205POPC   C2127367   5.491   1.008   2.808
  205POPC   O2227368   5.571   1.071   2.740
  205POPC   C2227369   5.532   0.916   2.923
  205POPC   H2R27370   5.629   0.870   2.894
  205POPC   H2S27371   5.458   0.834   2.932
  205POPC    C327372   5.159   1.091   2.675
  205POPC    HX27373   5.129   1.142   2.581
  205POPC    HY27374   5.133   1.159   2.758
  205POPC   O3127375   5.088   0.966   2.680
  205POPC   C3127376   5.058   0.920   2.800
  205POPC   O3227377   5.056   0.986   2.903
  205POPC   C3227378   5.016   0.775   2.788
  205POPC   H2X27379   5.051   0.736   2.690
  205POPC   H2Y27380   4.905   0.773   2.789
  205POPC   C2327381   5.548   0.990   3.058
  205POPC   H3R27382   5.612   1.080   3.043
  205POPC   H3S27383   5.600   0.923   3.131
  205POPC   C2427384   5.414   1.031   3.119
  205POPC   H4R27385   5.347   1.067   3.038
  205POPC   H4S27386   5.430   1.113   3.192
  205POPC   C2527387   5.345   0.915   3.192
  205POPC   H5R27388   5.417   0.876   3.267
  205POPC   H5S27389   5.323   0.833   3.123
  205POPC   C2627390   5.218   0.953   3.270
  205POPC   H6R27391   5.245   1.044   3.326
  205POPC   H6S27392   5.202   0.871   3.342
  205POPC   C2727393   5.083   0.974   3.199
  205POPC   H7R27394   5.057   0.884   3.139
  205POPC   H7S27395   5.094   1.058   3.128
  205POPC   C2827396   4.965   1.007   3.295
  205POPC   H8R27397   4.872   1.007   3.232
  205POPC   H8S27398   4.976   1.113   3.328
  205POPC   C2927399   4.942   0.919   3.416
  205POPC   H9127400   4.904   0.819   3.392
  205POPC  C21027401   4.976   0.943   3.544
  205POPC  H10127402   4.953   0.868   3.621
  205POPC  C21127403   5.045   1.066   3.597
  205POPC  H11R27404   5.021   1.084   3.704
  205POPC  H11S27405   5.007   1.156   3.543
  205POPC  C21227406   5.198   1.054   3.575
  205POPC  H12R27407   5.232   1.138   3.511
  205POPC  H12S27408   5.223   0.962   3.519
  205POPC  C21327409   5.292   1.049   3.694
  205POPC  H13R27410   5.398   1.050   3.658
  205POPC  H13S27411   5.278   0.952   3.746
  205POPC  C21427412   5.270   1.155   3.799
  205POPC  H14R27413   5.194   1.226   3.763
  205POPC  H14S27414   5.365   1.209   3.819
  205POPC  C21527415   5.217   1.085   3.924
  205POPC  H15R27416   5.283   0.997   3.941
  205POPC  H15S27417   5.114   1.046   3.906
  205POPC  C21627418   5.220   1.168   4.050
  205POPC  H16R27419   5.117   1.205   4.072
  205POPC  H16S27420   5.286   1.257   4.040
  205POPC  C21727421   5.272   1.084   4.168
  205POPC  H17R27422   5.237   1.142   4.253
  205POPC  H17S27423   5.382   1.081   4.174
  205POPC  C21827424   5.218   0.942   4.183
  205POPC  H18R27425   5.141   0.921   4.107
  205POPC  H18S27426   5.175   0.929   4.285
  205POPC  H18T27427   5.297   0.866   4.173
  205POPC   C3327428   5.073   0.689   2.902
  205POPC   H3X27429   5.049   0.583   2.877
  205POPC   H3Y27430   5.025   0.713   2.999
  205POPC   C3427431   5.225   0.697   2.915
  205POPC   H4X27432   5.252   0.798   2.950
  205POPC   H4Y27433   5.266   0.690   2.811
  205POPC   C3527434   5.288   0.581   2.994
  205POPC   H5X27435   5.396   0.576   2.965
  205POPC   H5Y27436   5.240   0.488   2.957
  205POPC   C3627437   5.284   0.574   3.149
  205POPC   H6X27438   5.360   0.642   3.194
  205POPC   H6Y27439   5.318   0.471   3.174
  205POPC   C3727440   5.150   0.595   3.221
  205POPC   H7X27441   5.066   0.552   3.165
  205POPC   H7Y27442   5.128   0.704   3.227
  205POPC   C3827443   5.148   0.534   3.362
  205POPC   H8X27444   5.211   0.443   3.367
  205POPC   H8Y27445   5.044   0.507   3.391
  205POPC   C3927446   5.198   0.638   3.461
  205POPC   H9X27447   5.129   0.725   3.455
  205POPC   H9Y27448   5.298   0.669   3.426
  205POPC  C31027449   5.204   0.598   3.607
  205POPC  H10X27450   5.263   0.507   3.620
  205POPC  H10Y27451   5.101   0.579   3.647
  205POPC  C31127452   5.268   0.713   3.683
  205POPC  H11X27453   5.253   0.702   3.792
  205POPC  H11Y27454   5.205   0.800   3.653
  205POPC  C31227455   5.416   0.743   3.647
  205POPC  H12X27456   5.456   0.814   3.721
  205POPC  H12Y27457   5.420   0.797   3.549
  205POPC  C31327458   5.511   0.623   3.639
  205POPC  H13X27459   5.616   0.662   3.634
  205POPC  H13Y27460   5.493   0.568   3.544
  205POPC  C31427461   5.502   0.523   3.755
  205POPC  H14X27462   5.588   0.452   3.750
  205POPC  H14Y27463   5.409   0.464   3.746
  205POPC  C31527464   5.497   0.587   3.893
  205POPC  H15X27465   5.404   0.648   3.903
  205POPC  H15Y27466   5.581   0.658   3.897
  205POPC  C31627467   5.499   0.488   4.009
  205POPC  H16X27468   5.601   0.450   4.028
  205POPC  H16Y27469   5.434   0.401   3.991
  205POPC  H16Z27470   5.460   0.537   4.101
  206POPC     N27471   4.566   0.896   2.412
  206POPC   C1227472   4.696   0.886   2.332
  206POPC  H12A27473   4.781   0.886   2.401
  206POPC  H12B27474   4.712   0.974   2.270
  206POPC   C1327475   4.586   0.805   2.529
  206POPC  H13A27476   4.497   0.800   2.590
  206POPC  H13B27477   4.603   0.705   2.487
  206POPC  H13C27478   4.673   0.831   2.586
  206POPC   C1427479   4.538   1.036   2.457
  206POPC  H14A27480   4.442   1.040   2.507
  206POPC  H14B27481   4.616   1.072   2.524
  206POPC  H14C27482   4.536   1.102   2.371
  206POPC   C1527483   4.453   0.842   2.329
  206POPC  H15A27484   4.479   0.741   2.293
  206POPC  H15B27485   4.438   0.899   2.239
  206POPC  H15C27486   4.359   0.831   2.384
  206POPC   C1127487   4.711   0.763   2.239
  206POPC  H11A27488   4.814   0.770   2.195
  206POPC  H11B27489   4.639   0.775   2.155
  206POPC     P27490   4.715   0.511   2.207
  206POPC   O1327491   4.835   0.536   2.122
  206POPC   O1427492   4.588   0.482   2.136
  206POPC   O1227493   4.690   0.636   2.305
  206POPC   O1127494   4.745   0.389   2.297
  206POPC    C127495   4.775   0.396   2.434
  206POPC    HA27496   4.804   0.497   2.471
  206POPC    HB27497   4.864   0.331   2.450
  206POPC    C227498   4.655   0.342   2.515
  206POPC    HS27499   4.618   0.250   2.465
  206POPC   O2127500   4.550   0.444   2.522
  206POPC   C2127501   4.474   0.456   2.630
  206POPC   O2227502   4.485   0.391   2.732
  206POPC   C2227503   4.372   0.568   2.628
  206POPC   H2R27504   4.272   0.528   2.603
  206POPC   H2S27505   4.399   0.644   2.554
  206POPC    C327506   4.722   0.301   2.649
  206POPC    HX27507   4.807   0.236   2.624
  206POPC    HY27508   4.653   0.235   2.706
  206POPC   O3127509   4.769   0.419   2.719
  206POPC   C3127510   4.739   0.414   2.849
  206POPC   O3227511   4.705   0.315   2.910
  206POPC   C3227512   4.752   0.552   2.910
  206POPC   H2X27513   4.734   0.630   2.832
  206POPC   H2Y27514   4.854   0.563   2.948
  206POPC   C2327515   4.374   0.618   2.775
  206POPC   H3R27516   4.480   0.624   2.808
  206POPC   H3S27517   4.322   0.544   2.841
  206POPC   C2427518   4.320   0.757   2.808
  206POPC   H4R27519   4.209   0.756   2.804
  206POPC   H4S27520   4.358   0.831   2.734
  206POPC   C2527521   4.371   0.796   2.948
  206POPC   H5R27522   4.347   0.902   2.966
  206POPC   H5S27523   4.482   0.791   2.951
  206POPC   C2627524   4.312   0.714   3.064
  206POPC   H6R27525   4.374   0.624   3.083
  206POPC   H6S27526   4.211   0.676   3.036
  206POPC   C2727527   4.299   0.797   3.193
  206POPC   H7R27528   4.191   0.810   3.213
  206POPC   H7S27529   4.343   0.898   3.179
  206POPC   C2827530   4.369   0.731   3.313
  206POPC   H8R27531   4.478   0.743   3.301
  206POPC   H8S27532   4.344   0.623   3.311
  206POPC   C2927533   4.324   0.789   3.443
  206POPC   H9127534   4.226   0.752   3.473
  206POPC  C21027535   4.388   0.868   3.530
  206POPC  H10127536   4.332   0.899   3.619
  206POPC  C21127537   4.528   0.922   3.520
  206POPC  H11R27538   4.531   1.031   3.543
  206POPC  H11S27539   4.570   0.909   3.418
  206POPC  C21227540   4.620   0.847   3.619
  206POPC  H12R27541   4.724   0.855   3.582
  206POPC  H12S27542   4.595   0.739   3.618
  206POPC  C21327543   4.618   0.895   3.766
  206POPC  H13R27544   4.663   0.996   3.773
  206POPC  H13S27545   4.684   0.827   3.825
  206POPC  C21427546   4.479   0.897   3.831
  206POPC  H14R27547   4.416   0.816   3.788
  206POPC  H14S27548   4.432   0.995   3.808
  206POPC  C21527549   4.480   0.872   3.982
  206POPC  H15R27550   4.568   0.922   4.028
  206POPC  H15S27551   4.492   0.763   4.000
  206POPC  C21627552   4.352   0.922   4.049
  206POPC  H16R27553   4.267   0.856   4.019
  206POPC  H16S27554   4.328   1.024   4.013
  206POPC  C21727555   4.363   0.926   4.202
  206POPC  H17R27556   4.263   0.951   4.245
  206POPC  H17S27557   4.434   1.007   4.230
  206POPC  C21827558   4.414   0.796   4.265
  206POPC  H18R27559   4.350   0.710   4.235
  206POPC  H18S27560   4.414   0.804   4.376
  206POPC  H18T27561   4.518   0.774   4.233
  206POPC   C3327562   4.656   0.566   3.029
  206POPC   H3X27563   4.652   0.473   3.089
  206POPC   H3Y27564   4.553   0.577   2.989
  206POPC   C3427565   4.689   0.685   3.119
  206POPC   H4X27566   4.594   0.736   3.143
  206POPC   H4Y27567   4.749   0.761   3.064
  206POPC   C3527568   4.761   0.651   3.252
  206POPC   H5X27569   4.740   0.736   3.321
  206POPC   H5Y27570   4.870   0.651   3.230
  206POPC   C3627571   4.729   0.520   3.328
  206POPC   H6X27572   4.799   0.515   3.414
  206POPC   H6Y27573   4.750   0.433   3.263
  206POPC   C3727574   4.586   0.508   3.382
  206POPC   H7X27575   4.516   0.489   3.298
  206POPC   H7Y27576   4.560   0.606   3.429
  206POPC   C3827577   4.566   0.403   3.493
  206POPC   H8X27578   4.603   0.304   3.460
  206POPC   H8Y27579   4.456   0.393   3.512
  206POPC   C3927580   4.634   0.446   3.624
  206POPC   H9X27581   4.670   0.550   3.613
  206POPC   H9Y27582   4.726   0.385   3.636
  206POPC  C31027583   4.548   0.440   3.751
  206POPC  H10X27584   4.525   0.334   3.776
  206POPC  H10Y27585   4.451   0.492   3.734
  206POPC  C31127586   4.621   0.509   3.869
  206POPC  H11X27587   4.624   0.618   3.851
  206POPC  H11Y27588   4.725   0.471   3.872
  206POPC  C31227589   4.557   0.483   4.006
  206POPC  H12X27590   4.539   0.374   4.015
  206POPC  H12Y27591   4.458   0.533   4.013
  206POPC  C31327592   4.644   0.526   4.127
  206POPC  H13X27593   4.645   0.636   4.133
  206POPC  H13Y27594   4.748   0.490   4.113
  206POPC  C31427595   4.587   0.463   4.255
  206POPC  H14X27596   4.618   0.358   4.255
  206POPC  H14Y27597   4.476   0.468   4.245
  206POPC  C31527598   4.618   0.521   4.394
  206POPC  H15X27599   4.535   0.487   4.460
  206POPC  H15Y27600   4.614   0.632   4.393
  206POPC  C31627601   4.745   0.470   4.463
  206POPC  H16X27602   4.834   0.481   4.398
  206POPC  H16Y27603   4.733   0.364   4.490
  206POPC  H16Z27604   4.763   0.526   4.557
  207POPC     N27605   8.898   5.573   2.221
  207POPC   C1227606   8.872   5.629   2.360
  207POPC  H12A27607   8.837   5.731   2.351
  207POPC  H12B27608   8.964   5.628   2.417
  207POPC   C1327609   8.790   5.620   2.129
  207POPC  H13A27610   8.774   5.551   2.046
  207POPC  H13B27611   8.695   5.619   2.184
  207POPC  H13C27612   8.807   5.719   2.089
  207POPC   C1427613   9.036   5.612   2.175
  207POPC  H14A27614   9.110   5.563   2.238
  207POPC  H14B27615   9.054   5.583   2.073
  207POPC  H14C27616   9.052   5.718   2.183
  207POPC   C1527617   8.888   5.423   2.226
  207POPC  H15A27618   8.783   5.394   2.240
  207POPC  H15B27619   8.941   5.387   2.313
  207POPC  H15C27620   8.925   5.374   2.138
  207POPC   C1127621   8.769   5.550   2.442
  207POPC  H11A27622   8.748   5.599   2.539
  207POPC  H11B27623   8.813   5.451   2.467
  207POPC     P27624   8.542   5.438   2.418
  207POPC   O1327625   8.612   5.314   2.456
  207POPC   O1427626   8.437   5.427   2.315
  207POPC   O1227627   8.650   5.540   2.366
  207POPC   O1127628   8.487   5.517   2.545
  207POPC    C127629   8.395   5.623   2.510
  207POPC    HA27630   8.294   5.581   2.499
  207POPC    HB27631   8.421   5.673   2.412
  207POPC    C227632   8.395   5.739   2.612
  207POPC    HS27633   8.357   5.832   2.562
  207POPC   O2127634   8.528   5.759   2.661
  207POPC   C2127635   8.608   5.815   2.574
  207POPC   O2227636   8.576   5.862   2.466
  207POPC   C2227637   8.746   5.839   2.637
  207POPC   H2R27638   8.763   5.949   2.638
  207POPC   H2S27639   8.822   5.794   2.571
  207POPC    C327640   8.297   5.714   2.731
  207POPC    HX27641   8.196   5.735   2.694
  207POPC    HY27642   8.305   5.788   2.814
  207POPC   O3127643   8.302   5.580   2.781
  207POPC   C3127644   8.402   5.563   2.866
  207POPC   O3227645   8.479   5.649   2.905
  207POPC   C3227646   8.394   5.422   2.921
  207POPC   H2X27647   8.433   5.351   2.845
  207POPC   H2Y27648   8.288   5.398   2.941
  207POPC   C2327649   8.763   5.786   2.782
  207POPC   H3R27650   8.738   5.677   2.785
  207POPC   H3S27651   8.691   5.835   2.851
  207POPC   C2427652   8.905   5.805   2.834
  207POPC   H4R27653   8.967   5.863   2.762
  207POPC   H4S27654   8.946   5.702   2.835
  207POPC   C2527655   8.921   5.867   2.974
  207POPC   H5R27656   9.022   5.840   3.010
  207POPC   H5S27657   8.848   5.823   3.045
  207POPC   C2627658   8.919   6.021   2.978
  207POPC   H6R27659   8.820   6.057   2.940
  207POPC   H6S27660   8.997   6.059   2.908
  207POPC   C2727661   8.948   6.083   3.117
  207POPC   H7R27662   8.854   6.090   3.176
  207POPC   H7S27663   8.982   6.188   3.099
  207POPC   C2827664   9.053   6.007   3.202
  207POPC   H8R27665   9.137   5.978   3.136
  207POPC   H8S27666   9.006   5.912   3.238
  207POPC   C2927667   9.108   6.088   3.317
  207POPC   H9127668   9.194   6.152   3.291
  207POPC  C21027669   9.063   6.088   3.444
  207POPC  H10127670   9.111   6.155   3.517
  207POPC  C21127671   8.948   6.007   3.498
  207POPC  H11R27672   8.917   5.927   3.428
  207POPC  H11S27673   8.860   6.076   3.510
  207POPC  C21227674   8.972   5.940   3.634
  207POPC  H12R27675   8.882   5.960   3.696
  207POPC  H12S27676   9.062   5.984   3.684
  207POPC  C21327677   8.991   5.788   3.632
  207POPC  H13R27678   9.092   5.769   3.592
  207POPC  H13S27679   8.918   5.745   3.560
  207POPC  C21427680   8.973   5.715   3.767
  207POPC  H14R27681   8.985   5.606   3.749
  207POPC  H14S27682   8.871   5.726   3.806
  207POPC  C21527683   9.070   5.757   3.878
  207POPC  H15R27684   9.053   5.863   3.907
  207POPC  H15S27685   9.174   5.751   3.839
  207POPC  C21627686   9.060   5.668   4.004
  207POPC  H16R27687   9.142   5.698   4.073
  207POPC  H16S27688   9.078   5.562   3.975
  207POPC  C21727689   8.928   5.672   4.082
  207POPC  H17R27690   8.850   5.615   4.026
  207POPC  H17S27691   8.893   5.777   4.092
  207POPC  C21827692   8.944   5.615   4.223
  207POPC  H18R27693   9.007   5.684   4.283
  207POPC  H18S27694   8.994   5.516   4.219
  207POPC  H18T27695   8.846   5.605   4.274
  207POPC   C3327696   8.473   5.411   3.053
  207POPC   H3X27697   8.437   5.321   3.108
  207POPC   H3Y27698   8.452   5.500   3.118
  207POPC   C3427699   8.623   5.396   3.029
  207POPC   H4X27700   8.663   5.487   2.977
  207POPC   H4Y27701   8.639   5.309   2.961
  207POPC   C3527702   8.703   5.373   3.158
  207POPC   H5X27703   8.806   5.341   3.130
  207POPC   H5Y27704   8.655   5.292   3.216
  207POPC   C3627705   8.712   5.496   3.248
  207POPC   H6X27706   8.611   5.527   3.282
  207POPC   H6Y27707   8.755   5.579   3.188
  207POPC   C3727708   8.803   5.470   3.370
  207POPC   H7X27709   8.829   5.568   3.415
  207POPC   H7Y27710   8.897   5.424   3.332
  207POPC   C3827711   8.746   5.380   3.481
  207POPC   H8X27712   8.827   5.365   3.556
  207POPC   H8Y27713   8.718   5.281   3.441
  207POPC   C3927714   8.625   5.444   3.552
  207POPC   H9X27715   8.537   5.437   3.485
  207POPC   H9Y27716   8.648   5.550   3.570
  207POPC  C31027717   8.592   5.386   3.690
  207POPC  H10X27718   8.657   5.434   3.767
  207POPC  H10Y27719   8.614   5.277   3.690
  207POPC  C31127720   8.444   5.404   3.731
  207POPC  H11X27721   8.430   5.360   3.831
  207POPC  H11Y27722   8.381   5.347   3.659
  207POPC  C31227723   8.390   5.548   3.738
  207POPC  H12X27724   8.411   5.596   3.641
  207POPC  H12Y27725   8.444   5.603   3.819
  207POPC  C31327726   8.237   5.554   3.763
  207POPC  H13X27727   8.205   5.453   3.798
  207POPC  H13Y27728   8.186   5.572   3.666
  207POPC  C31427729   8.185   5.655   3.867
  207POPC  H14X27730   8.215   5.621   3.969
  207POPC  H14Y27731   8.074   5.654   3.865
  207POPC  C31527732   8.231   5.801   3.857
  207POPC  H15X27733   8.211   5.841   3.755
  207POPC  H15Y27734   8.341   5.805   3.873
  207POPC  C31627735   8.162   5.888   3.963
  207POPC  H16X27736   8.053   5.895   3.942
  207POPC  H16Y27737   8.206   5.990   3.964
  207POPC  H16Z27738   8.174   5.844   4.064
  208POPC     N27739   9.012   4.130   2.311
  208POPC   C1227740   8.944   4.098   2.444
  208POPC  H12A27741   8.973   4.173   2.516
  208POPC  H12B27742   8.984   4.004   2.482
  208POPC   C1327743   8.977   4.023   2.213
  208POPC  H13A27744   9.023   3.929   2.242
  208POPC  H13B27745   8.869   4.009   2.215
  208POPC  H13C27746   9.011   4.046   2.114
  208POPC   C1427747   8.961   4.260   2.256
  208POPC  H14A27748   9.010   4.290   2.163
  208POPC  H14B27749   8.855   4.256   2.236
  208POPC  H14C27750   8.981   4.344   2.322
  208POPC   C1527751   9.162   4.141   2.322
  208POPC  H15A27752   9.211   4.045   2.331
  208POPC  H15B27753   9.192   4.206   2.403
  208POPC  H15C27754   9.199   4.188   2.231
  208POPC   C1127755   8.788   4.084   2.446
  208POPC  H11A27756   8.745   4.181   2.412
  208POPC  H11B27757   8.757   4.069   2.552
  208POPC     P27758   8.586   3.948   2.343
  208POPC   O1327759   8.571   3.806   2.302
  208POPC   O1427760   8.542   4.049   2.244
  208POPC   O1227761   8.742   3.975   2.367
  208POPC   O1127762   8.526   3.977   2.484
  208POPC    C127763   8.457   3.889   2.572
  208POPC    HA27764   8.464   3.782   2.542
  208POPC    HB27765   8.351   3.917   2.573
  208POPC    C227766   8.506   3.909   2.718
  208POPC    HS27767   8.430   3.868   2.789
  208POPC   O2127768   8.532   4.047   2.746
  208POPC   C2127769   8.430   4.130   2.746
  208POPC   O2227770   8.312   4.101   2.755
  208POPC   C2227771   8.490   4.270   2.758
  208POPC   H2R27772   8.404   4.340   2.771
  208POPC   H2S27773   8.542   4.293   2.663
  208POPC    C327774   8.639   3.835   2.739
  208POPC    HX27775   8.715   3.881   2.672
  208POPC    HY27776   8.625   3.732   2.702
  208POPC   O3127777   8.676   3.831   2.879
  208POPC   C3127778   8.764   3.922   2.914
  208POPC   O3227779   8.823   3.998   2.839
  208POPC   C3227780   8.785   3.917   3.066
  208POPC   H2X27781   8.853   3.832   3.089
  208POPC   H2Y27782   8.687   3.900   3.115
  208POPC   C2327783   8.586   4.274   2.879
  208POPC   H3R27784   8.679   4.217   2.857
  208POPC   H3S27785   8.535   4.220   2.962
  208POPC   C2427786   8.623   4.414   2.928
  208POPC   H4R27787   8.538   4.483   2.910
  208POPC   H4S27788   8.710   4.451   2.869
  208POPC   C2527789   8.657   4.418   3.079
  208POPC   H5R27790   8.685   4.523   3.105
  208POPC   H5S27791   8.746   4.354   3.098
  208POPC   C2627792   8.542   4.373   3.170
  208POPC   H6R27793   8.527   4.263   3.162
  208POPC   H6S27794   8.448   4.423   3.136
  208POPC   C2727795   8.565   4.408   3.318
  208POPC   H7R27796   8.583   4.518   3.321
  208POPC   H7S27797   8.656   4.357   3.355
  208POPC   C2827798   8.445   4.376   3.409
  208POPC   H8R27799   8.357   4.430   3.369
  208POPC   H8S27800   8.466   4.421   3.508
  208POPC   C2927801   8.411   4.229   3.423
  208POPC   H9127802   8.364   4.186   3.333
  208POPC  C21027803   8.432   4.148   3.529
  208POPC  H10127804   8.401   4.043   3.522
  208POPC  C21127805   8.495   4.184   3.662
  208POPC  H11R27806   8.539   4.285   3.657
  208POPC  H11S27807   8.580   4.116   3.682
  208POPC  C21227808   8.398   4.178   3.782
  208POPC  H12R27809   8.374   4.071   3.801
  208POPC  H12S27810   8.303   4.230   3.755
  208POPC  C21327811   8.450   4.240   3.913
  208POPC  H13R27812   8.405   4.187   3.999
  208POPC  H13S27813   8.417   4.346   3.922
  208POPC  C21427814   8.603   4.240   3.929
  208POPC  H14R27815   8.651   4.291   3.843
  208POPC  H14S27816   8.639   4.135   3.930
  208POPC  C21527817   8.648   4.313   4.056
  208POPC  H15R27818   8.604   4.258   4.143
  208POPC  H15S27819   8.609   4.417   4.057
  208POPC  C21627820   8.800   4.315   4.070
  208POPC  H16R27821   8.844   4.396   4.009
  208POPC  H16S27822   8.840   4.218   4.031
  208POPC  C21727823   8.844   4.326   4.216
  208POPC  H17R27824   8.954   4.313   4.217
  208POPC  H17S27825   8.799   4.240   4.271
  208POPC  C21827826   8.808   4.456   4.289
  208POPC  H18R27827   8.876   4.538   4.259
  208POPC  H18S27828   8.818   4.442   4.399
  208POPC  H18T27829   8.703   4.487   4.268
  208POPC   C3327830   8.846   4.049   3.115
  208POPC   H3X27831   8.776   4.133   3.091
  208POPC   H3Y27832   8.942   4.069   3.062
  208POPC   C3427833   8.874   4.051   3.266
  208POPC   H4X27834   8.951   3.975   3.290
  208POPC   H4Y27835   8.781   4.025   3.321
  208POPC   C3527836   8.924   4.190   3.311
  208POPC   H5X27837   8.843   4.264   3.296
  208POPC   H5Y27838   9.009   4.219   3.245
  208POPC   C3627839   8.972   4.194   3.456
  208POPC   H6X27840   9.020   4.292   3.475
  208POPC   H6Y27841   9.050   4.116   3.467
  208POPC   C3727842   8.860   4.173   3.559
  208POPC   H7X27843   8.803   4.080   3.536
  208POPC   H7Y27844   8.789   4.258   3.552
  208POPC   C3827845   8.914   4.164   3.703
  208POPC   H8X27846   8.829   4.169   3.774
  208POPC   H8Y27847   8.977   4.254   3.722
  208POPC   C3927848   8.995   4.036   3.731
  208POPC   H9X27849   9.055   4.051   3.823
  208POPC   H9Y27850   9.067   4.017   3.649
  208POPC  C31027851   8.906   3.913   3.751
  208POPC  H10X27852   8.961   3.821   3.720
  208POPC  H10Y27853   8.815   3.921   3.689
  208POPC  C31127854   8.868   3.900   3.899
  208POPC  H11X27855   8.834   4.000   3.935
  208POPC  H11Y27856   8.958   3.872   3.958
  208POPC  C31227857   8.755   3.801   3.928
  208POPC  H12X27858   8.781   3.698   3.895
  208POPC  H12Y27859   8.664   3.833   3.872
  208POPC  C31327860   8.726   3.805   4.078
  208POPC  H13X27861   8.735   3.910   4.113
  208POPC  H13Y27862   8.802   3.744   4.133
  208POPC  C31427863   8.586   3.757   4.113
  208POPC  H14X27864   8.594   3.647   4.123
  208POPC  H14Y27865   8.516   3.776   4.029
  208POPC  C31527866   8.527   3.823   4.239
  208POPC  H15X27867   8.431   3.773   4.266
  208POPC  H15Y27868   8.501   3.928   4.213
  208POPC  C31627869   8.618   3.825   4.362
  208POPC  H16X27870   8.562   3.859   4.452
  208POPC  H16Y27871   8.703   3.895   4.347
  208POPC  H16Z27872   8.660   3.724   4.382
  209POPC     N27873   0.698   3.303   2.167
  209POPC   C1227874   0.741   3.433   2.232
  209POPC  H12A27875   0.711   3.430   2.338
  209POPC  H12B27876   0.688   3.517   2.189
  209POPC   C1327877   0.662   3.323   2.023
  209POPC  H13A27878   0.567   3.372   2.012
  209POPC  H13B27879   0.738   3.381   1.971
  209POPC  H13C27880   0.654   3.226   1.973
  209POPC   C1427881   0.804   3.199   2.179
  209POPC  H14A27882   0.779   3.108   2.127
  209POPC  H14B27883   0.898   3.237   2.140
  209POPC  H14C27884   0.824   3.180   2.285
  209POPC   C1527885   0.581   3.254   2.243
  209POPC  H15A27886   0.609   3.242   2.348
  209POPC  H15B27887   0.545   3.158   2.207
  209POPC  H15C27888   0.501   3.328   2.240
  209POPC   C1127889   0.891   3.468   2.240
  209POPC  H11A27890   0.902   3.572   2.277
  209POPC  H11B27891   0.935   3.464   2.137
  209POPC     P27892   0.942   3.385   2.485
  209POPC   O1327893   1.050   3.470   2.540
  209POPC   O1427894   0.934   3.244   2.527
  209POPC   O1227895   0.959   3.378   2.326
  209POPC   O1127896   0.796   3.445   2.510
  209POPC    C127897   0.775   3.564   2.586
  209POPC    HA27898   0.678   3.609   2.555
  209POPC    HB27899   0.854   3.640   2.561
  209POPC    C227900   0.773   3.554   2.744
  209POPC    HS27901   0.786   3.660   2.777
  209POPC   O2127902   0.882   3.471   2.788
  209POPC   C2127903   0.930   3.510   2.906
  209POPC   O2227904   0.873   3.587   2.982
  209POPC   C2227905   1.068   3.451   2.933
  209POPC   H2R27906   1.144   3.531   2.923
  209POPC   H2S27907   1.087   3.376   2.852
  209POPC    C327908   0.642   3.501   2.811
  209POPC    HX27909   0.566   3.580   2.807
  209POPC    HY27910   0.663   3.490   2.920
  209POPC   O3127911   0.589   3.381   2.753
  209POPC   C3127912   0.550   3.291   2.842
  209POPC   O3227913   0.508   3.313   2.954
  209POPC   C3227914   0.587   3.157   2.786
  209POPC   H2X27915   0.647   3.168   2.693
  209POPC   H2Y27916   0.494   3.104   2.763
  209POPC   C2327917   1.079   3.378   3.070
  209POPC   H3R27918   1.159   3.300   3.059
  209POPC   H3S27919   0.982   3.328   3.088
  209POPC   C2427920   1.107   3.457   3.198
  209POPC   H4R27921   1.013   3.507   3.230
  209POPC   H4S27922   1.184   3.536   3.181
  209POPC   C2527923   1.156   3.362   3.310
  209POPC   H5R27924   1.249   3.313   3.273
  209POPC   H5S27925   1.082   3.282   3.328
  209POPC   C2627926   1.193   3.429   3.444
  209POPC   H6R27927   1.226   3.534   3.426
  209POPC   H6S27928   1.281   3.375   3.486
  209POPC   C2727929   1.083   3.423   3.552
  209POPC   H7R27930   1.127   3.457   3.648
  209POPC   H7S27931   1.052   3.317   3.567
  209POPC   C2827932   0.956   3.507   3.524
  209POPC   H8R27933   0.894   3.510   3.616
  209POPC   H8S27934   0.896   3.454   3.447
  209POPC   C2927935   0.987   3.646   3.477
  209POPC   H9127936   0.963   3.665   3.371
  209POPC  C21027937   1.034   3.748   3.552
  209POPC  H10127938   1.050   3.845   3.503
  209POPC  C21127939   1.065   3.747   3.699
  209POPC  H11R27940   1.162   3.797   3.720
  209POPC  H11S27941   1.071   3.644   3.741
  209POPC  C21227942   0.950   3.821   3.767
  209POPC  H12R27943   0.856   3.762   3.750
  209POPC  H12S27944   0.935   3.921   3.721
  209POPC  C21327945   0.966   3.847   3.916
  209POPC  H13R27946   1.047   3.920   3.934
  209POPC  H13S27947   0.995   3.756   3.971
  209POPC  C21427948   0.833   3.893   3.972
  209POPC  H14R27949   0.753   3.840   3.918
  209POPC  H14S27950   0.820   4.000   3.944
  209POPC  C21527951   0.807   3.874   4.122
  209POPC  H15R27952   0.890   3.914   4.184
  209POPC  H15S27953   0.798   3.765   4.143
  209POPC  C21627954   0.674   3.944   4.152
  209POPC  H16R27955   0.599   3.889   4.093
  209POPC  H16S27956   0.674   4.048   4.113
  209POPC  C21727957   0.624   3.945   4.296
  209POPC  H17R27958   0.516   3.959   4.294
  209POPC  H17S27959   0.660   4.034   4.351
  209POPC  C21827960   0.652   3.819   4.373
  209POPC  H18R27961   0.620   3.729   4.316
  209POPC  H18S27962   0.599   3.819   4.472
  209POPC  H18T27963   0.761   3.815   4.389
  209POPC   C3327964   0.669   3.086   2.895
  209POPC   H3X27965   0.689   2.985   2.857
  209POPC   H3Y27966   0.606   3.076   2.986
  209POPC   C3427967   0.803   3.156   2.928
  209POPC   H4X27968   0.788   3.265   2.942
  209POPC   H4Y27969   0.872   3.144   2.842
  209POPC   C3527970   0.868   3.103   3.057
  209POPC   H5X27971   0.973   3.138   3.067
  209POPC   H5Y27972   0.879   2.995   3.051
  209POPC   C3627973   0.787   3.139   3.181
  209POPC   H6X27974   0.685   3.095   3.168
  209POPC   H6Y27975   0.773   3.249   3.190
  209POPC   C3727976   0.843   3.084   3.312
  209POPC   H7X27977   0.890   3.165   3.371
  209POPC   H7Y27978   0.923   3.010   3.292
  209POPC   C3827979   0.731   3.017   3.393
  209POPC   H8X27980   0.772   2.972   3.486
  209POPC   H8Y27981   0.686   2.934   3.333
  209POPC   C3927982   0.617   3.112   3.429
  209POPC   H9X27983   0.547   3.051   3.488
  209POPC   H9Y27984   0.563   3.146   3.338
  209POPC  C31027985   0.657   3.231   3.515
  209POPC  H10X27986   0.574   3.305   3.514
  209POPC  H10Y27987   0.746   3.281   3.471
  209POPC  C31127988   0.683   3.186   3.658
  209POPC  H11X27989   0.733   3.087   3.662
  209POPC  H11Y27990   0.585   3.177   3.709
  209POPC  C31227991   0.766   3.286   3.736
  209POPC  H12X27992   0.728   3.388   3.710
  209POPC  H12Y27993   0.873   3.281   3.705
  209POPC  C31327994   0.753   3.266   3.887
  209POPC  H13X27995   0.802   3.172   3.921
  209POPC  H13Y27996   0.644   3.257   3.911
  209POPC  C31427997   0.808   3.387   3.959
  209POPC  H14X27998   0.743   3.415   4.044
  209POPC  H14Y27999   0.804   3.473   3.888
  209POPC  C31528000   0.951   3.372   4.009
  209POPC  H15X28001   1.016   3.333   3.926
  209POPC  H15Y28002   0.957   3.302   4.094
  209POPC  C31628003   0.999   3.510   4.047
  209POPC  H16X28004   1.108   3.518   4.062
  209POPC  H16Y28005   0.945   3.548   4.137
  209POPC  H16Z28006   0.971   3.573   3.960
  210POPC     N28007   2.315   1.452   2.206
  210POPC   C1228008   2.451   1.448   2.273
  210POPC  H12A28009   2.479   1.548   2.303
  210POPC  H12B28010   2.527   1.424   2.198
  210POPC   C1328011   2.213   1.495   2.306
  210POPC  H13A28012   2.118   1.519   2.259
  210POPC  H13B28013   2.194   1.412   2.376
  210POPC  H13C28014   2.249   1.579   2.362
  210POPC   C1428015   2.322   1.542   2.089
  210POPC  H14A28016   2.379   1.631   2.112
  210POPC  H14B28017   2.372   1.491   2.006
  210POPC  H14C28018   2.223   1.564   2.052
  210POPC   C1528019   2.277   1.316   2.155
  210POPC  H15A28020   2.176   1.311   2.117
  210POPC  H15B28021   2.281   1.246   2.239
  210POPC  H15C28022   2.346   1.276   2.081
  210POPC   C1128023   2.476   1.352   2.391
  210POPC  H11A28024   2.394   1.355   2.467
  210POPC  H11B28025   2.570   1.384   2.442
  210POPC     P28026   2.422   1.094   2.380
  210POPC   O1328027   2.488   1.045   2.503
  210POPC   O1428028   2.423   1.006   2.259
  210POPC   O1228029   2.497   1.225   2.335
  210POPC   O1128030   2.274   1.146   2.406
  210POPC    C128031   2.162   1.075   2.351
  210POPC    HA28032   2.188   0.982   2.295
  210POPC    HB28033   2.107   1.141   2.280
  210POPC    C228034   2.057   1.034   2.457
  210POPC    HS28035   1.959   1.019   2.406
  210POPC   O2128036   2.038   1.130   2.561
  210POPC   C2128037   2.006   1.254   2.531
  210POPC   O2228038   1.979   1.299   2.420
  210POPC   C2228039   2.009   1.335   2.661
  210POPC   H2R28040   1.919   1.308   2.721
  210POPC   H2S28041   2.002   1.442   2.635
  210POPC    C328042   2.092   0.897   2.524
  210POPC    HX28043   2.063   0.818   2.450
  210POPC    HY28044   2.022   0.888   2.610
  210POPC   O3128045   2.229   0.868   2.562
  210POPC   C3128046   2.280   0.927   2.670
  210POPC   O3228047   2.236   1.027   2.723
  210POPC   C3228048   2.391   0.842   2.734
  210POPC   H2X28049   2.469   0.822   2.658
  210POPC   H2Y28050   2.341   0.747   2.764
  210POPC   C2328051   2.139   1.306   2.739
  210POPC   H3R28052   2.221   1.286   2.666
  210POPC   H3S28053   2.125   1.213   2.798
  210POPC   C2428054   2.192   1.416   2.833
  210POPC   H4R28055   2.169   1.515   2.789
  210POPC   H4S28056   2.303   1.405   2.839
  210POPC   C2528057   2.134   1.404   2.974
  210POPC   H5R28058   2.114   1.296   2.992
  210POPC   H5S28059   2.036   1.456   2.980
  210POPC   C2628060   2.225   1.443   3.091
  210POPC   H6R28061   2.268   1.544   3.080
  210POPC   H6S28062   2.310   1.371   3.092
  210POPC   C2728063   2.145   1.438   3.222
  210POPC   H7R28064   2.069   1.356   3.215
  210POPC   H7S28065   2.088   1.533   3.229
  210POPC   C2828066   2.224   1.418   3.353
  210POPC   H8R28067   2.215   1.316   3.394
  210POPC   H8S28068   2.170   1.478   3.429
  210POPC   C2928069   2.370   1.453   3.338
  210POPC   H9128070   2.435   1.376   3.293
  210POPC  C21028071   2.421   1.572   3.372
  210POPC  H10128072   2.526   1.596   3.351
  210POPC  C21128073   2.334   1.680   3.429
  210POPC  H11R28074   2.244   1.692   3.364
  210POPC  H11S28075   2.388   1.776   3.428
  210POPC  C21228076   2.282   1.650   3.572
  210POPC  H12R28077   2.300   1.544   3.601
  210POPC  H12S28078   2.172   1.666   3.573
  210POPC  C21328079   2.345   1.740   3.677
  210POPC  H13R28080   2.339   1.846   3.642
  210POPC  H13S28081   2.452   1.715   3.683
  210POPC  C21428082   2.278   1.731   3.814
  210POPC  H14R28083   2.168   1.748   3.803
  210POPC  H14S28084   2.317   1.815   3.876
  210POPC  C21528085   2.304   1.602   3.893
  210POPC  H15R28086   2.227   1.525   3.868
  210POPC  H15S28087   2.292   1.629   4.000
  210POPC  C21628088   2.444   1.543   3.872
  210POPC  H16R28089   2.516   1.627   3.869
  210POPC  H16S28090   2.450   1.491   3.774
  210POPC  C21728091   2.488   1.447   3.984
  210POPC  H17R28092   2.437   1.349   3.968
  210POPC  H17S28093   2.455   1.488   4.082
  210POPC  C21828094   2.639   1.424   3.992
  210POPC  H18R28095   2.666   1.368   4.084
  210POPC  H18S28096   2.694   1.519   3.998
  210POPC  H18T28097   2.675   1.367   3.904
  210POPC   C3328098   2.453   0.906   2.862
  210POPC   H3X28099   2.373   0.959   2.917
  210POPC   H3Y28100   2.526   0.985   2.833
  210POPC   C3428101   2.516   0.804   2.960
  210POPC   H4X28102   2.624   0.793   2.934
  210POPC   H4Y28103   2.468   0.705   2.942
  210POPC   C3528104   2.504   0.838   3.110
  210POPC   H5X28105   2.449   0.932   3.125
  210POPC   H5Y28106   2.606   0.867   3.145
  210POPC   C3628107   2.453   0.724   3.205
  210POPC   H6X28108   2.513   0.722   3.297
  210POPC   H6Y28109   2.483   0.632   3.150
  210POPC   C3728110   2.301   0.711   3.246
  210POPC   H7X28111   2.282   0.604   3.257
  210POPC   H7Y28112   2.234   0.741   3.165
  210POPC   C3828113   2.247   0.742   3.389
  210POPC   H8X28114   2.294   0.831   3.430
  210POPC   H8Y28115   2.270   0.653   3.452
  210POPC   C3928116   2.094   0.757   3.410
  210POPC   H9X28117   2.052   0.654   3.405
  210POPC   H9Y28118   2.042   0.812   3.329
  210POPC  C31028119   2.049   0.814   3.547
  210POPC  H10X28120   2.072   0.739   3.625
  210POPC  H10Y28121   1.939   0.823   3.539
  210POPC  C31128122   2.090   0.954   3.600
  210POPC  H11X28123   2.037   1.035   3.548
  210POPC  H11Y28124   2.194   0.974   3.579
  210POPC  C31228125   2.074   0.961   3.754
  210POPC  H12X28126   2.138   0.883   3.801
  210POPC  H12Y28127   1.969   0.932   3.775
  210POPC  C31328128   2.097   1.096   3.825
  210POPC  H13X28129   2.048   1.089   3.926
  210POPC  H13Y28130   2.045   1.177   3.771
  210POPC  C31428131   2.242   1.143   3.845
  210POPC  H14X28132   2.236   1.245   3.891
  210POPC  H14Y28133   2.292   1.154   3.747
  210POPC  C31528134   2.325   1.056   3.939
  210POPC  H15X28135   2.423   1.108   3.955
  210POPC  H15Y28136   2.348   0.959   3.889
  210POPC  C31628137   2.260   1.030   4.075
  210POPC  H16X28138   2.175   0.959   4.067
  210POPC  H16Y28139   2.223   1.125   4.120
  210POPC  H16Z28140   2.333   0.987   4.147
  211POPC     N28141   6.235   0.675   2.276
  211POPC   C1228142   6.251   0.782   2.169
  211POPC  H12A28143   6.155   0.806   2.126
  211POPC  H12B28144   6.311   0.743   2.086
  211POPC   C1328145   6.148   0.565   2.228
  211POPC  H13A28146   6.130   0.489   2.305
  211POPC  H13B28147   6.049   0.600   2.202
  211POPC  H13C28148   6.190   0.514   2.143
  211POPC   C1428149   6.371   0.623   2.312
  211POPC  H14A28150   6.431   0.710   2.341
  211POPC  H14B28151   6.367   0.557   2.396
  211POPC  H14C28152   6.418   0.578   2.226
  211POPC   C1528153   6.182   0.736   2.401
  211POPC  H15A28154   6.087   0.784   2.387
  211POPC  H15B28155   6.255   0.813   2.429
  211POPC  H15C28156   6.181   0.669   2.485
  211POPC   C1128157   6.322   0.913   2.214
  211POPC  H11A28158   6.263   0.964   2.294
  211POPC  H11B28159   6.323   0.983   2.127
  211POPC     P28160   6.526   0.951   2.381
  211POPC   O1328161   6.501   1.097   2.376
  211POPC   O1428162   6.666   0.903   2.385
  211POPC   O1228163   6.456   0.886   2.252
  211POPC   O1128164   6.443   0.888   2.500
  211POPC    C128165   6.346   0.959   2.577
  211POPC    HA28166   6.284   0.886   2.633
  211POPC    HB28167   6.278   1.018   2.511
  211POPC    C228168   6.405   1.055   2.684
  211POPC    HS28169   6.476   1.122   2.631
  211POPC   O2128170   6.474   0.978   2.784
  211POPC   C2128171   6.551   1.045   2.869
  211POPC   O2228172   6.547   1.165   2.890
  211POPC   C2228173   6.648   0.949   2.939
  211POPC   H2R28174   6.701   0.891   2.860
  211POPC   H2S28175   6.587   0.880   3.001
  211POPC    C328176   6.288   1.141   2.743
  211POPC    HX28177   6.249   1.205   2.660
  211POPC    HY28178   6.328   1.209   2.821
  211POPC   O3128179   6.180   1.056   2.790
  211POPC   C3128180   6.107   1.111   2.888
  211POPC   O3228181   6.117   1.227   2.924
  211POPC   C3228182   6.011   1.007   2.947
  211POPC   H2X28183   6.026   0.911   2.894
  211POPC   H2Y28184   5.907   1.041   2.928
  211POPC   C2328185   6.749   1.028   3.027
  211POPC   H3R28186   6.694   1.107   3.082
  211POPC   H3S28187   6.823   1.078   2.962
  211POPC   C2428188   6.820   0.943   3.133
  211POPC   H4R28189   6.868   0.857   3.080
  211POPC   H4S28190   6.747   0.900   3.204
  211POPC   C2528191   6.932   1.018   3.209
  211POPC   H5R28192   6.995   1.073   3.135
  211POPC   H5S28193   6.998   0.941   3.256
  211POPC   C2628194   6.894   1.117   3.321
  211POPC   H6R28195   6.858   1.212   3.277
  211POPC   H6S28196   6.989   1.142   3.375
  211POPC   C2728197   6.791   1.069   3.425
  211POPC   H7R28198   6.834   0.983   3.482
  211POPC   H7S28199   6.700   1.033   3.372
  211POPC   C2828200   6.748   1.181   3.522
  211POPC   H8R28201   6.671   1.141   3.591
  211POPC   H8S28202   6.693   1.257   3.465
  211POPC   C2928203   6.863   1.244   3.597
  211POPC   H9128204   6.913   1.328   3.547
  211POPC  C21028205   6.906   1.202   3.717
  211POPC  H10128206   6.991   1.252   3.766
  211POPC  C21128207   6.845   1.087   3.792
  211POPC  H11R28208   6.921   1.010   3.812
  211POPC  H11S28209   6.766   1.033   3.736
  211POPC  C21228210   6.789   1.128   3.928
  211POPC  H12R28211   6.709   1.203   3.914
  211POPC  H12S28212   6.868   1.176   3.989
  211POPC  C21328213   6.738   1.003   4.000
  211POPC  H13R28214   6.794   0.916   3.960
  211POPC  H13S28215   6.632   0.986   3.974
  211POPC  C21428216   6.759   1.004   4.151
  211POPC  H14R28217   6.684   1.071   4.200
  211POPC  H14S28218   6.860   1.046   4.173
  211POPC  C21528219   6.752   0.861   4.209
  211POPC  H15R28220   6.839   0.845   4.277
  211POPC  H15S28221   6.758   0.786   4.127
  211POPC  C21628222   6.623   0.842   4.288
  211POPC  H16R28223   6.537   0.867   4.221
  211POPC  H16S28224   6.628   0.917   4.370
  211POPC  C21728225   6.598   0.704   4.350
  211POPC  H17R28226   6.609   0.625   4.273
  211POPC  H17S28227   6.492   0.701   4.385
  211POPC  C21828228   6.688   0.674   4.470
  211POPC  H18R28229   6.659   0.579   4.519
  211POPC  H18S28230   6.680   0.756   4.545
  211POPC  H18T28231   6.794   0.668   4.439
  211POPC   C3328232   6.032   0.986   3.099
  211POPC   H3X28233   5.962   0.906   3.131
  211POPC   H3Y28234   6.006   1.078   3.156
  211POPC   C3428235   6.176   0.941   3.130
  211POPC   H4X28236   6.241   1.030   3.143
  211POPC   H4Y28237   6.213   0.885   3.042
  211POPC   C3528238   6.190   0.850   3.252
  211POPC   H5X28239   6.102   0.781   3.258
  211POPC   H5Y28240   6.191   0.911   3.345
  211POPC   C3628241   6.317   0.764   3.240
  211POPC   H6X28242   6.405   0.830   3.228
  211POPC   H6Y28243   6.308   0.703   3.147
  211POPC   C3728244   6.340   0.667   3.357
  211POPC   H7X28245   6.430   0.606   3.334
  211POPC   H7Y28246   6.252   0.598   3.364
  211POPC   C3828247   6.360   0.733   3.493
  211POPC   H8X28248   6.375   0.654   3.570
  211POPC   H8Y28249   6.266   0.787   3.520
  211POPC   C3928250   6.480   0.829   3.495
  211POPC   H9X28251   6.472   0.905   3.415
  211POPC   H9Y28252   6.573   0.770   3.477
  211POPC  C31028253   6.492   0.903   3.628
  211POPC  H10X28254   6.591   0.952   3.634
  211POPC  H10Y28255   6.488   0.828   3.710
  211POPC  C31128256   6.382   1.010   3.643
  211POPC  H11X28257   6.282   0.966   3.623
  211POPC  H11Y28258   6.400   1.089   3.567
  211POPC  C31228259   6.379   1.073   3.782
  211POPC  H12X28260   6.300   1.152   3.785
  211POPC  H12Y28261   6.477   1.121   3.798
  211POPC  C31328262   6.354   0.970   3.894
  211POPC  H13X28263   6.440   0.970   3.962
  211POPC  H13Y28264   6.345   0.868   3.852
  211POPC  C31428265   6.231   0.998   3.980
  211POPC  H14X28266   6.141   0.961   3.926
  211POPC  H14Y28267   6.219   1.108   3.996
  211POPC  C31528268   6.242   0.931   4.118
  211POPC  H15X28269   6.147   0.947   4.174
  211POPC  H15Y28270   6.323   0.982   4.175
  211POPC  C31628271   6.274   0.781   4.114
  211POPC  H16X28272   6.266   0.737   4.216
  211POPC  H16Y28273   6.377   0.764   4.077
  211POPC  H16Z28274   6.204   0.727   4.046
  212POPC     N28275   3.651   0.466   2.281
  212POPC   C1228276   3.618   0.602   2.220
  212POPC  H12A28277   3.511   0.615   2.216
  212POPC  H12B28278   3.651   0.603   2.116
  212POPC   C1328279   3.796   0.434   2.269
  212POPC  H13A28280   3.826   0.430   2.165
  212POPC  H13B28281   3.854   0.514   2.315
  212POPC  H13C28282   3.818   0.341   2.318
  212POPC   C1428283   3.610   0.460   2.425
  212POPC  H14A28284   3.505   0.484   2.435
  212POPC  H14B28285   3.624   0.361   2.466
  212POPC  H14C28286   3.668   0.532   2.484
  212POPC   C1528287   3.573   0.366   2.205
  212POPC  H15A28288   3.588   0.267   2.244
  212POPC  H15B28289   3.600   0.366   2.099
  212POPC  H15C28290   3.467   0.389   2.210
  212POPC   C1128291   3.677   0.728   2.283
  212POPC  H11A28292   3.650   0.726   2.391
  212POPC  H11B28293   3.626   0.818   2.241
  212POPC     P28294   3.924   0.764   2.365
  212POPC   O1328295   3.957   0.909   2.360
  212POPC   O1428296   4.035   0.668   2.351
  212POPC   O1228297   3.816   0.734   2.255
  212POPC   O1128298   3.843   0.730   2.494
  212POPC    C128299   3.864   0.801   2.615
  212POPC    HA28300   3.843   0.910   2.604
  212POPC    HB28301   3.969   0.790   2.650
  212POPC    C228302   3.767   0.741   2.719
  212POPC    HS28303   3.792   0.780   2.820
  212POPC   O2128304   3.770   0.597   2.720
  212POPC   C2128305   3.885   0.540   2.744
  212POPC   O2228306   3.989   0.593   2.780
  212POPC   C2228307   3.864   0.390   2.733
  212POPC   H2R28308   3.955   0.347   2.687
  212POPC   H2S28309   3.777   0.368   2.669
  212POPC    C328310   3.621   0.783   2.688
  212POPC    HX28311   3.606   0.775   2.578
  212POPC    HY28312   3.606   0.890   2.713
  212POPC   O3128313   3.524   0.697   2.751
  212POPC   C3128314   3.529   0.701   2.884
  212POPC   O3228315   3.585   0.788   2.949
  212POPC   C3228316   3.456   0.581   2.943
  212POPC   H2X28317   3.443   0.507   2.861
  212POPC   H2Y28318   3.356   0.614   2.977
  212POPC   C2328319   3.841   0.333   2.875
  212POPC   H3R28320   3.739   0.358   2.910
  212POPC   H3S28321   3.913   0.382   2.945
  212POPC   C2428322   3.861   0.181   2.885
  212POPC   H4R28323   3.915   0.144   2.796
  212POPC   H4S28324   3.763   0.130   2.888
  212POPC   C2528325   3.942   0.146   3.010
  212POPC   H5R28326   4.024   0.219   3.015
  212POPC   H5S28327   3.983   0.043   3.005
  212POPC   C2628328   3.878   0.175   3.144
  212POPC   H6R28329   3.772   0.193   3.126
  212POPC   H6S28330   3.918   0.272   3.180
  212POPC   C2728331   3.910   0.060   3.243
  212POPC   H7R28332   4.021   0.044   3.240
  212POPC   H7S28333   3.863  -0.033   3.205
  212POPC   C2828334   3.870   0.079   3.391
  212POPC   H8R28335   3.960   0.064   3.455
  212POPC   H8S28336   3.801  -0.002   3.419
  212POPC   C2928337   3.807   0.212   3.419
  212POPC   H9128338   3.697   0.215   3.428
  212POPC  C21028339   3.877   0.324   3.432
  212POPC  H10128340   3.823   0.418   3.449
  212POPC  C21128341   4.028   0.333   3.421
  212POPC  H11R28342   4.071   0.252   3.358
  212POPC  H11S28343   4.075   0.320   3.521
  212POPC  C21228344   4.071   0.467   3.362
  212POPC  H12R28345   4.036   0.476   3.257
  212POPC  H12S28346   4.182   0.469   3.360
  212POPC  C21328347   4.022   0.590   3.441
  212POPC  H13R28348   3.912   0.601   3.437
  212POPC  H13S28349   4.064   0.678   3.389
  212POPC  C21428350   4.068   0.588   3.588
  212POPC  H14R28351   4.080   0.691   3.627
  212POPC  H14S28352   4.168   0.539   3.595
  212POPC  C21528353   3.970   0.520   3.683
  212POPC  H15R28354   3.928   0.426   3.644
  212POPC  H15S28355   3.883   0.588   3.700
  212POPC  C21628356   4.032   0.478   3.815
  212POPC  H16R28357   3.942   0.444   3.871
  212POPC  H16S28358   4.080   0.564   3.866
  212POPC  C21728359   4.120   0.353   3.817
  212POPC  H17R28360   4.208   0.372   3.883
  212POPC  H17S28361   4.160   0.330   3.715
  212POPC  C21828362   4.043   0.232   3.872
  212POPC  H18R28363   3.989   0.260   3.966
  212POPC  H18S28364   4.111   0.147   3.896
  212POPC  H18T28365   3.966   0.199   3.798
  212POPC   C3328366   3.538   0.515   3.057
  212POPC   H3X28367   3.643   0.501   3.025
  212POPC   H3Y28368   3.496   0.414   3.076
  212POPC   C3428369   3.540   0.593   3.190
  212POPC   H4X28370   3.567   0.699   3.172
  212POPC   H4Y28371   3.620   0.549   3.254
  212POPC   C3528372   3.408   0.585   3.268
  212POPC   H5X28373   3.388   0.478   3.290
  212POPC   H5Y28374   3.324   0.625   3.206
  212POPC   C3628375   3.410   0.656   3.404
  212POPC   H6X28376   3.495   0.616   3.464
  212POPC   H6Y28377   3.315   0.629   3.457
  212POPC   C3728378   3.419   0.809   3.398
  212POPC   H7X28379   3.322   0.849   3.362
  212POPC   H7Y28380   3.497   0.839   3.324
  212POPC   C3828381   3.454   0.871   3.534
  212POPC   H8X28382   3.459   0.982   3.523
  212POPC   H8Y28383   3.556   0.836   3.563
  212POPC   C3928384   3.354   0.836   3.645
  212POPC   H9X28385   3.351   0.726   3.661
  212POPC   H9Y28386   3.252   0.867   3.611
  212POPC  C31028387   3.382   0.905   3.779
  212POPC  H10X28388   3.295   0.889   3.847
  212POPC  H10Y28389   3.391   1.015   3.762
  212POPC  C31128390   3.509   0.856   3.849
  212POPC  H11X28391   3.595   0.861   3.779
  212POPC  H11Y28392   3.498   0.750   3.881
  212POPC  C31228393   3.544   0.943   3.971
  212POPC  H12X28394   3.472   0.921   4.053
  212POPC  H12Y28395   3.534   1.050   3.944
  212POPC  C31328396   3.686   0.915   4.020
  212POPC  H13X28397   3.757   0.947   3.940
  212POPC  H13Y28398   3.695   0.805   4.030
  212POPC  C31428399   3.729   0.977   4.154
  212POPC  H14X28400   3.655   0.952   4.233
  212POPC  H14Y28401   3.734   1.088   4.145
  212POPC  C31528402   3.866   0.917   4.192
  212POPC  H15X28403   3.933   0.926   4.103
  212POPC  H15Y28404   3.850   0.808   4.207
  212POPC  C31628405   3.934   0.973   4.318
  212POPC  H16X28406   3.992   0.891   4.368
  212POPC  H16Y28407   3.858   1.013   4.389
  212POPC  H16Z28408   4.006   1.055   4.295
  213POPC     N28409   7.592   1.562   2.212
  213POPC   C1228410   7.522   1.671   2.291
  213POPC  H12A28411   7.418   1.670   2.265
  213POPC  H12B28412   7.564   1.768   2.260
  213POPC   C1328413   7.552   1.425   2.258
  213POPC  H13A28414   7.612   1.348   2.208
  213POPC  H13B28415   7.572   1.416   2.364
  213POPC  H13C28416   7.447   1.402   2.240
  213POPC   C1428417   7.566   1.580   2.066
  213POPC  H14A28418   7.461   1.573   2.041
  213POPC  H14B28419   7.608   1.673   2.031
  213POPC  H14C28420   7.612   1.498   2.010
  213POPC   C1528421   7.739   1.572   2.235
  213POPC  H15A28422   7.794   1.499   2.179
  213POPC  H15B28423   7.757   1.558   2.342
  213POPC  H15C28424   7.772   1.674   2.215
  213POPC   C1128425   7.538   1.674   2.446
  213POPC  H11A28426   7.500   1.578   2.488
  213POPC  H11B28427   7.472   1.754   2.488
  213POPC     P28428   7.746   1.832   2.455
  213POPC   O1328429   7.683   1.941   2.533
  213POPC   O1428430   7.744   1.848   2.307
  213POPC   O1228431   7.673   1.694   2.488
  213POPC   O1128432   7.896   1.808   2.502
  213POPC    C128433   7.958   1.678   2.500
  213POPC    HA28434   8.046   1.682   2.432
  213POPC    HB28435   7.890   1.600   2.460
  213POPC    C228436   8.006   1.625   2.639
  213POPC    HS28437   8.035   1.518   2.627
  213POPC   O2128438   7.903   1.637   2.738
  213POPC   C2128439   7.804   1.552   2.724
  213POPC   O2228440   7.797   1.459   2.645
  213POPC   C2228441   7.694   1.589   2.825
  213POPC   H2R28442   7.668   1.695   2.804
  213POPC   H2S28443   7.735   1.581   2.927
  213POPC    C328444   8.135   1.697   2.693
  213POPC    HX28445   8.214   1.687   2.615
  213POPC    HY28446   8.169   1.641   2.783
  213POPC   O3128447   8.113   1.837   2.720
  213POPC   C3128448   8.078   1.866   2.845
  213POPC   O3228449   8.096   1.795   2.943
  213POPC   C3228450   8.009   2.003   2.846
  213POPC   H2X28451   8.059   2.066   2.769
  213POPC   H2Y28452   8.026   2.049   2.945
  213POPC   C2328453   7.568   1.501   2.808
  213POPC   H3R28454   7.595   1.396   2.834
  213POPC   H3S28455   7.539   1.503   2.701
  213POPC   C2428456   7.447   1.547   2.891
  213POPC   H4R28457   7.357   1.491   2.857
  213POPC   H4S28458   7.428   1.655   2.871
  213POPC   C2528459   7.461   1.526   3.042
  213POPC   H5R28460   7.365   1.556   3.092
  213POPC   H5S28461   7.541   1.593   3.080
  213POPC   C2628462   7.493   1.381   3.083
  213POPC   H6R28463   7.596   1.355   3.048
  213POPC   H6S28464   7.422   1.311   3.034
  213POPC   C2728465   7.487   1.357   3.234
  213POPC   H7R28466   7.526   1.255   3.254
  213POPC   H7S28467   7.381   1.359   3.268
  213POPC   C2828468   7.568   1.461   3.312
  213POPC   H8R28469   7.516   1.559   3.303
  213POPC   H8S28470   7.667   1.473   3.262
  213POPC   C2928471   7.584   1.423   3.456
  213POPC   H9128472   7.494   1.437   3.519
  213POPC  C21028473   7.697   1.381   3.513
  213POPC  H10128474   7.696   1.357   3.621
  213POPC  C21128475   7.832   1.361   3.447
  213POPC  H11R28476   7.823   1.338   3.338
  213POPC  H11S28477   7.881   1.273   3.493
  213POPC  C21228478   7.925   1.484   3.466
  213POPC  H12R28479   7.918   1.552   3.378
  213POPC  H12S28480   8.030   1.446   3.470
  213POPC  C21328481   7.893   1.561   3.595
  213POPC  H13R28482   7.865   1.485   3.668
  213POPC  H13S28483   7.801   1.621   3.587
  213POPC  C21428484   8.001   1.651   3.656
  213POPC  H14R28485   8.005   1.745   3.598
  213POPC  H14S28486   8.099   1.600   3.653
  213POPC  C21528487   7.960   1.688   3.800
  213POPC  H15R28488   7.886   1.611   3.830
  213POPC  H15S28489   7.906   1.784   3.800
  213POPC  C21628490   8.072   1.699   3.904
  213POPC  H16R28491   8.101   1.806   3.907
  213POPC  H16S28492   8.162   1.644   3.871
  213POPC  C21728493   8.036   1.661   4.048
  213POPC  H17R28494   8.067   1.745   4.114
  213POPC  H17S28495   8.098   1.573   4.077
  213POPC  C21828496   7.888   1.631   4.077
  213POPC  H18R28497   7.869   1.606   4.183
  213POPC  H18S28498   7.853   1.545   4.016
  213POPC  H18T28499   7.827   1.719   4.051
  213POPC   C3328500   7.857   1.996   2.816
  213POPC   H3X28501   7.831   1.904   2.761
  213POPC   H3Y28502   7.832   2.081   2.748
  213POPC   C3428503   7.769   2.010   2.941
  213POPC   H4X28504   7.663   2.026   2.910
  213POPC   H4Y28505   7.801   2.100   2.998
  213POPC   C3528506   7.774   1.887   3.032
  213POPC   H5X28507   7.880   1.858   3.049
  213POPC   H5Y28508   7.724   1.802   2.981
  213POPC   C3628509   7.707   1.908   3.168
  213POPC   H6X28510   7.598   1.925   3.154
  213POPC   H6Y28511   7.750   1.998   3.217
  213POPC   C3728512   7.728   1.786   3.258
  213POPC   H7X28513   7.837   1.763   3.260
  213POPC   H7Y28514   7.678   1.698   3.214
  213POPC   C3828515   7.682   1.805   3.403
  213POPC   H8X28516   7.741   1.886   3.451
  213POPC   H8Y28517   7.706   1.709   3.452
  213POPC   C3928518   7.532   1.827   3.427
  213POPC   H9X28519   7.475   1.737   3.398
  213POPC   H9Y28520   7.497   1.912   3.364
  213POPC  C31028521   7.501   1.861   3.574
  213POPC  H10X28522   7.393   1.887   3.584
  213POPC  H10Y28523   7.559   1.952   3.599
  213POPC  C31128524   7.534   1.751   3.677
  213POPC  H11X28525   7.567   1.658   3.625
  213POPC  H11Y28526   7.444   1.725   3.736
  213POPC  C31228527   7.645   1.796   3.773
  213POPC  H12X28528   7.729   1.833   3.710
  213POPC  H12Y28529   7.680   1.710   3.833
  213POPC  C31328530   7.600   1.909   3.866
  213POPC  H13X28531   7.524   1.867   3.934
  213POPC  H13Y28532   7.551   1.990   3.809
  213POPC  C31428533   7.713   1.970   3.949
  213POPC  H14X28534   7.795   2.002   3.881
  213POPC  H14Y28535   7.755   1.895   4.018
  213POPC  C31528536   7.668   2.088   4.034
  213POPC  H15X28537   7.589   2.052   4.103
  213POPC  H15Y28538   7.618   2.166   3.972
  213POPC  C31628539   7.784   2.150   4.113
  213POPC  H16X28540   7.747   2.226   4.185
  213POPC  H16Y28541   7.856   2.199   4.043
  213POPC  H16Z28542   7.840   2.072   4.169
  214POPC     N28543   6.481   8.576   2.130
  214POPC   C1228544   6.507   8.718   2.181
  214POPC  H12A28545   6.427   8.747   2.249
  214POPC  H12B28546   6.507   8.788   2.099
  214POPC   C1328547   6.411   8.499   2.239
  214POPC  H13A28548   6.479   8.485   2.324
  214POPC  H13B28549   6.326   8.553   2.279
  214POPC  H13C28550   6.379   8.401   2.207
  214POPC   C1428551   6.397   8.574   2.005
  214POPC  H14A28552   6.300   8.618   2.021
  214POPC  H14B28553   6.446   8.626   1.923
  214POPC  H14C28554   6.380   8.472   1.970
  214POPC   C1528555   6.611   8.505   2.106
  214POPC  H15A28556   6.664   8.505   2.202
  214POPC  H15B28557   6.674   8.556   2.036
  214POPC  H15C28558   6.594   8.403   2.076
  214POPC   C1128559   6.637   8.744   2.262
  214POPC  H11A28560   6.642   8.851   2.293
  214POPC  H11B28561   6.727   8.727   2.200
  214POPC     P28562   6.550   8.694   2.501
  214POPC   O1328563   6.517   8.567   2.569
  214POPC   O1428564   6.437   8.777   2.453
  214POPC   O1228565   6.642   8.659   2.375
  214POPC   O1128566   6.648   8.781   2.590
  214POPC    C128567   6.781   8.734   2.611
  214POPC    HA28568   6.845   8.822   2.633
  214POPC    HB28569   6.824   8.684   2.522
  214POPC    C228570   6.786   8.640   2.734
  214POPC    HS28571   6.703   8.566   2.726
  214POPC   O2128572   6.774   8.729   2.848
  214POPC   C2128573   6.669   8.701   2.926
  214POPC   O2228574   6.612   8.595   2.930
  214POPC   C2228575   6.631   8.822   3.014
  214POPC   H2R28576   6.652   8.914   2.955
  214POPC   H2S28577   6.696   8.822   3.103
  214POPC    C328578   6.918   8.557   2.734
  214POPC    HX28579   7.000   8.623   2.700
  214POPC    HY28580   6.910   8.475   2.659
  214POPC   O3128581   6.951   8.507   2.863
  214POPC   C3128582   6.879   8.404   2.909
  214POPC   O3228583   6.809   8.329   2.844
  214POPC   C3228584   6.902   8.405   3.060
  214POPC   H2X28585   6.986   8.474   3.083
  214POPC   H2Y28586   6.931   8.303   3.084
  214POPC   C2328587   6.482   8.822   3.057
  214POPC   H3R28588   6.420   8.803   2.967
  214POPC   H3S28589   6.455   8.923   3.095
  214POPC   C2428590   6.441   8.718   3.165
  214POPC   H4R28591   6.481   8.618   3.136
  214POPC   H4S28592   6.330   8.710   3.163
  214POPC   C2528593   6.483   8.751   3.309
  214POPC   H5R28594   6.450   8.853   3.337
  214POPC   H5S28595   6.594   8.748   3.314
  214POPC   C2628596   6.427   8.649   3.411
  214POPC   H6R28597   6.456   8.549   3.371
  214POPC   H6S28598   6.316   8.651   3.409
  214POPC   C2728599   6.475   8.667   3.556
  214POPC   H7R28600   6.409   8.739   3.610
  214POPC   H7S28601   6.573   8.716   3.559
  214POPC   C2828602   6.492   8.539   3.641
  214POPC   H8R28603   6.394   8.516   3.683
  214POPC   H8S28604   6.555   8.565   3.729
  214POPC   C2928605   6.546   8.417   3.569
  214POPC   H9128606   6.478   8.372   3.494
  214POPC  C21028607   6.665   8.358   3.592
  214POPC  H10128608   6.693   8.269   3.534
  214POPC  C21128609   6.765   8.402   3.696
  214POPC  H11R28610   6.764   8.512   3.712
  214POPC  H11S28611   6.868   8.374   3.664
  214POPC  C21228612   6.727   8.328   3.826
  214POPC  H12R28613   6.739   8.220   3.800
  214POPC  H12S28614   6.621   8.347   3.852
  214POPC  C21328615   6.813   8.344   3.952
  214POPC  H13R28616   6.921   8.350   3.929
  214POPC  H13S28617   6.801   8.248   4.008
  214POPC  C21428618   6.774   8.451   4.055
  214POPC  H14R28619   6.864   8.513   4.071
  214POPC  H14S28620   6.754   8.402   4.153
  214POPC  C21528621   6.659   8.549   4.028
  214POPC  H15R28622   6.559   8.503   4.031
  214POPC  H15S28623   6.666   8.587   3.924
  214POPC  C21628624   6.669   8.658   4.136
  214POPC  H16R28625   6.732   8.745   4.110
  214POPC  H16S28626   6.721   8.611   4.222
  214POPC  C21728627   6.540   8.713   4.192
  214POPC  H17R28628   6.472   8.628   4.216
  214POPC  H17S28629   6.491   8.776   4.116
  214POPC  C21828630   6.571   8.794   4.318
  214POPC  H18R28631   6.479   8.822   4.372
  214POPC  H18S28632   6.628   8.886   4.292
  214POPC  H18T28633   6.636   8.734   4.386
  214POPC   C3328634   6.778   8.442   3.144
  214POPC   H3X28635   6.696   8.371   3.122
  214POPC   H3Y28636   6.743   8.544   3.118
  214POPC   C3428637   6.806   8.440   3.295
  214POPC   H4X28638   6.826   8.335   3.325
  214POPC   H4Y28639   6.714   8.474   3.347
  214POPC   C3528640   6.924   8.527   3.342
  214POPC   H5X28641   7.014   8.510   3.280
  214POPC   H5Y28642   6.952   8.495   3.445
  214POPC   C3628643   6.894   8.678   3.345
  214POPC   H6X28644   6.818   8.705   3.268
  214POPC   H6Y28645   6.986   8.731   3.317
  214POPC   C3728646   6.847   8.720   3.485
  214POPC   H7X28647   6.898   8.656   3.561
  214POPC   H7Y28648   6.742   8.691   3.486
  214POPC   C3828649   6.866   8.866   3.533
  214POPC   H8X28650   6.952   8.919   3.494
  214POPC   H8Y28651   6.900   8.857   3.637
  214POPC   C3928652   6.739   8.954   3.528
  214POPC   H9X28653   6.652   8.888   3.511
  214POPC   H9Y28654   6.743   9.025   3.443
  214POPC  C31028655   6.716   9.026   3.661
  214POPC  H10X28656   6.771   9.122   3.670
  214POPC  H10Y28657   6.762   8.956   3.733
  214POPC  C31128658   6.573   9.029   3.714
  214POPC  H11X28659   6.512   8.951   3.662
  214POPC  H11Y28660   6.526   9.128   3.694
  214POPC  C31228661   6.576   8.997   3.864
  214POPC  H12X28662   6.632   9.078   3.914
  214POPC  H12Y28663   6.632   8.902   3.882
  214POPC  C31328664   6.440   8.981   3.932
  214POPC  H13X28665   6.378   9.071   3.917
  214POPC  H13Y28666   6.461   8.972   4.041
  214POPC  C31428667   6.365   8.853   3.894
  214POPC  H14X28668   6.436   8.768   3.903
  214POPC  H14Y28669   6.329   8.856   3.789
  214POPC  C31528670   6.249   8.830   3.991
  214POPC  H15X28671   6.161   8.892   3.960
  214POPC  H15Y28672   6.279   8.864   4.093
  214POPC  C31628673   6.212   8.684   4.001
  214POPC  H16X28674   6.172   8.645   3.904
  214POPC  H16Y28675   6.136   8.667   4.080
  214POPC  H16Z28676   6.302   8.624   4.028
  215POPC     N28677   2.149   8.024   2.356
  215POPC   C1228678   2.136   8.173   2.387
  215POPC  H12A28679   2.234   8.217   2.405
  215POPC  H12B28680   2.074   8.188   2.475
  215POPC   C1328681   2.243   8.010   2.242
  215POPC  H13A28682   2.245   7.911   2.198
  215POPC  H13B28683   2.217   8.081   2.163
  215POPC  H13C28684   2.343   8.040   2.269
  215POPC   C1428685   2.192   7.947   2.477
  215POPC  H14A28686   2.119   7.957   2.557
  215POPC  H14B28687   2.201   7.841   2.455
  215POPC  H14C28688   2.288   7.981   2.512
  215POPC   C1528689   2.018   7.972   2.309
  215POPC  H15A28690   1.985   8.032   2.224
  215POPC  H15B28691   1.946   7.986   2.387
  215POPC  H15C28692   2.018   7.869   2.276
  215POPC   C1128693   2.071   8.260   2.276
  215POPC  H11A28694   2.033   8.354   2.324
  215POPC  H11B28695   1.981   8.212   2.233
  215POPC     P28696   2.231   8.425   2.149
  215POPC   O1328697   2.151   8.503   2.051
  215POPC   O1428698   2.372   8.400   2.116
  215POPC   O1228699   2.163   8.284   2.172
  215POPC   O1128700   2.222   8.488   2.294
  215POPC    C128701   2.334   8.538   2.368
  215POPC    HA28702   2.295   8.608   2.445
  215POPC    HB28703   2.400   8.600   2.303
  215POPC    C228704   2.428   8.435   2.446
  215POPC    HS28705   2.526   8.486   2.446
  215POPC   O2128706   2.438   8.303   2.389
  215POPC   C2128707   2.549   8.239   2.435
  215POPC   O2228708   2.634   8.291   2.504
  215POPC   C2228709   2.532   8.088   2.411
  215POPC   H2R28710   2.562   8.069   2.305
  215POPC   H2S28711   2.425   8.065   2.421
  215POPC    C328712   2.381   8.419   2.593
  215POPC    HX28713   2.418   8.508   2.649
  215POPC    HY28714   2.426   8.329   2.639
  215POPC   O3128715   2.238   8.406   2.598
  215POPC   C3128716   2.189   8.428   2.718
  215POPC   O3228717   2.255   8.435   2.821
  215POPC   C3228718   2.039   8.446   2.701
  215POPC   H2X28719   1.995   8.345   2.695
  215POPC   H2Y28720   2.020   8.499   2.605
  215POPC   C2328721   2.613   7.993   2.505
  215POPC   H3R28722   2.722   8.006   2.485
  215POPC   H3S28723   2.587   7.888   2.478
  215POPC   C2428724   2.585   8.013   2.655
  215POPC   H4R28725   2.619   8.115   2.681
  215POPC   H4S28726   2.648   7.943   2.715
  215POPC   C2528727   2.438   8.001   2.696
  215POPC   H5R28728   2.405   7.895   2.685
  215POPC   H5S28729   2.377   8.067   2.630
  215POPC   C2628730   2.410   8.048   2.839
  215POPC   H6R28731   2.433   8.157   2.843
  215POPC   H6S28732   2.476   7.996   2.911
  215POPC   C2728733   2.263   8.029   2.880
  215POPC   H7R28734   2.242   7.921   2.892
  215POPC   H7S28735   2.199   8.068   2.798
  215POPC   C2828736   2.223   8.105   3.009
  215POPC   H8R28737   2.112   8.097   3.018
  215POPC   H8S28738   2.246   8.214   2.997
  215POPC   C2928739   2.287   8.048   3.133
  215POPC   H9128740   2.296   7.939   3.131
  215POPC  C21028741   2.338   8.113   3.240
  215POPC  H10128742   2.380   8.052   3.321
  215POPC  C21128743   2.345   8.262   3.267
  215POPC  H11R28744   2.244   8.309   3.269
  215POPC  H11S28745   2.400   8.312   3.184
  215POPC  C21228746   2.418   8.292   3.401
  215POPC  H12R28747   2.501   8.218   3.413
  215POPC  H12S28748   2.349   8.277   3.487
  215POPC  C21328749   2.486   8.430   3.410
  215POPC  H13R28750   2.494   8.468   3.306
  215POPC  H13S28751   2.591   8.418   3.446
  215POPC  C21428752   2.416   8.536   3.498
  215POPC  H14R28753   2.310   8.541   3.467
  215POPC  H14S28754   2.462   8.635   3.478
  215POPC  C21528755   2.419   8.512   3.649
  215POPC  H15R28756   2.499   8.573   3.696
  215POPC  H15S28757   2.443   8.405   3.664
  215POPC  C21628758   2.284   8.540   3.719
  215POPC  H16R28759   2.202   8.539   3.644
  215POPC  H16S28760   2.284   8.641   3.765
  215POPC  C21728761   2.253   8.432   3.824
  215POPC  H17R28762   2.328   8.441   3.906
  215POPC  H17S28763   2.268   8.333   3.776
  215POPC  C21828764   2.111   8.435   3.885
  215POPC  H18R28765   2.033   8.415   3.810
  215POPC  H18S28766   2.088   8.533   3.931
  215POPC  H18T28767   2.103   8.355   3.962
  215POPC   C3328768   1.976   8.529   2.813
  215POPC   H3X28769   1.869   8.545   2.787
  215POPC   H3Y28770   2.022   8.630   2.820
  215POPC   C3428771   1.984   8.460   2.949
  215POPC   H4X28772   2.085   8.472   2.995
  215POPC   H4Y28773   1.970   8.351   2.934
  215POPC   C3528774   1.876   8.514   3.042
  215POPC   H5X28775   1.844   8.434   3.111
  215POPC   H5Y28776   1.787   8.541   2.982
  215POPC   C3628777   1.923   8.636   3.120
  215POPC   H6X28778   1.867   8.724   3.081
  215POPC   H6Y28779   2.030   8.655   3.103
  215POPC   C3728780   1.896   8.625   3.271
  215POPC   H7X28781   1.792   8.588   3.283
  215POPC   H7Y28782   1.903   8.728   3.313
  215POPC   C3828783   1.990   8.534   3.352
  215POPC   H8X28784   1.973   8.558   3.459
  215POPC   H8Y28785   2.096   8.557   3.329
  215POPC   C3928786   1.961   8.385   3.327
  215POPC   H9X28787   2.005   8.355   3.230
  215POPC   H9Y28788   1.850   8.373   3.321
  215POPC  C31028789   2.009   8.286   3.433
  215POPC  H10X28790   2.120   8.281   3.435
  215POPC  H10Y28791   1.970   8.185   3.404
  215POPC  C31128792   1.960   8.318   3.575
  215POPC  H11X28793   1.861   8.368   3.572
  215POPC  H11Y28794   2.034   8.390   3.615
  215POPC  C31228795   1.950   8.193   3.664
  215POPC  H12X28796   1.861   8.134   3.632
  215POPC  H12Y28797   1.932   8.225   3.769
  215POPC  C31328798   2.074   8.102   3.658
  215POPC  H13X28799   2.166   8.162   3.675
  215POPC  H13Y28800   2.081   8.060   3.555
  215POPC  C31428801   2.067   7.985   3.756
  215POPC  H14X28802   2.137   7.905   3.724
  215POPC  H14Y28803   1.965   7.942   3.754
  215POPC  C31528804   2.103   8.024   3.901
  215POPC  H15X28805   2.055   7.951   3.969
  215POPC  H15Y28806   2.060   8.124   3.924
  215POPC  C31628807   2.254   8.025   3.929
  215POPC  H16X28808   2.274   8.052   4.035
  215POPC  H16Y28809   2.306   8.098   3.863
  215POPC  H16Z28810   2.297   7.924   3.910
  216POPC     N28811   0.270   4.276   2.228
  216POPC   C1228812   0.413   4.237   2.264
  216POPC  H12A28813   0.466   4.329   2.283
  216POPC  H12B28814   0.460   4.195   2.176
  216POPC   C1328815   0.197   4.320   2.351
  216POPC  H13A28816   0.248   4.402   2.400
  216POPC  H13B28817   0.095   4.352   2.328
  216POPC  H13C28818   0.193   4.236   2.420
  216POPC   C1428819   0.275   4.387   2.130
  216POPC  H14A28820   0.317   4.354   2.035
  216POPC  H14B28821   0.174   4.424   2.111
  216POPC  H14C28822   0.338   4.467   2.166
  216POPC   C1528823   0.192   4.165   2.167
  216POPC  H15A28824   0.176   4.087   2.242
  216POPC  H15B28825   0.243   4.119   2.084
  216POPC  H15C28826   0.094   4.199   2.135
  216POPC   C1128827   0.441   4.139   2.381
  216POPC  H11A28828   0.389   4.173   2.474
  216POPC  H11B28829   0.550   4.144   2.403
  216POPC     P28830   0.303   3.910   2.409
  216POPC   O1328831   0.321   3.779   2.342
  216POPC   O1428832   0.169   3.971   2.388
  216POPC   O1228833   0.411   4.005   2.345
  216POPC   O1128834   0.339   3.906   2.563
  216POPC    C128835   0.475   3.908   2.607
  216POPC    HA28836   0.509   4.013   2.616
  216POPC    HB28837   0.542   3.855   2.534
  216POPC    C228838   0.494   3.838   2.745
  216POPC    HS28839   0.589   3.780   2.739
  216POPC   O2128840   0.385   3.751   2.781
  216POPC   C2128841   0.360   3.656   2.693
  216POPC   O2228842   0.437   3.615   2.608
  216POPC   C2228843   0.216   3.606   2.717
  216POPC   H2R28844   0.208   3.506   2.669
  216POPC   H2S28845   0.148   3.676   2.664
  216POPC    C328846   0.512   3.939   2.862
  216POPC    HX28847   0.601   4.003   2.845
  216POPC    HY28848   0.529   3.878   2.954
  216POPC   O3128849   0.395   4.021   2.872
  216POPC   C3128850   0.374   4.073   2.990
  216POPC   O3228851   0.448   4.062   3.087
  216POPC   C3228852   0.243   4.150   2.985
  216POPC   H2X28853   0.161   4.079   2.963
  216POPC   H2Y28854   0.250   4.221   2.899
  216POPC   C2328855   0.178   3.595   2.866
  216POPC   H3R28856   0.071   3.564   2.874
  216POPC   H3S28857   0.186   3.695   2.916
  216POPC   C2428858   0.265   3.492   2.938
  216POPC   H4R28859   0.370   3.529   2.940
  216POPC   H4S28860   0.264   3.397   2.880
  216POPC   C2528861   0.225   3.460   3.083
  216POPC   H5R28862   0.294   3.380   3.119
  216POPC   H5S28863   0.121   3.421   3.088
  216POPC   C2628864   0.239   3.581   3.176
  216POPC   H6R28865   0.144   3.639   3.174
  216POPC   H6S28866   0.320   3.647   3.138
  216POPC   C2728867   0.275   3.541   3.321
  216POPC   H7R28868   0.366   3.478   3.319
  216POPC   H7S28869   0.193   3.479   3.364
  216POPC   C2828870   0.302   3.663   3.410
  216POPC   H8R28871   0.389   3.719   3.369
  216POPC   H8S28872   0.332   3.627   3.511
  216POPC   C2928873   0.181   3.752   3.416
  216POPC   H9128874   0.175   3.827   3.335
  216POPC  C21028875   0.083   3.748   3.508
  216POPC  H10128876   0.001   3.821   3.502
  216POPC  C21128877   0.075   3.653   3.624
  216POPC  H11R28878   0.118   3.553   3.601
  216POPC  H11S28879  -0.031   3.637   3.653
  216POPC  C21228880   0.154   3.715   3.740
  216POPC  H12R28881   0.122   3.821   3.756
  216POPC  H12S28882   0.260   3.719   3.707
  216POPC  C21328883   0.145   3.642   3.875
  216POPC  H13R28884   0.198   3.703   3.952
  216POPC  H13S28885   0.198   3.545   3.870
  216POPC  C21428886   0.001   3.615   3.919
  216POPC  H14R28887   0.004   3.561   4.016
  216POPC  H14S28888  -0.048   3.550   3.844
  216POPC  C21528889  -0.085   3.739   3.941
  216POPC  H15R28890  -0.193   3.710   3.947
  216POPC  H15S28891  -0.074   3.805   3.853
  216POPC  C21628892  -0.044   3.807   4.071
  216POPC  H16R28893   0.066   3.798   4.081
  216POPC  H16S28894  -0.083   3.749   4.156
  216POPC  C21728895  -0.081   3.955   4.077
  216POPC  H17R28896  -0.051   3.995   4.177
  216POPC  H17S28897  -0.192   3.965   4.069
  216POPC  C21828898  -0.013   4.040   3.969
  216POPC  H18R28899  -0.030   4.148   3.987
  216POPC  H18S28900  -0.052   4.014   3.868
  216POPC  H18T28901   0.096   4.021   3.969
  216POPC   C3328902   0.212   4.229   3.113
  216POPC   H3X28903   0.130   4.302   3.090
  216POPC   H3Y28904   0.300   4.290   3.144
  216POPC   C3428905   0.164   4.142   3.230
  216POPC   H4X28906   0.244   4.071   3.260
  216POPC   H4Y28907   0.075   4.083   3.199
  216POPC   C3528908   0.128   4.232   3.348
  216POPC   H5X28909   0.050   4.304   3.314
  216POPC   H5Y28910   0.219   4.291   3.375
  216POPC   C3628911   0.072   4.162   3.472
  216POPC   H6X28912   0.147   4.091   3.512
  216POPC   H6Y28913  -0.018   4.103   3.444
  216POPC   C3728914   0.032   4.266   3.579
  216POPC   H7X28915  -0.010   4.212   3.667
  216POPC   H7Y28916  -0.049   4.330   3.538
  216POPC   C3828917   0.150   4.354   3.627
  216POPC   H8X28918   0.117   4.416   3.713
  216POPC   H8Y28919   0.185   4.423   3.547
  216POPC   C3928920   0.267   4.266   3.667
  216POPC   H9X28921   0.313   4.220   3.576
  216POPC   H9Y28922   0.217   4.185   3.725
  216POPC  C31028923   0.378   4.331   3.749
  216POPC  H10X28924   0.338   4.370   3.844
  216POPC  H10Y28925   0.421   4.417   3.691
  216POPC  C31128926   0.489   4.229   3.777
  216POPC  H11X28927   0.573   4.276   3.832
  216POPC  H11Y28928   0.529   4.195   3.678
  216POPC  C31228929   0.438   4.107   3.855
  216POPC  H12X28930   0.337   4.077   3.819
  216POPC  H12Y28931   0.426   4.133   3.962
  216POPC  C31328932   0.517   3.978   3.837
  216POPC  H13X28933   0.614   3.989   3.888
  216POPC  H13Y28934   0.538   3.961   3.728
  216POPC  C31428935   0.436   3.858   3.889
  216POPC  H14X28936   0.333   3.871   3.849
  216POPC  H14Y28937   0.423   3.863   3.999
  216POPC  C31528938   0.487   3.720   3.847
  216POPC  H15X28939   0.539   3.727   3.748
  216POPC  H15Y28940   0.399   3.654   3.830
  216POPC  C31628941   0.571   3.645   3.951
  216POPC  H16X28942   0.548   3.682   4.053
  216POPC  H16Y28943   0.680   3.657   3.932
  216POPC  H16Z28944   0.548   3.537   3.948
  217POPC     N28945   9.263   4.980   2.395
  217POPC   C1228946   9.127   4.922   2.357
  217POPC  H12A28947   9.055   5.001   2.348
  217POPC  H12B28948   9.095   4.856   2.438
  217POPC   C1328949   9.254   5.073   2.511
  217POPC  H13A28950   9.207   5.024   2.595
  217POPC  H13B28951   9.353   5.105   2.541
  217POPC  H13C28952   9.198   5.163   2.485
  217POPC   C1428953   9.350   4.864   2.433
  217POPC  H14A28954   9.449   4.894   2.461
  217POPC  H14B28955   9.303   4.807   2.512
  217POPC  H14C28956   9.354   4.795   2.348
  217POPC   C1528957   9.325   5.051   2.279
  217POPC  H15A28958   9.277   5.145   2.255
  217POPC  H15B28959   9.324   4.988   2.191
  217POPC  H15C28960   9.428   5.077   2.298
  217POPC   C1128961   9.118   4.837   2.226
  217POPC  H11A28962   9.140   4.904   2.141
  217POPC  H11B28963   9.013   4.800   2.214
  217POPC     P28964   9.186   4.587   2.288
  217POPC   O1328965   9.318   4.519   2.292
  217POPC   O1428966   9.074   4.516   2.221
  217POPC   O1228967   9.209   4.728   2.220
  217POPC   O1128968   9.143   4.635   2.436
  217POPC    C128969   9.003   4.624   2.468
  217POPC    HA28970   8.977   4.516   2.482
  217POPC    HB28971   8.939   4.662   2.385
  217POPC    C228972   8.955   4.698   2.598
  217POPC    HS28973   8.850   4.663   2.615
  217POPC   O2128974   8.957   4.842   2.578
  217POPC   C2128975   8.885   4.911   2.667
  217POPC   O2228976   8.824   4.861   2.759
  217POPC   C2228977   8.894   5.061   2.633
  217POPC   H2R28978   8.803   5.086   2.573
  217POPC   H2S28979   8.982   5.078   2.568
  217POPC    C328980   9.041   4.657   2.723
  217POPC    HX28981   9.053   4.547   2.717
  217POPC    HY28982   8.981   4.678   2.815
  217POPC   O3128983   9.166   4.729   2.731
  217POPC   C3128984   9.276   4.656   2.744
  217POPC   O3228985   9.281   4.535   2.760
  217POPC   C3228986   9.397   4.750   2.731
  217POPC   H2X28987   9.361   4.854   2.722
  217POPC   H2Y28988   9.451   4.721   2.639
  217POPC   C2328989   8.900   5.157   2.755
  217POPC   H3R28990   8.806   5.151   2.814
  217POPC   H3S28991   8.907   5.261   2.714
  217POPC   C2428992   9.020   5.139   2.851
  217POPC   H4R28993   9.033   5.235   2.906
  217POPC   H4S28994   9.114   5.121   2.794
  217POPC   C2528995   8.998   5.030   2.957
  217POPC   H5R28996   8.997   4.931   2.907
  217POPC   H5S28997   8.899   5.046   3.003
  217POPC   C2628998   9.103   5.018   3.068
  217POPC   H6R28999   9.201   5.000   3.019
  217POPC   H6S29000   9.078   4.927   3.128
  217POPC   C2729001   9.118   5.135   3.169
  217POPC   H7R29002   9.018   5.176   3.194
  217POPC   H7S29003   9.177   5.216   3.122
  217POPC   C2829004   9.187   5.090   3.301
  217POPC   H8R29005   9.121   5.016   3.351
  217POPC   H8S29006   9.198   5.176   3.370
  217POPC   C2929007   9.320   5.027   3.269
  217POPC   H9129008   9.321   4.967   3.177
  217POPC  C21029009   9.433   5.020   3.341
  217POPC  H10129010   9.517   4.964   3.296
  217POPC  C21129011   9.465   5.072   3.479
  217POPC  H11R29012   9.374   5.107   3.532
  217POPC  H11S29013   9.539   5.155   3.476
  217POPC  C21229014   9.526   4.949   3.550
  217POPC  H12R29015   9.631   4.935   3.517
  217POPC  H12S29016   9.472   4.858   3.517
  217POPC  C21329017   9.516   4.941   3.702
  217POPC  H13R29018   9.419   4.984   3.735
  217POPC  H13S29019   9.598   5.000   3.750
  217POPC  C21429020   9.523   4.793   3.744
  217POPC  H14R29021   9.625   4.755   3.720
  217POPC  H14S29022   9.451   4.734   3.683
  217POPC  C21529023   9.493   4.764   3.891
  217POPC  H15R29024   9.559   4.826   3.954
  217POPC  H15S29025   9.517   4.657   3.909
  217POPC  C21629026   9.347   4.784   3.933
  217POPC  H16R29027   9.278   4.741   3.856
  217POPC  H16S29028   9.326   4.894   3.939
  217POPC  C21729029   9.321   4.717   4.069
  217POPC  H17R29030   9.413   4.731   4.130
  217POPC  H17S29031   9.308   4.608   4.054
  217POPC  C21829032   9.202   4.773   4.148
  217POPC  H18R29033   9.221   4.771   4.257
  217POPC  H18S29034   9.111   4.712   4.129
  217POPC  H18T29035   9.183   4.879   4.121
  217POPC   C3329036   9.499   4.743   2.847
  217POPC   H3X29037   9.581   4.815   2.826
  217POPC   H3Y29038   9.544   4.641   2.852
  217POPC   C3429039   9.437   4.779   2.982
  217POPC   H4X29040   9.336   4.823   2.969
  217POPC   H4Y29041   9.499   4.855   3.035
  217POPC   C3529042   9.428   4.655   3.071
  217POPC   H5X29043   9.531   4.619   3.092
  217POPC   H5Y29044   9.374   4.573   3.018
  217POPC   C3629045   9.358   4.683   3.203
  217POPC   H6X29046   9.252   4.714   3.186
  217POPC   H6Y29047   9.411   4.767   3.252
  217POPC   C3729048   9.364   4.563   3.297
  217POPC   H7X29049   9.469   4.527   3.300
  217POPC   H7Y29050   9.300   4.481   3.257
  217POPC   C3829051   9.321   4.600   3.438
  217POPC   H8X29052   9.361   4.701   3.462
  217POPC   H8Y29053   9.364   4.531   3.512
  217POPC   C3929054   9.170   4.601   3.457
  217POPC   H9X29055   9.128   4.499   3.441
  217POPC   H9Y29056   9.128   4.667   3.379
  217POPC  C31029057   9.133   4.655   3.596
  217POPC  H10X29058   9.215   4.720   3.633
  217POPC  H10Y29059   9.120   4.571   3.668
  217POPC  C31129060   9.007   4.740   3.586
  217POPC  H11X29061   8.921   4.673   3.568
  217POPC  H11Y29062   9.017   4.805   3.496
  217POPC  C31229063   8.983   4.836   3.704
  217POPC  H12X29064   8.891   4.895   3.682
  217POPC  H12Y29065   9.068   4.908   3.707
  217POPC  C31329066   8.970   4.773   3.843
  217POPC  H13X29067   9.056   4.704   3.860
  217POPC  H13Y29068   8.878   4.711   3.850
  217POPC  C31429069   8.968   4.877   3.955
  217POPC  H14X29070   9.066   4.930   3.954
  217POPC  H14Y29071   8.956   4.824   4.052
  217POPC  C31529072   8.857   4.982   3.950
  217POPC  H15X29073   8.762   4.929   3.973
  217POPC  H15Y29074   8.848   5.023   3.847
  217POPC  C31629075   8.878   5.097   4.048
  217POPC  H16X29076   8.974   5.149   4.027
  217POPC  H16Y29077   8.881   5.060   4.153
  217POPC  H16Z29078   8.796   5.172   4.039
  218POPC     N29079   0.519   5.540   2.414
  218POPC   C1229080   0.466   5.425   2.328
  218POPC  H12A29081   0.528   5.338   2.350
  218POPC  H12B29082   0.482   5.451   2.224
  218POPC   C1329083   0.489   5.520   2.558
  218POPC  H13A29084   0.382   5.533   2.571
  218POPC  H13B29085   0.518   5.425   2.599
  218POPC  H13C29086   0.534   5.597   2.620
  218POPC   C1429087   0.667   5.550   2.406
  218POPC  H14A29088   0.714   5.459   2.444
  218POPC  H14B29089   0.701   5.568   2.305
  218POPC  H14C29090   0.701   5.628   2.473
  218POPC   C1529091   0.457   5.669   2.372
  218POPC  H15A29092   0.353   5.650   2.342
  218POPC  H15B29093   0.510   5.714   2.290
  218POPC  H15C29094   0.453   5.738   2.456
  218POPC   C1129095   0.315   5.380   2.341
  218POPC  H11A29096   0.293   5.353   2.447
  218POPC  H11B29097   0.301   5.288   2.279
  218POPC     P29098   0.073   5.463   2.258
  218POPC   O1329099   0.038   5.322   2.231
  218POPC   O1429100   0.045   5.558   2.148
  218POPC   O1229101   0.227   5.482   2.298
  218POPC   O1129102  -0.008   5.515   2.385
  218POPC    C129103   0.029   5.640   2.445
  218POPC    HA29104  -0.026   5.724   2.396
  218POPC    HB29105   0.138   5.663   2.435
  218POPC    C229106  -0.002   5.640   2.597
  218POPC    HS29107   0.056   5.721   2.646
  218POPC   O2129108   0.027   5.512   2.652
  218POPC   C2129109   0.150   5.485   2.681
  218POPC   O2229110   0.243   5.563   2.678
  218POPC   C2229111   0.153   5.339   2.727
  218POPC   H2R29112   0.207   5.278   2.651
  218POPC   H2S29113   0.048   5.303   2.731
  218POPC    C329114  -0.151   5.664   2.628
  218POPC    HX29115  -0.211   5.581   2.584
  218POPC    HY29116  -0.182   5.759   2.578
  218POPC   O3129117  -0.171   5.678   2.770
  218POPC   C3129118  -0.188   5.566   2.841
  218POPC   O3229119  -0.204   5.454   2.796
  218POPC   C3229120  -0.199   5.606   2.988
  218POPC   H2X29121  -0.303   5.641   3.003
  218POPC   H2Y29122  -0.129   5.690   3.007
  218POPC   C2329123   0.215   5.323   2.867
  218POPC   H3R29124   0.214   5.421   2.920
  218POPC   H3S29125   0.322   5.293   2.856
  218POPC   C2429126   0.142   5.224   2.958
  218POPC   H4R29127   0.143   5.122   2.916
  218POPC   H4S29128   0.035   5.254   2.974
  218POPC   C2529129   0.212   5.225   3.093
  218POPC   H5R29130   0.316   5.258   3.071
  218POPC   H5S29131   0.217   5.124   3.139
  218POPC   C2629132   0.156   5.327   3.192
  218POPC   H6R29133   0.082   5.281   3.260
  218POPC   H6S29134   0.106   5.407   3.135
  218POPC   C2729135   0.270   5.394   3.269
  218POPC   H7R29136   0.339   5.434   3.191
  218POPC   H7S29137   0.326   5.320   3.330
  218POPC   C2829138   0.219   5.508   3.358
  218POPC   H8R29139   0.182   5.465   3.454
  218POPC   H8S29140   0.132   5.557   3.308
  218POPC   C2929141   0.330   5.608   3.374
  218POPC   H9129142   0.382   5.634   3.280
  218POPC  C21029143   0.373   5.661   3.489
  218POPC  H10129144   0.456   5.733   3.485
  218POPC  C21129145   0.320   5.632   3.626
  218POPC  H11R29146   0.339   5.526   3.655
  218POPC  H11S29147   0.210   5.651   3.631
  218POPC  C21229148   0.390   5.725   3.725
  218POPC  H12R29149   0.368   5.832   3.700
  218POPC  H12S29150   0.500   5.710   3.718
  218POPC  C21329151   0.349   5.701   3.870
  218POPC  H13R29152   0.357   5.592   3.894
  218POPC  H13S29153   0.243   5.731   3.886
  218POPC  C21429154   0.441   5.781   3.962
  218POPC  H14R29155   0.433   5.888   3.937
  218POPC  H14S29156   0.547   5.750   3.943
  218POPC  C21529157   0.412   5.763   4.111
  218POPC  H15R29158   0.306   5.786   4.132
  218POPC  H15S29159   0.473   5.840   4.164
  218POPC  C21629160   0.449   5.622   4.158
  218POPC  H16R29161   0.542   5.591   4.106
  218POPC  H16S29162   0.370   5.551   4.126
  218POPC  C21729163   0.473   5.608   4.309
  218POPC  H17R29164   0.527   5.512   4.325
  218POPC  H17S29165   0.376   5.603   4.362
  218POPC  C21829166   0.553   5.722   4.372
  218POPC  H18R29167   0.596   5.690   4.470
  218POPC  H18S29168   0.489   5.810   4.389
  218POPC  H18T29169   0.636   5.751   4.305
  218POPC   C3329170  -0.182   5.496   3.092
  218POPC   H3X29171  -0.081   5.450   3.084
  218POPC   H3Y29172  -0.257   5.415   3.077
  218POPC   C3429173  -0.201   5.558   3.230
  218POPC   H4X29174  -0.304   5.600   3.237
  218POPC   H4Y29175  -0.131   5.644   3.242
  218POPC   C3529176  -0.180   5.463   3.347
  218POPC   H5X29177  -0.074   5.429   3.349
  218POPC   H5Y29178  -0.245   5.373   3.338
  218POPC   C3629179  -0.212   5.538   3.475
  218POPC   H6X29180  -0.320   5.559   3.482
  218POPC   H6Y29181  -0.160   5.637   3.469
  218POPC   C3729182  -0.164   5.467   3.601
  218POPC   H7X29183  -0.131   5.364   3.577
  218POPC   H7Y29184  -0.247   5.459   3.675
  218POPC   C3829185  -0.049   5.546   3.663
  218POPC   H8X29186  -0.076   5.654   3.672
  218POPC   H8Y29187   0.038   5.539   3.596
  218POPC   C3929188  -0.012   5.494   3.801
  218POPC   H9X29189  -0.100   5.511   3.868
  218POPC   H9Y29190   0.073   5.553   3.842
  218POPC  C31029191   0.023   5.345   3.800
  218POPC  H10X29192   0.096   5.325   3.719
  218POPC  H10Y29193  -0.068   5.284   3.781
  218POPC  C31129194   0.082   5.305   3.934
  218POPC  H11X29195   0.174   5.367   3.946
  218POPC  H11Y29196   0.114   5.198   3.934
  218POPC  C31229197  -0.016   5.330   4.050
  218POPC  H12X29198  -0.109   5.272   4.035
  218POPC  H12Y29199  -0.043   5.438   4.053
  218POPC  C31329200   0.044   5.298   4.187
  218POPC  H13X29201  -0.021   5.341   4.266
  218POPC  H13Y29202   0.047   5.189   4.201
  218POPC  C31429203   0.185   5.357   4.197
  218POPC  H14X29204   0.183   5.461   4.159
  218POPC  H14Y29205   0.254   5.298   4.132
  218POPC  C31529206   0.240   5.354   4.338
  218POPC  H15X29207   0.165   5.300   4.399
  218POPC  H15Y29208   0.243   5.456   4.380
  218POPC  C31629209   0.376   5.286   4.347
  218POPC  H16X29210   0.435   5.306   4.255
  218POPC  H16Y29211   0.365   5.176   4.356
  218POPC  H16Z29212   0.434   5.324   4.434
  219POPC     N29213   0.658   6.444   2.220
  219POPC   C1229214   0.713   6.512   2.345
  219POPC  H12A29215   0.803   6.566   2.318
  219POPC  H12B29216   0.740   6.437   2.417
  219POPC   C1329217   0.519   6.396   2.250
  219POPC  H13A29218   0.519   6.319   2.327
  219POPC  H13B29219   0.462   6.480   2.289
  219POPC  H13C29220   0.469   6.358   2.161
  219POPC   C1429221   0.651   6.540   2.105
  219POPC  H14A29222   0.750   6.576   2.079
  219POPC  H14B29223   0.606   6.492   2.019
  219POPC  H14C29224   0.593   6.627   2.136
  219POPC   C1529225   0.744   6.331   2.176
  219POPC  H15A29226   0.701   6.283   2.088
  219POPC  H15B29227   0.748   6.256   2.253
  219POPC  H15C29228   0.843   6.365   2.147
  219POPC   C1129229   0.623   6.615   2.416
  219POPC  H11A29230   0.681   6.663   2.499
  219POPC  H11B29231   0.539   6.560   2.464
  219POPC     P29232   0.465   6.812   2.367
  219POPC   O1329233   0.404   6.867   2.244
  219POPC   O1429234   0.519   6.910   2.464
  219POPC   O1229235   0.579   6.714   2.324
  219POPC   O1129236   0.367   6.716   2.443
  219POPC    C129237   0.254   6.650   2.388
  219POPC    HA29238   0.284   6.577   2.310
  219POPC    HB29239   0.184   6.723   2.343
  219POPC    C229240   0.176   6.574   2.501
  219POPC    HS29241   0.073   6.556   2.464
  219POPC   O2129242   0.171   6.646   2.625
  219POPC   C2129243   0.132   6.771   2.624
  219POPC   O2229244   0.082   6.831   2.530
  219POPC   C2229245   0.156   6.832   2.762
  219POPC   H2R29246   0.157   6.942   2.746
  219POPC   H2S29247   0.255   6.801   2.799
  219POPC    C329248   0.239   6.434   2.532
  219POPC    HX29249   0.247   6.379   2.436
  219POPC    HY29250   0.169   6.376   2.596
  219POPC   O3129251   0.372   6.446   2.590
  219POPC   C3129252   0.367   6.473   2.722
  219POPC   O3229253   0.274   6.445   2.795
  219POPC   C3229254   0.492   6.549   2.768
  219POPC   H2X29255   0.498   6.643   2.708
  219POPC   H2Y29256   0.581   6.487   2.747
  219POPC   C2329257   0.044   6.797   2.863
  219POPC   H3R29258  -0.055   6.795   2.812
  219POPC   H3S29259   0.040   6.877   2.940
  219POPC   C2429260   0.062   6.663   2.936
  219POPC   H4R29261   0.164   6.658   2.979
  219POPC   H4S29262   0.052   6.580   2.863
  219POPC   C2529263  -0.043   6.646   3.048
  219POPC   H5R29264  -0.144   6.656   3.003
  219POPC   H5S29265  -0.030   6.728   3.122
  219POPC   C2629266  -0.038   6.511   3.122
  219POPC   H6R29267  -0.072   6.431   3.053
  219POPC   H6S29268  -0.110   6.515   3.207
  219POPC   C2729269   0.101   6.473   3.177
  219POPC   H7R29270   0.169   6.457   3.090
  219POPC   H7S29271   0.093   6.375   3.229
  219POPC   C2829272   0.165   6.577   3.271
  219POPC   H8R29273   0.167   6.676   3.221
  219POPC   H8S29274   0.271   6.547   3.284
  219POPC   C2929275   0.095   6.586   3.404
  219POPC   H9129276   0.017   6.663   3.411
  219POPC  C21029277   0.120   6.508   3.511
  219POPC  H10129278   0.062   6.521   3.603
  219POPC  C21129279   0.223   6.397   3.517
  219POPC  H11R29280   0.292   6.399   3.430
  219POPC  H11S29281   0.171   6.299   3.514
  219POPC  C21229282   0.309   6.403   3.644
  219POPC  H12R29283   0.243   6.391   3.733
  219POPC  H12S29284   0.361   6.501   3.652
  219POPC  C21329285   0.414   6.291   3.643
  219POPC  H13R29286   0.484   6.308   3.558
  219POPC  H13S29287   0.363   6.194   3.624
  219POPC  C21429288   0.495   6.280   3.773
  219POPC  H14R29289   0.554   6.373   3.788
  219POPC  H14S29290   0.567   6.196   3.762
  219POPC  C21529291   0.410   6.255   3.900
  219POPC  H15R29292   0.356   6.348   3.927
  219POPC  H15S29293   0.479   6.231   3.983
  219POPC  C21629294   0.309   6.141   3.884
  219POPC  H16R29295   0.360   6.055   3.833
  219POPC  H16S29296   0.226   6.173   3.817
  219POPC  C21729297   0.250   6.093   4.017
  219POPC  H17R29298   0.333   6.067   4.086
  219POPC  H17S29299   0.193   5.999   3.999
  219POPC  C21829300   0.157   6.195   4.083
  219POPC  H18R29301   0.073   6.221   4.015
  219POPC  H18S29302   0.213   6.289   4.106
  219POPC  H18T29303   0.115   6.155   4.177
  219POPC   C3329304   0.484   6.583   2.919
  219POPC   H3X29305   0.470   6.488   2.976
  219POPC   H3Y29306   0.395   6.647   2.939
  219POPC   C3429307   0.610   6.652   2.974
  219POPC   H4X29308   0.610   6.759   2.945
  219POPC   H4Y29309   0.699   6.605   2.925
  219POPC   C3529310   0.627   6.638   3.126
  219POPC   H5X29311   0.726   6.681   3.156
  219POPC   H5Y29312   0.629   6.530   3.151
  219POPC   C3629313   0.517   6.707   3.208
  219POPC   H6X29314   0.418   6.680   3.164
  219POPC   H6Y29315   0.527   6.817   3.199
  219POPC   C3729316   0.514   6.664   3.356
  219POPC   H7X29317   0.500   6.554   3.360
  219POPC   H7Y29318   0.425   6.710   3.405
  219POPC   C3829319   0.640   6.701   3.437
  219POPC   H8X29320   0.727   6.646   3.394
  219POPC   H8Y29321   0.627   6.664   3.541
  219POPC   C3929322   0.673   6.852   3.441
  219POPC   H9X29323   0.694   6.886   3.337
  219POPC   H9Y29324   0.766   6.866   3.500
  219POPC  C31029325   0.561   6.940   3.500
  219POPC  H10X29326   0.468   6.925   3.441
  219POPC  H10Y29327   0.590   7.047   3.489
  219POPC  C31129328   0.531   6.913   3.649
  219POPC  H11X29329   0.521   6.804   3.665
  219POPC  H11Y29330   0.433   6.959   3.674
  219POPC  C31229331   0.637   6.972   3.743
  219POPC  H12X29332   0.634   7.083   3.733
  219POPC  H12Y29333   0.738   6.939   3.711
  219POPC  C31329334   0.617   6.934   3.890
  219POPC  H13X29335   0.514   6.962   3.923
  219POPC  H13Y29336   0.689   6.992   3.951
  219POPC  C31429337   0.639   6.784   3.919
  219POPC  H14X29338   0.730   6.749   3.865
  219POPC  H14Y29339   0.552   6.727   3.879
  219POPC  C31529340   0.656   6.755   4.068
  219POPC  H15X29341   0.577   6.810   4.125
  219POPC  H15Y29342   0.754   6.795   4.102
  219POPC  C31629343   0.647   6.606   4.103
  219POPC  H16X29344   0.655   6.591   4.213
  219POPC  H16Y29345   0.728   6.549   4.054
  219POPC  H16Z29346   0.549   6.564   4.069
  220POPC     N29347   4.179   9.443   2.321
  220POPC   C1229348   4.150   9.328   2.417
  220POPC  H12A29349   4.056   9.282   2.389
  220POPC  H12B29350   4.136   9.368   2.516
  220POPC   C1329351   4.169   9.383   2.185
  220POPC  H13A29352   4.174   9.455   2.105
  220POPC  H13B29353   4.252   9.312   2.172
  220POPC  H13C29354   4.080   9.322   2.176
  220POPC   C1429355   4.080   9.553   2.341
  220POPC  H14A29356   4.082   9.622   2.257
  220POPC  H14B29357   3.980   9.513   2.352
  220POPC  H14C29358   4.101   9.610   2.431
  220POPC   C1529359   4.319   9.496   2.335
  220POPC  H15A29360   4.340   9.574   2.262
  220POPC  H15B29361   4.391   9.415   2.319
  220POPC  H15C29362   4.338   9.536   2.434
  220POPC   C1129363   4.251   9.210   2.427
  220POPC  H11A29364   4.202   9.126   2.481
  220POPC  H11B29365   4.334   9.242   2.493
  220POPC     P29366   4.444   9.123   2.270
  220POPC   O1329367   4.503   9.214   2.169
  220POPC   O1429368   4.447   8.980   2.233
  220POPC   O1229369   4.294   9.164   2.299
  220POPC   O1129370   4.516   9.153   2.410
  220POPC    C129371   4.569   9.053   2.498
  220POPC    HA29372   4.673   9.032   2.467
  220POPC    HB29373   4.509   8.960   2.487
  220POPC    C229374   4.576   9.080   2.657
  220POPC    HS29375   4.624   8.990   2.702
  220POPC   O2129376   4.442   9.098   2.710
  220POPC   C2129377   4.427   9.073   2.842
  220POPC   O2229378   4.518   9.051   2.919
  220POPC   C2229379   4.278   9.066   2.875
  220POPC   H2R29380   4.239   8.972   2.830
  220POPC   H2S29381   4.227   9.152   2.827
  220POPC    C329382   4.670   9.199   2.702
  220POPC    HX29383   4.763   9.186   2.643
  220POPC    HY29384   4.700   9.186   2.808
  220POPC   O3129385   4.619   9.330   2.678
  220POPC   C3129386   4.522   9.369   2.759
  220POPC   O3229387   4.508   9.341   2.877
  220POPC   C3229388   4.421   9.437   2.670
  220POPC   H2X29389   4.427   9.393   2.569
  220POPC   H2Y29390   4.455   9.540   2.657
  220POPC   C2329391   4.245   9.066   3.026
  220POPC   H3R29392   4.284   9.160   3.072
  220POPC   H3S29393   4.294   8.980   3.077
  220POPC   C2429394   4.093   9.059   3.047
  220POPC   H4R29395   4.055   8.960   3.014
  220POPC   H4S29396   4.047   9.137   2.981
  220POPC   C2529397   4.046   9.089   3.189
  220POPC   H5R29398   3.939   9.119   3.183
  220POPC   H5S29399   4.103   9.175   3.232
  220POPC   C2629400   4.052   8.968   3.283
  220POPC   H6R29401   4.157   8.943   3.308
  220POPC   H6S29402   4.007   8.880   3.231
  220POPC   C2729403   3.970   8.995   3.410
  220POPC   H7R29404   3.866   9.022   3.378
  220POPC   H7S29405   4.011   9.084   3.463
  220POPC   C2829406   3.960   8.874   3.504
  220POPC   H8R29407   3.932   8.784   3.445
  220POPC   H8S29408   3.876   8.893   3.574
  220POPC   C2929409   4.091   8.852   3.576
  220POPC   H9129410   4.180   8.840   3.512
  220POPC  C21029411   4.104   8.847   3.709
  220POPC  H10129412   4.204   8.828   3.753
  220POPC  C21129413   3.990   8.861   3.807
  220POPC  H11R29414   3.916   8.778   3.791
  220POPC  H11S29415   3.936   8.956   3.790
  220POPC  C21229416   4.038   8.856   3.952
  220POPC  H12R29417   4.094   8.762   3.972
  220POPC  H12S29418   3.949   8.856   4.020
  220POPC  C21329419   4.127   8.974   3.989
  220POPC  H13R29420   4.068   9.068   3.979
  220POPC  H13S29421   4.214   8.981   3.920
  220POPC  C21429422   4.179   8.962   4.131
  220POPC  H14R29423   4.246   8.874   4.143
  220POPC  H14S29424   4.091   8.948   4.197
  220POPC  C21529425   4.251   9.089   4.171
  220POPC  H15R29426   4.190   9.174   4.131
  220POPC  H15S29427   4.349   9.097   4.120
  220POPC  C21629428   4.261   9.111   4.321
  220POPC  H16R29429   4.167   9.085   4.375
  220POPC  H16S29430   4.270   9.219   4.334
  220POPC  C21729431   4.383   9.062   4.396
  220POPC  H17R29432   4.354   8.975   4.459
  220POPC  H17S29433   4.409   9.147   4.463
  220POPC  C21829434   4.508   9.030   4.316
  220POPC  H18R29435   4.490   8.937   4.258
  220POPC  H18S29436   4.596   9.015   4.381
  220POPC  H18T29437   4.530   9.115   4.248
  220POPC   C3329438   4.279   9.434   2.726
  220POPC   H3X29439   4.270   9.371   2.818
  220POPC   H3Y29440   4.212   9.385   2.654
  220POPC   C3429441   4.226   9.574   2.755
  220POPC   H4X29442   4.117   9.571   2.728
  220POPC   H4Y29443   4.269   9.653   2.691
  220POPC   C3529444   4.228   9.609   2.904
  220POPC   H5X29445   4.185   9.515   2.947
  220POPC   H5Y29446   4.161   9.697   2.921
  220POPC   C3629447   4.350   9.622   2.995
  220POPC   H6X29448   4.413   9.710   2.969
  220POPC   H6Y29449   4.412   9.531   2.989
  220POPC   C3729450   4.296   9.638   3.140
  220POPC   H7X29451   4.197   9.588   3.148
  220POPC   H7Y29452   4.278   9.746   3.159
  220POPC   C3829453   4.382   9.580   3.253
  220POPC   H8X29454   4.353   9.634   3.346
  220POPC   H8Y29455   4.490   9.603   3.234
  220POPC   C3929456   4.361   9.430   3.279
  220POPC   H9X29457   4.454   9.376   3.252
  220POPC   H9Y29458   4.281   9.391   3.212
  220POPC  C31029459   4.322   9.398   3.425
  220POPC  H10X29460   4.219   9.434   3.445
  220POPC  H10Y29461   4.390   9.455   3.493
  220POPC  C31129462   4.333   9.249   3.461
  220POPC  H11X29463   4.436   9.217   3.433
  220POPC  H11Y29464   4.263   9.188   3.400
  220POPC  C31229465   4.309   9.224   3.611
  220POPC  H12X29466   4.204   9.192   3.628
  220POPC  H12Y29467   4.324   9.319   3.666
  220POPC  C31329468   4.406   9.121   3.670
  220POPC  H13X29469   4.498   9.116   3.608
  220POPC  H13Y29470   4.359   9.020   3.667
  220POPC  C31429471   4.453   9.152   3.814
  220POPC  H14X29472   4.366   9.157   3.883
  220POPC  H14Y29473   4.503   9.251   3.814
  220POPC  C31529474   4.550   9.043   3.859
  220POPC  H15X29475   4.634   9.037   3.785
  220POPC  H15Y29476   4.491   8.949   3.853
  220POPC  C31629477   4.607   9.044   4.000
  220POPC  H16X29478   4.528   9.008   4.068
  220POPC  H16Y29479   4.640   9.143   4.033
  220POPC  H16Z29480   4.694   8.975   4.010
  221POPC     N29481   8.616   6.786   2.160
  221POPC   C1229482   8.576   6.729   2.297
  221POPC  H12A29483   8.598   6.622   2.301
  221POPC  H12B29484   8.470   6.737   2.314
  221POPC   C1329485   8.626   6.936   2.174
  221POPC  H13A29486   8.528   6.980   2.186
  221POPC  H13B29487   8.686   6.957   2.263
  221POPC  H13C29488   8.675   6.981   2.089
  221POPC   C1429489   8.753   6.738   2.123
  221POPC  H14A29490   8.788   6.780   2.030
  221POPC  H14B29491   8.825   6.767   2.200
  221POPC  H14C29492   8.759   6.631   2.117
  221POPC   C1529493   8.521   6.749   2.051
  221POPC  H15A29494   8.558   6.786   1.956
  221POPC  H15B29495   8.422   6.791   2.067
  221POPC  H15C29496   8.511   6.642   2.039
  221POPC   C1129497   8.653   6.787   2.419
  221POPC  H11A29498   8.635   6.721   2.507
  221POPC  H11B29499   8.618   6.889   2.444
  221POPC     P29500   8.915   6.839   2.457
  221POPC   O1329501   9.019   6.853   2.352
  221POPC   O1429502   8.943   6.754   2.574
  221POPC   O1229503   8.790   6.786   2.384
  221POPC   O1129504   8.864   6.983   2.502
  221POPC    C129505   8.895   7.096   2.422
  221POPC    HA29506   8.805   7.124   2.364
  221POPC    HB29507   8.977   7.080   2.348
  221POPC    C229508   8.937   7.217   2.511
  221POPC    HS29509   8.976   7.296   2.443
  221POPC   O2129510   9.035   7.191   2.613
  221POPC   C2129511   9.129   7.102   2.592
  221POPC   O2229512   9.176   7.069   2.484
  221POPC   C2229513   9.172   7.044   2.726
  221POPC   H2R29514   9.209   7.130   2.786
  221POPC   H2S29515   9.256   6.974   2.707
  221POPC    C329516   8.812   7.270   2.584
  221POPC    HX29517   8.736   7.275   2.503
  221POPC    HY29518   8.835   7.373   2.620
  221POPC   O3129519   8.772   7.187   2.695
  221POPC   C3129520   8.672   7.099   2.677
  221POPC   O3229521   8.590   7.103   2.588
  221POPC   C3229522   8.671   7.003   2.796
  221POPC   H2X29523   8.633   7.061   2.882
  221POPC   H2Y29524   8.775   6.972   2.818
  221POPC   C2329525   9.056   6.971   2.799
  221POPC   H3R29526   9.033   6.875   2.748
  221POPC   H3S29527   8.966   7.035   2.790
  221POPC   C2429528   9.078   6.942   2.948
  221POPC   H4R29529   9.157   6.865   2.959
  221POPC   H4S29530   8.985   6.900   2.991
  221POPC   C2529531   9.119   7.065   3.030
  221POPC   H5R29532   9.215   7.105   2.992
  221POPC   H5S29533   9.139   7.034   3.134
  221POPC   C2629534   9.014   7.177   3.025
  221POPC   H6R29535   8.916   7.142   3.065
  221POPC   H6S29536   8.997   7.206   2.918
  221POPC   C2729537   9.062   7.301   3.099
  221POPC   H7R29538   9.026   7.391   3.043
  221POPC   H7S29539   9.174   7.304   3.097
  221POPC   C2829540   9.011   7.316   3.242
  221POPC   H8R29541   8.907   7.356   3.238
  221POPC   H8S29542   9.075   7.395   3.288
  221POPC   C2929543   9.012   7.190   3.325
  221POPC   H9129544   9.009   7.094   3.273
  221POPC  C21029545   9.011   7.194   3.458
  221POPC  H10129546   9.018   7.101   3.517
  221POPC  C21129547   9.009   7.323   3.533
  221POPC  H11R29548   8.963   7.406   3.475
  221POPC  H11S29549   9.113   7.354   3.554
  221POPC  C21229550   8.932   7.314   3.663
  221POPC  H12R29551   8.940   7.213   3.709
  221POPC  H12S29552   8.823   7.333   3.646
  221POPC  C21329553   8.991   7.418   3.758
  221POPC  H13R29554   8.990   7.517   3.707
  221POPC  H13S29555   9.097   7.393   3.779
  221POPC  C21429556   8.914   7.428   3.887
  221POPC  H14R29557   8.809   7.455   3.862
  221POPC  H14S29558   8.958   7.508   3.950
  221POPC  C21529559   8.921   7.301   3.971
  221POPC  H15R29560   9.027   7.289   4.003
  221POPC  H15S29561   8.892   7.211   3.913
  221POPC  C21629562   8.834   7.312   4.096
  221POPC  H16R29563   8.865   7.401   4.155
  221POPC  H16S29564   8.853   7.223   4.158
  221POPC  C21729565   8.684   7.322   4.063
  221POPC  H17R29566   8.664   7.407   3.994
  221POPC  H17S29567   8.630   7.346   4.156
  221POPC  C21829568   8.626   7.193   4.005
  221POPC  H18R29569   8.655   7.106   4.068
  221POPC  H18S29570   8.664   7.174   3.902
  221POPC  H18T29571   8.515   7.198   4.002
  221POPC   C3329572   8.588   6.875   2.772
  221POPC   H3X29573   8.643   6.807   2.703
  221POPC   H3Y29574   8.489   6.898   2.727
  221POPC   C3429575   8.565   6.800   2.903
  221POPC   H4X29576   8.661   6.788   2.957
  221POPC   H4Y29577   8.526   6.699   2.881
  221POPC   C3529578   8.463   6.873   2.992
  221POPC   H5X29579   8.364   6.871   2.941
  221POPC   H5Y29580   8.493   6.979   3.004
  221POPC   C3629581   8.449   6.811   3.130
  221POPC   H6X29582   8.448   6.701   3.117
  221POPC   H6Y29583   8.352   6.843   3.175
  221POPC   C3729584   8.562   6.843   3.228
  221POPC   H7X29585   8.660   6.818   3.182
  221POPC   H7Y29586   8.547   6.776   3.315
  221POPC   C3829587   8.564   6.988   3.277
  221POPC   H8X29588   8.467   7.009   3.328
  221POPC   H8Y29589   8.574   7.059   3.192
  221POPC   C3929590   8.677   7.014   3.376
  221POPC   H9X29591   8.675   7.119   3.410
  221POPC   H9Y29592   8.774   6.997   3.323
  221POPC  C31029593   8.670   6.921   3.497
  221POPC  H10X29594   8.679   6.814   3.465
  221POPC  H10Y29595   8.571   6.933   3.548
  221POPC  C31129596   8.783   6.948   3.594
  221POPC  H11X29597   8.769   7.047   3.642
  221POPC  H11Y29598   8.879   6.950   3.537
  221POPC  C31229599   8.793   6.839   3.699
  221POPC  H12X29600   8.814   6.740   3.651
  221POPC  H12Y29601   8.696   6.832   3.752
  221POPC  C31329602   8.905   6.872   3.797
  221POPC  H13X29603   8.887   6.973   3.839
  221POPC  H13Y29604   9.001   6.876   3.740
  221POPC  C31429605   8.920   6.771   3.910
  221POPC  H14X29606   8.999   6.810   3.979
  221POPC  H14Y29607   8.954   6.674   3.869
  221POPC  C31529608   8.792   6.750   3.990
  221POPC  H15X29609   8.711   6.713   3.923
  221POPC  H15Y29610   8.758   6.849   4.030
  221POPC  C31629611   8.807   6.651   4.105
  221POPC  H16X29612   8.890   6.678   4.173
  221POPC  H16Y29613   8.828   6.550   4.067
  221POPC  H16Z29614   8.713   6.647   4.165
  222POPC     N29615   8.479   7.525   2.458
  222POPC   C1229616   8.491   7.501   2.308
  222POPC  H12A29617   8.597   7.497   2.283
  222POPC  H12B29618   8.453   7.587   2.255
  222POPC   C1329619   8.519   7.404   2.534
  222POPC  H13A29620   8.511   7.419   2.641
  222POPC  H13B29621   8.455   7.320   2.509
  222POPC  H13C29622   8.620   7.378   2.511
  222POPC   C1429623   8.563   7.643   2.501
  222POPC  H14A29624   8.669   7.629   2.480
  222POPC  H14B29625   8.535   7.733   2.447
  222POPC  H14C29626   8.550   7.663   2.606
  222POPC   C1529627   8.336   7.548   2.490
  222POPC  H15A29628   8.312   7.543   2.595
  222POPC  H15B29629   8.275   7.473   2.439
  222POPC  H15C29630   8.299   7.641   2.449
  222POPC   C1129631   8.427   7.374   2.243
  222POPC  H11A29632   8.453   7.285   2.303
  222POPC  H11B29633   8.471   7.355   2.143
  222POPC     P29634   8.221   7.493   2.132
  222POPC   O1329635   8.090   7.442   2.088
  222POPC   O1429636   8.312   7.544   2.028
  222POPC   O1229637   8.286   7.383   2.227
  222POPC   O1129638   8.197   7.606   2.239
  222POPC    C129639   8.065   7.652   2.265
  222POPC    HA29640   7.990   7.623   2.188
  222POPC    HB29641   8.068   7.760   2.259
  222POPC    C229642   8.005   7.608   2.403
  222POPC    HS29643   7.900   7.647   2.405
  222POPC   O2129644   8.078   7.660   2.518
  222POPC   C2129645   8.092   7.795   2.523
  222POPC   O2229646   8.048   7.874   2.442
  222POPC   C2229647   8.187   7.841   2.635
  222POPC   H2R29648   8.170   7.950   2.643
  222POPC   H2S29649   8.290   7.825   2.598
  222POPC    C329650   7.996   7.449   2.406
  222POPC    HX29651   7.979   7.418   2.300
  222POPC    HY29652   7.903   7.419   2.457
  222POPC   O3129653   8.108   7.376   2.462
  222POPC   C3129654   8.106   7.244   2.439
  222POPC   O3229655   8.017   7.182   2.382
  222POPC   C3229656   8.236   7.179   2.490
  222POPC   H2X29657   8.318   7.242   2.455
  222POPC   H2Y29658   8.243   7.081   2.438
  222POPC   C2329659   8.173   7.779   2.776
  222POPC   H3R29660   8.182   7.668   2.770
  222POPC   H3S29661   8.074   7.804   2.819
  222POPC   C2429662   8.285   7.836   2.866
  222POPC   H4R29663   8.255   7.938   2.898
  222POPC   H4S29664   8.378   7.845   2.806
  222POPC   C2529665   8.320   7.753   2.991
  222POPC   H5R29666   8.408   7.800   3.041
  222POPC   H5S29667   8.349   7.650   2.960
  222POPC   C2629668   8.206   7.745   3.093
  222POPC   H6R29669   8.122   7.691   3.043
  222POPC   H6S29670   8.170   7.847   3.118
  222POPC   C2729671   8.245   7.665   3.220
  222POPC   H7R29672   8.326   7.593   3.193
  222POPC   H7S29673   8.159   7.603   3.252
  222POPC   C2829674   8.291   7.751   3.339
  222POPC   H8R29675   8.375   7.815   3.306
  222POPC   H8S29676   8.331   7.684   3.418
  222POPC   C2929677   8.180   7.838   3.394
  222POPC   H9129678   8.143   7.913   3.322
  222POPC  C21029679   8.123   7.835   3.515
  222POPC  H10129680   8.044   7.910   3.536
  222POPC  C21129681   8.153   7.744   3.632
  222POPC  H11R29682   8.204   7.652   3.597
  222POPC  H11S29683   8.059   7.711   3.680
  222POPC  C21229684   8.243   7.811   3.738
  222POPC  H12R29685   8.331   7.857   3.687
  222POPC  H12S29686   8.283   7.733   3.806
  222POPC  C21329687   8.175   7.921   3.821
  222POPC  H13R29688   8.078   7.947   3.774
  222POPC  H13S29689   8.236   8.014   3.815
  222POPC  C21429690   8.153   7.893   3.971
  222POPC  H14R29691   8.069   7.959   4.004
  222POPC  H14S29692   8.242   7.923   4.030
  222POPC  C21529693   8.115   7.750   4.009
  222POPC  H15R29694   8.195   7.706   4.072
  222POPC  H15S29695   8.103   7.688   3.918
  222POPC  C21629696   7.982   7.744   4.085
  222POPC  H16R29697   7.906   7.790   4.018
  222POPC  H16S29698   7.989   7.806   4.177
  222POPC  C21729699   7.939   7.602   4.118
  222POPC  H17R29700   7.965   7.535   4.033
  222POPC  H17S29701   7.828   7.598   4.126
  222POPC  C21829702   8.001   7.550   4.248
  222POPC  H18R29703   8.111   7.566   4.247
  222POPC  H18S29704   7.979   7.442   4.263
  222POPC  H18T29705   7.961   7.607   4.335
  222POPC   C3329706   8.252   7.154   2.644
  222POPC   H3X29707   8.342   7.088   2.656
  222POPC   H3Y29708   8.168   7.097   2.685
  222POPC   C3429709   8.278   7.281   2.727
  222POPC   H4X29710   8.229   7.369   2.680
  222POPC   H4Y29711   8.388   7.298   2.728
  222POPC   C3529712   8.236   7.279   2.876
  222POPC   H5X29713   8.126   7.293   2.886
  222POPC   H5Y29714   8.283   7.366   2.927
  222POPC   C3629715   8.270   7.149   2.949
  222POPC   H6X29716   8.344   7.092   2.889
  222POPC   H6Y29717   8.178   7.088   2.954
  222POPC   C3729718   8.327   7.166   3.091
  222POPC   H7X29719   8.422   7.223   3.086
  222POPC   H7Y29720   8.349   7.064   3.129
  222POPC   C3829721   8.233   7.226   3.196
  222POPC   H8X29722   8.139   7.166   3.192
  222POPC   H8Y29723   8.211   7.332   3.172
  222POPC   C3929724   8.290   7.211   3.337
  222POPC   H9X29725   8.397   7.242   3.336
  222POPC   H9Y29726   8.286   7.102   3.362
  222POPC  C31029727   8.217   7.286   3.448
  222POPC  H10X29728   8.110   7.254   3.451
  222POPC  H10Y29729   8.219   7.396   3.430
  222POPC  C31129730   8.285   7.253   3.582
  222POPC  H11X29731   8.387   7.296   3.583
  222POPC  H11Y29732   8.295   7.142   3.588
  222POPC  C31229733   8.209   7.300   3.706
  222POPC  H12X29734   8.100   7.279   3.697
  222POPC  H12Y29735   8.221   7.410   3.715
  222POPC  C31329736   8.263   7.227   3.831
  222POPC  H13X29737   8.374   7.239   3.834
  222POPC  H13Y29738   8.241   7.118   3.821
  222POPC  C31429739   8.205   7.277   3.964
  222POPC  H14X29740   8.256   7.224   4.048
  222POPC  H14Y29741   8.097   7.250   3.969
  222POPC  C31529742   8.220   7.428   3.985
  222POPC  H15X29743   8.195   7.451   4.090
  222POPC  H15Y29744   8.144   7.478   3.920
  222POPC  C31629745   8.357   7.486   3.953
  222POPC  H16X29746   8.363   7.593   3.984
  222POPC  H16Y29747   8.377   7.482   3.844
  222POPC  H16Z29748   8.437   7.430   4.005
  223POPC     N29749   2.882   0.712   2.292
  223POPC   C1229750   2.783   0.597   2.302
  223POPC  H12A29751   2.683   0.634   2.279
  223POPC  H12B29752   2.781   0.563   2.405
  223POPC   C1329753   3.008   0.676   2.364
  223POPC  H13A29754   2.987   0.649   2.468
  223POPC  H13B29755   3.052   0.587   2.319
  223POPC  H13C29756   3.079   0.759   2.362
  223POPC   C1429757   2.915   0.746   2.149
  223POPC  H14A29758   2.984   0.830   2.145
  223POPC  H14B29759   2.962   0.661   2.102
  223POPC  H14C29760   2.826   0.775   2.095
  223POPC   C1529761   2.823   0.835   2.354
  223POPC  H15A29762   2.891   0.919   2.342
  223POPC  H15B29763   2.805   0.823   2.460
  223POPC  H15C29764   2.729   0.861   2.307
  223POPC   C1129765   2.802   0.471   2.212
  223POPC  H11A29766   2.805   0.502   2.105
  223POPC  H11B29767   2.712   0.405   2.222
  223POPC     P29768   2.923   0.291   2.357
  223POPC   O1329769   3.064   0.281   2.400
  223POPC   O1429770   2.861   0.168   2.306
  223POPC   O1229771   2.922   0.401   2.242
  223POPC   O1129772   2.833   0.355   2.472
  223POPC    C129773   2.775   0.262   2.567
  223POPC    HA29774   2.838   0.171   2.582
  223POPC    HB29775   2.675   0.229   2.531
  223POPC    C229776   2.755   0.323   2.710
  223POPC    HS29777   2.690   0.413   2.702
  223POPC   O2129778   2.880   0.357   2.772
  223POPC   C2129779   2.950   0.454   2.721
  223POPC   O2229780   2.911   0.540   2.643
  223POPC   C2229781   3.090   0.453   2.783
  223POPC   H2R29782   3.139   0.549   2.757
  223POPC   H2S29783   3.145   0.370   2.734
  223POPC    C329784   2.687   0.221   2.806
  223POPC    HX29785   2.746   0.127   2.806
  223POPC    HY29786   2.586   0.197   2.764
  223POPC   O3129787   2.670   0.278   2.939
  223POPC   C3129788   2.755   0.240   3.034
  223POPC   O3229789   2.837   0.151   3.027
  223POPC   C3229790   2.727   0.322   3.162
  223POPC   H2X29791   2.715   0.249   3.244
  223POPC   H2Y29792   2.634   0.380   3.150
  223POPC   C2329793   3.091   0.432   2.937
  223POPC   H3R29794   2.998   0.380   2.970
  223POPC   H3S29795   3.095   0.530   2.988
  223POPC   C2429796   3.206   0.342   2.984
  223POPC   H4R29797   3.300   0.371   2.935
  223POPC   H4S29798   3.187   0.237   2.953
  223POPC   C2529799   3.221   0.340   3.136
  223POPC   H5R29800   3.180   0.434   3.179
  223POPC   H5S29801   3.328   0.333   3.162
  223POPC   C2629802   3.153   0.218   3.199
  223POPC   H6R29803   3.208   0.127   3.165
  223POPC   H6S29804   3.051   0.208   3.158
  223POPC   C2729805   3.149   0.222   3.353
  223POPC   H7R29806   3.089   0.308   3.389
  223POPC   H7S29807   3.252   0.237   3.392
  223POPC   C2829808   3.093   0.091   3.408
  223POPC   H8R29809   3.118   0.083   3.516
  223POPC   H8S29810   3.145   0.007   3.356
  223POPC   C2929811   2.945   0.084   3.381
  223POPC   H9129812   2.917   0.080   3.275
  223POPC  C21029813   2.849   0.082   3.474
  223POPC  H10129814   2.744   0.074   3.442
  223POPC  C21129815   2.872   0.086   3.623
  223POPC  H11R29816   2.959   0.024   3.653
  223POPC  H11S29817   2.783   0.040   3.671
  223POPC  C21229818   2.892   0.228   3.679
  223POPC  H12R29819   2.805   0.292   3.651
  223POPC  H12S29820   2.983   0.273   3.633
  223POPC  C21329821   2.909   0.230   3.831
  223POPC  H13R29822   2.914   0.336   3.867
  223POPC  H13S29823   3.007   0.183   3.853
  223POPC  C21429824   2.797   0.156   3.907
  223POPC  H14R29825   2.790   0.051   3.872
  223POPC  H14S29826   2.700   0.206   3.886
  223POPC  C21529827   2.817   0.147   4.059
  223POPC  H15R29828   2.729   0.098   4.106
  223POPC  H15S29829   2.822   0.251   4.099
  223POPC  C21629830   2.944   0.072   4.099
  223POPC  H16R29831   3.029   0.100   4.033
  223POPC  H16S29832   2.931  -0.037   4.089
  223POPC  C21729833   2.987   0.109   4.240
  223POPC  H17R29834   2.918   0.067   4.316
  223POPC  H17S29835   2.979   0.219   4.248
  223POPC  C21829836   3.132   0.071   4.269
  223POPC  H18R29837   3.165   0.117   4.364
  223POPC  H18S29838   3.199   0.106   4.188
  223POPC  H18T29839   3.144  -0.037   4.280
  223POPC   C3329840   2.842   0.420   3.194
  223POPC   H3X29841   2.860   0.488   3.108
  223POPC   H3Y29842   2.935   0.361   3.210
  223POPC   C3429843   2.821   0.505   3.319
  223POPC   H4X29844   2.794   0.438   3.404
  223POPC   H4Y29845   2.737   0.576   3.303
  223POPC   C3529846   2.951   0.581   3.355
  223POPC   H5X29847   2.965   0.666   3.285
  223POPC   H5Y29848   3.037   0.512   3.341
  223POPC   C3629849   2.955   0.628   3.500
  223POPC   H6X29850   3.054   0.674   3.524
  223POPC   H6Y29851   2.945   0.537   3.562
  223POPC   C3729852   2.843   0.728   3.533
  223POPC   H7X29853   2.747   0.688   3.496
  223POPC   H7Y29854   2.863   0.824   3.481
  223POPC   C3829855   2.827   0.754   3.684
  223POPC   H8X29856   2.743   0.825   3.699
  223POPC   H8Y29857   2.919   0.802   3.724
  223POPC   C3929858   2.797   0.625   3.761
  223POPC   H9X29859   2.878   0.550   3.753
  223POPC   H9Y29860   2.709   0.576   3.716
  223POPC  C31029861   2.773   0.650   3.909
  223POPC  H10X29862   2.720   0.564   3.956
  223POPC  H10Y29863   2.709   0.740   3.922
  223POPC  C31129864   2.907   0.670   3.981
  223POPC  H11X29865   2.972   0.740   3.924
  223POPC  H11Y29866   2.961   0.573   3.987
  223POPC  C31229867   2.885   0.727   4.120
  223POPC  H12X29868   2.778   0.751   4.134
  223POPC  H12Y29869   2.937   0.824   4.130
  223POPC  C31329870   2.928   0.633   4.231
  223POPC  H13X29871   2.931   0.697   4.322
  223POPC  H13Y29872   3.030   0.593   4.214
  223POPC  C31429873   2.833   0.514   4.245
  223POPC  H14X29874   2.852   0.443   4.162
  223POPC  H14Y29875   2.729   0.551   4.231
  223POPC  C31529876   2.842   0.441   4.379
  223POPC  H15X29877   2.911   0.355   4.372
  223POPC  H15Y29878   2.741   0.399   4.398
  223POPC  C31629879   2.889   0.528   4.497
  223POPC  H16X29880   2.993   0.561   4.479
  223POPC  H16Y29881   2.887   0.473   4.593
  223POPC  H16Z29882   2.828   0.620   4.504
  224POPC     N29883   3.201  -0.273   2.212
  224POPC   C1229884   3.337  -0.299   2.148
  224POPC  H12A29885   3.340  -0.248   2.052
  224POPC  H12B29886   3.348  -0.405   2.130
  224POPC   C1329887   3.191  -0.344   2.343
  224POPC  H13A29888   3.096  -0.327   2.392
  224POPC  H13B29889   3.210  -0.450   2.334
  224POPC  H13C29890   3.273  -0.310   2.408
  224POPC   C1429891   3.178  -0.128   2.241
  224POPC  H14A29892   3.272  -0.079   2.260
  224POPC  H14B29893   3.127  -0.078   2.159
  224POPC  H14C29894   3.115  -0.116   2.329
  224POPC   C1529895   3.087  -0.321   2.126
  224POPC  H15A29896   3.003  -0.250   2.133
  224POPC  H15B29897   3.050  -0.416   2.162
  224POPC  H15C29898   3.117  -0.335   2.023
  224POPC   C1129899   3.464  -0.255   2.225
  224POPC  H11A29900   3.461  -0.144   2.237
  224POPC  H11B29901   3.553  -0.279   2.162
  224POPC     P29902   3.572  -0.265   2.464
  224POPC   O1329903   3.713  -0.273   2.417
  224POPC   O1429904   3.537  -0.331   2.591
  224POPC   O1229905   3.475  -0.321   2.350
  224POPC   O1129906   3.532  -0.111   2.471
  224POPC    C129907   3.397  -0.080   2.503
  224POPC    HA29908   3.340  -0.164   2.550
  224POPC    HB29909   3.347  -0.049   2.410
  224POPC    C229910   3.388   0.040   2.598
  224POPC    HS29911   3.454   0.120   2.557
  224POPC   O2129912   3.425  -0.002   2.730
  224POPC   C2129913   3.497   0.084   2.799
  224POPC   O2229914   3.537   0.192   2.759
  224POPC   C2229915   3.526   0.023   2.935
  224POPC   H2R29916   3.625  -0.026   2.929
  224POPC   H2S29917   3.452  -0.056   2.959
  224POPC    C329918   3.241   0.088   2.598
  224POPC    HX29919   3.212   0.115   2.494
  224POPC    HY29920   3.234   0.181   2.659
  224POPC   O3129921   3.157  -0.021   2.641
  224POPC   C3129922   3.091   0.002   2.754
  224POPC   O3229923   3.079   0.111   2.806
  224POPC   C3229924   3.027  -0.125   2.807
  224POPC   H2X29925   3.054  -0.208   2.739
  224POPC   H2Y29926   2.918  -0.108   2.800
  224POPC   C2329927   3.524   0.131   3.045
  224POPC   H3R29928   3.422   0.173   3.055
  224POPC   H3S29929   3.592   0.214   3.015
  224POPC   C2429930   3.569   0.077   3.180
  224POPC   H4R29931   3.615   0.160   3.238
  224POPC   H4S29932   3.645  -0.003   3.166
  224POPC   C2529933   3.454   0.031   3.268
  224POPC   H5R29934   3.393  -0.043   3.213
  224POPC   H5S29935   3.393   0.122   3.286
  224POPC   C2629936   3.501  -0.023   3.403
  224POPC   H6R29937   3.411  -0.038   3.467
  224POPC   H6S29938   3.564   0.053   3.452
  224POPC   C2729939   3.576  -0.156   3.392
  224POPC   H7R29940   3.672  -0.144   3.336
  224POPC   H7S29941   3.513  -0.225   3.331
  224POPC   C2829942   3.602  -0.222   3.529
  224POPC   H8R29943   3.619  -0.331   3.511
  224POPC   H8S29944   3.508  -0.215   3.588
  224POPC   C2929945   3.718  -0.167   3.608
  224POPC   H9129946   3.813  -0.223   3.596
  224POPC  C21029947   3.718  -0.058   3.687
  224POPC  H10129948   3.811  -0.029   3.737
  224POPC  C21129949   3.600   0.032   3.714
  224POPC  H11R29950   3.505  -0.010   3.675
  224POPC  H11S29951   3.616   0.130   3.662
  224POPC  C21229952   3.580   0.062   3.863
  224POPC  H12R29953   3.672   0.110   3.903
  224POPC  H12S29954   3.565  -0.034   3.918
  224POPC  C21329955   3.461   0.155   3.889
  224POPC  H13R29956   3.366   0.100   3.870
  224POPC  H13S29957   3.465   0.241   3.819
  224POPC  C21429958   3.464   0.206   4.033
  224POPC  H14R29959   3.562   0.254   4.054
  224POPC  H14S29960   3.454   0.117   4.100
  224POPC  C21529961   3.353   0.306   4.069
  224POPC  H15R29962   3.254   0.263   4.040
  224POPC  H15S29963   3.366   0.402   4.014
  224POPC  C21629964   3.354   0.330   4.221
  224POPC  H16R29965   3.442   0.392   4.249
  224POPC  H16S29966   3.368   0.231   4.270
  224POPC  C21729967   3.227   0.393   4.276
  224POPC  H17R29968   3.139   0.343   4.230
  224POPC  H17S29969   3.223   0.499   4.244
  224POPC  C21829970   3.215   0.382   4.429
  224POPC  H18R29971   3.116   0.411   4.466
  224POPC  H18S29972   3.290   0.443   4.481
  224POPC  H18T29973   3.229   0.277   4.461
  224POPC   C3329974   3.060  -0.164   2.954
  224POPC   H3X29975   2.989  -0.244   2.983
  224POPC   H3Y29976   3.042  -0.079   3.023
  224POPC   C3429977   3.201  -0.222   2.973
  224POPC   H4X29978   3.271  -0.136   2.980
  224POPC   H4Y29979   3.230  -0.281   2.883
  224POPC   C3529980   3.220  -0.313   3.096
  224POPC   H5X29981   3.328  -0.339   3.103
  224POPC   H5Y29982   3.164  -0.408   3.081
  224POPC   C3629983   3.176  -0.251   3.229
  224POPC   H6X29984   3.065  -0.241   3.232
  224POPC   H6Y29985   3.217  -0.148   3.234
  224POPC   C3729986   3.223  -0.328   3.354
  224POPC   H7X29987   3.333  -0.339   3.350
  224POPC   H7Y29988   3.179  -0.430   3.355
  224POPC   C3829989   3.184  -0.254   3.483
  224POPC   H8X29990   3.074  -0.241   3.487
  224POPC   H8Y29991   3.230  -0.152   3.478
  224POPC   C3929992   3.232  -0.319   3.614
  224POPC   H9X29993   3.341  -0.339   3.608
  224POPC   H9Y29994   3.181  -0.416   3.629
  224POPC  C31029995   3.204  -0.225   3.733
  224POPC  H10X29996   3.094  -0.227   3.753
  224POPC  H10Y29997   3.231  -0.121   3.705
  224POPC  C31129998   3.281  -0.259   3.861
  224POPC  H11X29999   3.389  -0.234   3.847
  224POPC  H11Y30000   3.274  -0.368   3.879
  224POPC  C31230001   3.226  -0.186   3.984
  224POPC  H12X30002   3.116  -0.197   3.987
  224POPC  H12Y30003   3.248  -0.077   3.976
  224POPC  C31330004   3.283  -0.240   4.117
  224POPC  H13X30005   3.250  -0.345   4.131
  224POPC  H13Y30006   3.239  -0.183   4.200
  224POPC  C31430007   3.435  -0.232   4.129
  224POPC  H14X30008   3.470  -0.129   4.104
  224POPC  H14Y30009   3.479  -0.301   4.054
  224POPC  C31530010   3.487  -0.271   4.268
  224POPC  H15X30011   3.597  -0.287   4.261
  224POPC  H15Y30012   3.440  -0.368   4.294
  224POPC  C31630013   3.460  -0.170   4.380
  224POPC  H16X30014   3.351  -0.158   4.398
  224POPC  H16Y30015   3.502  -0.071   4.354
  224POPC  H16Z30016   3.507  -0.204   4.475
  225POPC     N30017   7.401   0.690   2.219
  225POPC   C1230018   7.478   0.801   2.291
  225POPC  H12A30019   7.521   0.867   2.216
  225POPC  H12B30020   7.560   0.759   2.348
  225POPC   C1330021   7.363   0.582   2.316
  225POPC  H13A30022   7.450   0.540   2.363
  225POPC  H13B30023   7.299   0.626   2.393
  225POPC  H13C30024   7.311   0.500   2.267
  225POPC   C1430025   7.277   0.755   2.165
  225POPC  H14A30026   7.209   0.687   2.117
  225POPC  H14B30027   7.223   0.807   2.246
  225POPC  H14C30028   7.302   0.836   2.097
  225POPC   C1530029   7.478   0.633   2.105
  225POPC  H15A30030   7.423   0.553   2.055
  225POPC  H15B30031   7.573   0.591   2.137
  225POPC  H15C30032   7.497   0.707   2.028
  225POPC   C1130033   7.396   0.896   2.382
  225POPC  H11A30034   7.467   0.947   2.451
  225POPC  H11B30035   7.324   0.838   2.445
  225POPC     P30036   7.209   1.082   2.350
  225POPC   O1330037   7.093   0.996   2.382
  225POPC   O1430038   7.186   1.191   2.251
  225POPC   O1230039   7.330   0.992   2.300
  225POPC   O1130040   7.271   1.147   2.483
  225POPC    C130041   7.399   1.214   2.482
  225POPC    HA30042   7.381   1.321   2.458
  225POPC    HB30043   7.469   1.173   2.406
  225POPC    C230044   7.476   1.211   2.620
  225POPC    HS30045   7.547   1.297   2.619
  225POPC   O2130046   7.551   1.089   2.632
  225POPC   C2130047   7.623   1.070   2.743
  225POPC   O2230048   7.650   1.152   2.828
  225POPC   C2230049   7.664   0.921   2.744
  225POPC   H2R30050   7.733   0.911   2.657
  225POPC   H2S30051   7.573   0.860   2.725
  225POPC    C330052   7.378   1.228   2.741
  225POPC    HX30053   7.309   1.312   2.717
  225POPC    HY30054   7.435   1.256   2.832
  225POPC   O3130055   7.305   1.108   2.765
  225POPC   C3130056   7.218   1.112   2.864
  225POPC   O3230057   7.208   1.201   2.947
  225POPC   C3230058   7.125   0.994   2.848
  225POPC   H2X30059   7.094   0.989   2.741
  225POPC   H2Y30060   7.035   1.012   2.910
  225POPC   C2330061   7.736   0.871   2.872
  225POPC   H3R30062   7.794   0.952   2.921
  225POPC   H3S30063   7.810   0.795   2.839
  225POPC   C2430064   7.644   0.800   2.973
  225POPC   H4R30065   7.707   0.739   3.042
  225POPC   H4S30066   7.577   0.730   2.919
  225POPC   C2530067   7.559   0.895   3.059
  225POPC   H5R30068   7.488   0.830   3.116
  225POPC   H5S30069   7.498   0.963   2.996
  225POPC   C2630070   7.640   0.975   3.162
  225POPC   H6R30071   7.652   1.080   3.125
  225POPC   H6S30072   7.742   0.932   3.173
  225POPC   C2730073   7.571   0.974   3.299
  225POPC   H7R30074   7.555   0.869   3.331
  225POPC   H7S30075   7.471   1.022   3.287
  225POPC   C2830076   7.650   1.046   3.410
  225POPC   H8R30077   7.685   1.143   3.369
  225POPC   H8S30078   7.741   0.987   3.435
  225POPC   C2930079   7.564   1.070   3.532
  225POPC   H9130080   7.523   1.171   3.542
  225POPC  C21030081   7.533   0.978   3.624
  225POPC  H10130082   7.466   1.007   3.707
  225POPC  C21130083   7.577   0.834   3.624
  225POPC  H11R30084   7.682   0.825   3.588
  225POPC  H11S30085   7.513   0.775   3.555
  225POPC  C21230086   7.570   0.764   3.761
  225POPC  H12R30087   7.611   0.661   3.751
  225POPC  H12S30088   7.466   0.754   3.798
  225POPC  C21330089   7.650   0.839   3.867
  225POPC  H13R30090   7.581   0.879   3.946
  225POPC  H13S30091   7.698   0.928   3.820
  225POPC  C21430092   7.764   0.756   3.924
  225POPC  H14R30093   7.826   0.717   3.841
  225POPC  H14S30094   7.727   0.670   3.985
  225POPC  C21530095   7.851   0.849   4.006
  225POPC  H15R30096   7.880   0.937   3.945
  225POPC  H15S30097   7.946   0.797   4.030
  225POPC  C21630098   7.781   0.894   4.133
  225POPC  H16R30099   7.744   0.802   4.185
  225POPC  H16S30100   7.691   0.957   4.118
  225POPC  C21730101   7.882   0.959   4.225
  225POPC  H17R30102   7.978   0.908   4.207
  225POPC  H17S30103   7.846   0.934   4.326
  225POPC  C21830104   7.916   1.107   4.209
  225POPC  H18R30105   7.833   1.162   4.164
  225POPC  H18S30106   8.006   1.117   4.144
  225POPC  H18T30107   7.940   1.153   4.307
  225POPC   C3330108   7.196   0.863   2.890
  225POPC   H3X30109   7.299   0.857   2.848
  225POPC   H3Y30110   7.138   0.778   2.847
  225POPC   C3430111   7.198   0.848   3.042
  225POPC   H4X30112   7.099   0.880   3.078
  225POPC   H4Y30113   7.274   0.915   3.089
  225POPC   C3530114   7.216   0.703   3.088
  225POPC   H5X30115   7.322   0.671   3.075
  225POPC   H5Y30116   7.154   0.639   3.021
  225POPC   C3630117   7.169   0.677   3.232
  225POPC   H6X30118   7.168   0.566   3.246
  225POPC   H6Y30119   7.064   0.713   3.244
  225POPC   C3730120   7.258   0.739   3.341
  225POPC   H7X30121   7.245   0.849   3.343
  225POPC   H7Y30122   7.364   0.719   3.314
  225POPC   C3830123   7.231   0.678   3.480
  225POPC   H8X30124   7.329   0.655   3.528
  225POPC   H8Y30125   7.178   0.581   3.469
  225POPC   C3930126   7.150   0.768   3.575
  225POPC   H9X30127   7.057   0.716   3.605
  225POPC   H9Y30128   7.121   0.862   3.523
  225POPC  C31030129   7.227   0.807   3.703
  225POPC  H10X30130   7.313   0.869   3.672
  225POPC  H10Y30131   7.265   0.716   3.754
  225POPC  C31130132   7.142   0.890   3.798
  225POPC  H11X30133   7.060   0.824   3.835
  225POPC  H11Y30134   7.099   0.972   3.738
  225POPC  C31230135   7.214   0.954   3.919
  225POPC  H12X30136   7.250   1.055   3.888
  225POPC  H12Y30137   7.303   0.894   3.949
  225POPC  C31330138   7.119   0.967   4.039
  225POPC  H13X30139   7.109   0.867   4.087
  225POPC  H13Y30140   7.018   0.994   4.002
  225POPC  C31430141   7.158   1.070   4.146
  225POPC  H14X30142   7.257   1.045   4.189
  225POPC  H14Y30143   7.083   1.063   4.228
  225POPC  C31530144   7.160   1.214   4.097
  225POPC  H15X30145   7.070   1.236   4.035
  225POPC  H15Y30146   7.250   1.231   4.033
  225POPC  C31630147   7.164   1.310   4.216
  225POPC  H16X30148   7.067   1.304   4.272
  225POPC  H16Y30149   7.180   1.414   4.182
  225POPC  H16Z30150   7.245   1.282   4.286
  226POPC     N30151   5.291   9.305   2.147
  226POPC   C1230152   5.323   9.243   2.282
  226POPC  H12A30153   5.362   9.321   2.347
  226POPC  H12B30154   5.399   9.168   2.270
  226POPC   C1330155   5.237   9.445   2.169
  226POPC  H13A30156   5.308   9.511   2.216
  226POPC  H13B30157   5.197   9.490   2.079
  226POPC  H13C30158   5.150   9.439   2.237
  226POPC   C1430159   5.407   9.304   2.056
  226POPC  H14A30160   5.397   9.374   1.972
  226POPC  H14B30161   5.499   9.334   2.105
  226POPC  H14C30162   5.423   9.206   2.013
  226POPC   C1530163   5.182   9.228   2.081
  226POPC  H15A30164   5.205   9.123   2.080
  226POPC  H15B30165   5.160   9.266   1.982
  226POPC  H15C30166   5.092   9.243   2.141
  226POPC   C1130167   5.203   9.186   2.362
  226POPC  H11A30168   5.238   9.160   2.465
  226POPC  H11B30169   5.165   9.093   2.315
  226POPC     P30170   4.978   9.270   2.461
  226POPC   O1330171   4.938   9.127   2.462
  226POPC   O1430172   4.874   9.365   2.418
  226POPC   O1230173   5.102   9.286   2.365
  226POPC   O1130174   5.040   9.314   2.601
  226POPC    C130175   5.021   9.450   2.640
  226POPC    HA30176   4.933   9.451   2.707
  226POPC    HB30177   5.003   9.520   2.554
  226POPC    C230178   5.139   9.514   2.718
  226POPC    HS30179   5.207   9.566   2.647
  226POPC   O2130180   5.211   9.417   2.794
  226POPC   C2130181   5.298   9.342   2.731
  226POPC   O2230182   5.349   9.361   2.622
  226POPC   C2230183   5.342   9.233   2.829
  226POPC   H2R30184   5.328   9.274   2.931
  226POPC   H2S30185   5.450   9.214   2.814
  226POPC    C330186   5.084   9.617   2.818
  226POPC    HX30187   5.031   9.698   2.762
  226POPC    HY30188   5.174   9.661   2.869
  226POPC   O3130189   4.995   9.553   2.913
  226POPC   C3130190   4.971   9.634   3.016
  226POPC   O3230191   5.010   9.749   3.019
  226POPC   C3230192   4.891   9.568   3.127
  226POPC   H2X30193   4.880   9.461   3.104
  226POPC   H2Y30194   4.789   9.612   3.129
  226POPC   C2330195   5.257   9.106   2.809
  226POPC   H3R30196   5.299   9.048   2.724
  226POPC   H3S30197   5.153   9.133   2.779
  226POPC   C2430198   5.248   9.017   2.934
  226POPC   H4R30199   5.350   8.982   2.960
  226POPC   H4S30200   5.187   8.928   2.908
  226POPC   C2530201   5.185   9.084   3.058
  226POPC   H5R30202   5.253   9.163   3.097
  226POPC   H5S30203   5.174   9.008   3.139
  226POPC   C2630204   5.048   9.146   3.029
  226POPC   H6R30205   4.981   9.070   2.982
  226POPC   H6S30206   5.061   9.229   2.955
  226POPC   C2730207   4.977   9.206   3.152
  226POPC   H7R30208   4.894   9.266   3.111
  226POPC   H7S30209   5.047   9.273   3.206
  226POPC   C2830210   4.915   9.105   3.250
  226POPC   H8R30211   4.996   9.045   3.294
  226POPC   H8S30212   4.849   9.036   3.193
  226POPC   C2930213   4.834   9.180   3.353
  226POPC   H9130214   4.752   9.242   3.312
  226POPC  C21030215   4.853   9.178   3.486
  226POPC  H10130216   4.788   9.238   3.552
  226POPC  C21130217   4.960   9.098   3.556
  226POPC  H11R30218   4.973   8.999   3.506
  226POPC  H11S30219   4.930   9.076   3.661
  226POPC  C21230220   5.096   9.169   3.558
  226POPC  H12R30221   5.091   9.255   3.628
  226POPC  H12S30222   5.122   9.207   3.457
  226POPC  C21330223   5.207   9.072   3.602
  226POPC  H13R30224   5.243   9.017   3.512
  226POPC  H13S30225   5.163   8.998   3.672
  226POPC  C21430226   5.324   9.140   3.672
  226POPC  H14R30227   5.289   9.206   3.754
  226POPC  H14S30228   5.379   9.203   3.599
  226POPC  C21530229   5.420   9.034   3.728
  226POPC  H15R30230   5.521   9.078   3.736
  226POPC  H15S30231   5.426   8.952   3.654
  226POPC  C21630232   5.379   8.977   3.865
  226POPC  H16R30233   5.437   8.883   3.881
  226POPC  H16S30234   5.272   8.949   3.865
  226POPC  C21730235   5.410   9.071   3.982
  226POPC  H17R30236   5.332   9.150   3.987
  226POPC  H17S30237   5.507   9.122   3.962
  226POPC  C21830238   5.421   8.998   4.115
  226POPC  H18R30239   5.438   9.070   4.199
  226POPC  H18S30240   5.505   8.925   4.114
  226POPC  H18T30241   5.327   8.941   4.135
  226POPC   C3330242   4.959   9.589   3.264
  226POPC   H3X30243   4.904   9.531   3.341
  226POPC   H3Y30244   4.953   9.696   3.294
  226POPC   C3430245   5.106   9.546   3.262
  226POPC   H4X30246   5.170   9.630   3.229
  226POPC   H4Y30247   5.119   9.464   3.188
  226POPC   C3530248   5.154   9.494   3.397
  226POPC   H5X30249   5.087   9.409   3.425
  226POPC   H5Y30250   5.138   9.572   3.474
  226POPC   C3630251   5.299   9.444   3.394
  226POPC   H6X30252   5.323   9.408   3.292
  226POPC   H6Y30253   5.307   9.355   3.461
  226POPC   C3730254   5.403   9.546   3.440
  226POPC   H7X30255   5.407   9.630   3.366
  226POPC   H7Y30256   5.504   9.499   3.442
  226POPC   C3830257   5.375   9.608   3.577
  226POPC   H8X30258   5.286   9.673   3.565
  226POPC   H8Y30259   5.461   9.674   3.602
  226POPC   C3930260   5.347   9.511   3.693
  226POPC   H9X30261   5.445   9.470   3.728
  226POPC   H9Y30262   5.285   9.426   3.659
  226POPC  C31030263   5.275   9.575   3.813
  226POPC  H10X30264   5.336   9.657   3.852
  226POPC  H10Y30265   5.267   9.497   3.892
  226POPC  C31130266   5.132   9.628   3.790
  226POPC  H11X30267   5.130   9.706   3.712
  226POPC  H11Y30268   5.099   9.677   3.885
  226POPC  C31230269   5.035   9.515   3.754
  226POPC  H12X30270   5.067   9.422   3.805
  226POPC  H12Y30271   5.040   9.497   3.645
  226POPC  C31330272   4.889   9.543   3.792
  226POPC  H13X30273   4.826   9.462   3.747
  226POPC  H13Y30274   4.857   9.640   3.749
  226POPC  C31430275   4.865   9.546   3.942
  226POPC  H14X30276   4.899   9.643   3.985
  226POPC  H14Y30277   4.924   9.464   3.990
  226POPC  C31530278   4.718   9.524   3.979
  226POPC  H15X30279   4.653   9.569   3.901
  226POPC  H15Y30280   4.697   9.575   4.075
  226POPC  C31630281   4.684   9.377   3.995
  226POPC  H16X30282   4.577   9.363   4.018
  226POPC  H16Y30283   4.744   9.332   4.078
  226POPC  H16Z30284   4.708   9.321   3.902
  227POPC     N30285   8.007   8.047   2.139
  227POPC   C1230286   7.875   8.000   2.200
  227POPC  H12A30287   7.895   7.930   2.282
  227POPC  H12B30288   7.815   7.946   2.128
  227POPC   C1330289   7.976   8.155   2.039
  227POPC  H13A30290   7.909   8.229   2.080
  227POPC  H13B30291   8.067   8.202   2.003
  227POPC  H13C30292   7.930   8.110   1.951
  227POPC   C1430293   8.087   8.104   2.252
  227POPC  H14A30294   8.097   8.029   2.330
  227POPC  H14B30295   8.183   8.138   2.220
  227POPC  H14C30296   8.028   8.181   2.302
  227POPC   C1530297   8.082   7.938   2.070
  227POPC  H15A30298   8.032   7.910   1.978
  227POPC  H15B30299   8.093   7.850   2.132
  227POPC  H15C30300   8.181   7.972   2.043
  227POPC   C1130301   7.788   8.110   2.266
  227POPC  H11A30302   7.681   8.078   2.268
  227POPC  H11B30303   7.787   8.204   2.208
  227POPC     P30304   7.785   8.041   2.515
  227POPC   O1330305   7.891   8.018   2.616
  227POPC   O1430306   7.725   7.922   2.451
  227POPC   O1230307   7.840   8.136   2.397
  227POPC   O1130308   7.672   8.129   2.582
  227POPC    C130309   7.653   8.269   2.551
  227POPC    HA30310   7.552   8.300   2.587
  227POPC    HB30311   7.655   8.285   2.441
  227POPC    C230312   7.757   8.367   2.616
  227POPC    HS30313   7.746   8.465   2.564
  227POPC   O2130314   7.890   8.316   2.597
  227POPC   C2130315   7.991   8.389   2.632
  227POPC   O2230316   7.988   8.507   2.662
  227POPC   C2230317   8.120   8.310   2.606
  227POPC   H2R30318   8.141   8.318   2.498
  227POPC   H2S30319   8.100   8.203   2.629
  227POPC    C330320   7.729   8.392   2.768
  227POPC    HX30321   7.625   8.428   2.780
  227POPC    HY30322   7.793   8.475   2.804
  227POPC   O3130323   7.760   8.274   2.846
  227POPC   C3130324   7.656   8.206   2.894
  227POPC   O3230325   7.541   8.244   2.894
  227POPC   C3230326   7.705   8.078   2.962
  227POPC   H2X30327   7.804   8.051   2.918
  227POPC   H2Y30328   7.633   7.998   2.938
  227POPC   C2330329   8.240   8.363   2.688
  227POPC   H3R30330   8.265   8.467   2.657
  227POPC   H3S30331   8.328   8.298   2.665
  227POPC   C2430332   8.216   8.361   2.839
  227POPC   H4R30333   8.154   8.450   2.864
  227POPC   H4S30334   8.313   8.373   2.893
  227POPC   C2530335   8.147   8.233   2.889
  227POPC   H5R30336   8.212   8.146   2.865
  227POPC   H5S30337   8.048   8.217   2.839
  227POPC   C2630338   8.118   8.235   3.039
  227POPC   H6R30339   8.216   8.251   3.089
  227POPC   H6S30340   8.079   8.136   3.071
  227POPC   C2730341   8.015   8.343   3.076
  227POPC   H7R30342   7.918   8.319   3.028
  227POPC   H7S30343   8.046   8.442   3.035
  227POPC   C2830344   7.993   8.363   3.226
  227POPC   H8R30345   7.937   8.277   3.270
  227POPC   H8S30346   7.932   8.454   3.242
  227POPC   C2930347   8.130   8.380   3.285
  227POPC   H9130348   8.188   8.461   3.238
  227POPC  C21030349   8.187   8.308   3.381
  227POPC  H10130350   8.285   8.339   3.419
  227POPC  C21130351   8.132   8.192   3.456
  227POPC  H11R30352   8.189   8.101   3.428
  227POPC  H11S30353   8.025   8.174   3.435
  227POPC  C21230354   8.150   8.217   3.605
  227POPC  H12R30355   8.247   8.265   3.631
  227POPC  H12S30356   8.152   8.117   3.652
  227POPC  C21330357   8.034   8.296   3.666
  227POPC  H13R30358   7.942   8.286   3.605
  227POPC  H13S30359   8.059   8.404   3.670
  227POPC  C21430360   8.007   8.244   3.806
  227POPC  H14R30361   8.105   8.207   3.845
  227POPC  H14S30362   7.940   8.156   3.800
  227POPC  C21530363   7.954   8.350   3.903
  227POPC  H15R30364   7.858   8.315   3.948
  227POPC  H15S30365   7.935   8.446   3.851
  227POPC  C21630366   8.056   8.369   4.015
  227POPC  H16R30367   8.031   8.458   4.078
  227POPC  H16S30368   8.156   8.387   3.968
  227POPC  C21730369   8.062   8.244   4.102
  227POPC  H17R30370   8.044   8.154   4.039
  227POPC  H17S30371   7.975   8.251   4.170
  227POPC  C21830372   8.192   8.222   4.178
  227POPC  H18R30373   8.228   8.117   4.166
  227POPC  H18S30374   8.175   8.238   4.287
  227POPC  H18T30375   8.272   8.291   4.144
  227POPC   C3330376   7.717   8.094   3.116
  227POPC   H3X30377   7.619   8.126   3.160
  227POPC   H3Y30378   7.791   8.175   3.137
  227POPC   C3430379   7.765   7.967   3.185
  227POPC   H4X30380   7.835   7.914   3.116
  227POPC   H4Y30381   7.679   7.899   3.204
  227POPC   C3530382   7.840   7.994   3.317
  227POPC   H5X30383   7.928   8.058   3.294
  227POPC   H5Y30384   7.880   7.898   3.355
  227POPC   C3630385   7.753   8.062   3.424
  227POPC   H6X30386   7.649   8.023   3.414
  227POPC   H6Y30387   7.748   8.171   3.403
  227POPC   C3730388   7.796   8.036   3.570
  227POPC   H7X30389   7.739   8.104   3.638
  227POPC   H7Y30390   7.904   8.060   3.583
  227POPC   C3830391   7.769   7.890   3.608
  227POPC   H8X30392   7.830   7.829   3.539
  227POPC   H8Y30393   7.662   7.866   3.586
  227POPC   C3930394   7.803   7.839   3.748
  227POPC   H9X30395   7.901   7.871   3.784
  227POPC   H9Y30396   7.812   7.728   3.746
  227POPC  C31030397   7.694   7.866   3.851
  227POPC  H10X30398   7.697   7.782   3.924
  227POPC  H10Y30399   7.594   7.866   3.807
  227POPC  C31130400   7.716   7.997   3.923
  227POPC  H11X30401   7.642   8.072   3.888
  227POPC  H11Y30402   7.817   8.037   3.902
  227POPC  C31230403   7.705   7.971   4.072
  227POPC  H12X30404   7.806   7.947   4.111
  227POPC  H12Y30405   7.637   7.885   4.090
  227POPC  C31330406   7.647   8.087   4.147
  227POPC  H13X30407   7.703   8.177   4.113
  227POPC  H13Y30408   7.661   8.073   4.257
  227POPC  C31430409   7.496   8.092   4.123
  227POPC  H14X30410   7.453   7.995   4.152
  227POPC  H14Y30411   7.475   8.109   4.015
  227POPC  C31530412   7.432   8.202   4.205
  227POPC  H15X30413   7.418   8.168   4.310
  227POPC  H15Y30414   7.332   8.228   4.163
  227POPC  C31630415   7.524   8.322   4.202
  227POPC  H16X30416   7.473   8.404   4.251
  227POPC  H16Y30417   7.549   8.349   4.098
  227POPC  H16Z30418   7.618   8.306   4.258
  228POPC     N30419   0.910   7.253   2.455
  228POPC   C1230420   0.973   7.265   2.316
  228POPC  H12A30421   1.001   7.167   2.282
  228POPC  H12B30422   1.063   7.325   2.326
  228POPC   C1330423   0.903   7.391   2.512
  228POPC  H13A30424   1.002   7.438   2.518
  228POPC  H13B30425   0.851   7.457   2.442
  228POPC  H13C30426   0.857   7.397   2.609
  228POPC   C1430427   0.772   7.195   2.448
  228POPC  H14A30428   0.717   7.250   2.373
  228POPC  H14B30429   0.771   7.090   2.421
  228POPC  H14C30430   0.721   7.203   2.543
  228POPC   C1530431   0.993   7.167   2.547
  228POPC  H15A30432   0.952   7.170   2.648
  228POPC  H15B30433   1.095   7.202   2.555
  228POPC  H15C30434   0.991   7.062   2.517
  228POPC   C1130435   0.892   7.330   2.200
  228POPC  H11A30436   0.795   7.278   2.189
  228POPC  H11B30437   0.949   7.313   2.105
  228POPC     P30438   0.982   7.575   2.214
  228POPC   O1330439   1.049   7.582   2.084
  228POPC   O1430440   1.065   7.540   2.331
  228POPC   O1230441   0.864   7.469   2.216
  228POPC   O1130442   0.900   7.708   2.237
  228POPC    C130443   0.800   7.706   2.339
  228POPC    HA30444   0.762   7.605   2.369
  228POPC    HB30445   0.711   7.763   2.307
  228POPC    C230446   0.854   7.777   2.463
  228POPC    HS30447   0.895   7.875   2.426
  228POPC   O2130448   0.955   7.695   2.526
  228POPC   C2130449   1.045   7.766   2.590
  228POPC   O2230450   1.038   7.887   2.609
  228POPC   C2230451   1.163   7.678   2.627
  228POPC   H2R30452   1.252   7.742   2.612
  228POPC   H2S30453   1.173   7.596   2.552
  228POPC    C330454   0.740   7.802   2.560
  228POPC    HX30455   0.657   7.855   2.508
  228POPC    HY30456   0.784   7.871   2.635
  228POPC   O3130457   0.690   7.677   2.613
  228POPC   C3130458   0.712   7.663   2.743
  228POPC   O3230459   0.749   7.750   2.819
  228POPC   C3230460   0.687   7.518   2.782
  228POPC   H2X30461   0.784   7.466   2.788
  228POPC   H2Y30462   0.625   7.470   2.703
  228POPC   C2330463   1.160   7.623   2.771
  228POPC   H3R30464   1.116   7.697   2.841
  228POPC   H3S30465   1.266   7.604   2.802
  228POPC   C2430466   1.087   7.488   2.780
  228POPC   H4R30467   1.140   7.418   2.712
  228POPC   H4S30468   0.984   7.504   2.743
  228POPC   C2530469   1.081   7.425   2.920
  228POPC   H5R30470   1.012   7.483   2.985
  228POPC   H5S30471   1.183   7.428   2.967
  228POPC   C2630472   1.035   7.278   2.912
  228POPC   H6R30473   1.118   7.216   2.871
  228POPC   H6S30474   0.951   7.275   2.839
  228POPC   C2730475   0.982   7.213   3.042
  228POPC   H7R30476   0.922   7.124   3.012
  228POPC   H7S30477   0.913   7.283   3.095
  228POPC   C2830478   1.088   7.164   3.142
  228POPC   H8R30479   1.168   7.107   3.090
  228POPC   H8S30480   1.039   7.091   3.211
  228POPC   C2930481   1.145   7.279   3.220
  228POPC   H9130482   1.228   7.332   3.171
  228POPC  C21030483   1.100   7.322   3.339
  228POPC  H10130484   1.148   7.410   3.384
  228POPC  C21130485   0.984   7.268   3.419
  228POPC  H11R30486   0.923   7.196   3.360
  228POPC  H11S30487   0.917   7.352   3.445
  228POPC  C21230488   1.026   7.198   3.550
  228POPC  H12R30489   1.092   7.112   3.523
  228POPC  H12S30490   0.936   7.157   3.600
  228POPC  C21330491   1.102   7.289   3.648
  228POPC  H13R30492   1.168   7.358   3.593
  228POPC  H13S30493   1.167   7.224   3.711
  228POPC  C21430494   1.011   7.370   3.742
  228POPC  H14R30495   0.940   7.300   3.791
  228POPC  H14S30496   0.951   7.444   3.684
  228POPC  C21530497   1.092   7.441   3.851
  228POPC  H15R30498   1.162   7.368   3.896
  228POPC  H15S30499   1.023   7.473   3.932
  228POPC  C21630500   1.169   7.565   3.805
  228POPC  H16R30501   1.099   7.635   3.754
  228POPC  H16S30502   1.248   7.537   3.732
  228POPC  C21730503   1.234   7.638   3.923
  228POPC  H17R30504   1.152   7.665   3.993
  228POPC  H17S30505   1.281   7.732   3.890
  228POPC  C21830506   1.338   7.557   4.000
  228POPC  H18R30507   1.292   7.467   4.046
  228POPC  H18S30508   1.383   7.618   4.080
  228POPC  H18T30509   1.417   7.523   3.930
  228POPC   C3330510   0.615   7.509   2.917
  228POPC   H3X30511   0.542   7.425   2.913
  228POPC   H3Y30512   0.559   7.602   2.939
  228POPC   C3430513   0.706   7.483   3.038
  228POPC   H4X30514   0.774   7.569   3.054
  228POPC   H4Y30515   0.767   7.393   3.017
  228POPC   C3530516   0.619   7.459   3.162
  228POPC   H5X30517   0.551   7.373   3.141
  228POPC   H5Y30518   0.557   7.549   3.180
  228POPC   C3630519   0.696   7.428   3.290
  228POPC   H6X30520   0.757   7.518   3.317
  228POPC   H6Y30521   0.766   7.344   3.274
  228POPC   C3730522   0.600   7.395   3.406
  228POPC   H7X30523   0.572   7.288   3.402
  228POPC   H7Y30524   0.507   7.455   3.393
  228POPC   C3830525   0.661   7.430   3.541
  228POPC   H8X30526   0.698   7.535   3.536
  228POPC   H8Y30527   0.748   7.363   3.561
  228POPC   C3930528   0.564   7.417   3.659
  228POPC   H9X30529   0.525   7.312   3.662
  228POPC   H9Y30530   0.477   7.485   3.644
  228POPC  C31030531   0.632   7.448   3.793
  228POPC  H10X30532   0.713   7.374   3.810
  228POPC  H10Y30533   0.557   7.435   3.874
  228POPC  C31130534   0.692   7.590   3.802
  228POPC  H11X30535   0.611   7.665   3.787
  228POPC  H11Y30536   0.769   7.604   3.723
  228POPC  C31230537   0.759   7.613   3.937
  228POPC  H12X30538   0.826   7.526   3.954
  228POPC  H12Y30539   0.683   7.612   4.018
  228POPC  C31330540   0.843   7.741   3.949
  228POPC  H13X30541   0.780   7.830   3.932
  228POPC  H13Y30542   0.923   7.740   3.871
  228POPC  C31430543   0.909   7.745   4.088
  228POPC  H14X30544   0.964   7.649   4.099
  228POPC  H14Y30545   0.830   7.746   4.165
  228POPC  C31530546   1.009   7.858   4.114
  228POPC  H15X30547   1.010   7.924   4.026
  228POPC  H15Y30548   1.111   7.814   4.122
  228POPC  C31630549   0.988   7.945   4.238
  228POPC  H16X30550   0.944   7.889   4.323
  228POPC  H16Y30551   0.926   8.034   4.218
  228POPC  H16Z30552   1.087   7.983   4.269
  229POPC     N30553   1.177   1.795   2.323
  229POPC   C1230554   1.082   1.905   2.374
  229POPC  H12A30555   1.137   1.976   2.435
  229POPC  H12B30556   1.009   1.862   2.441
  229POPC   C1330557   1.265   1.851   2.217
  229POPC  H13A30558   1.204   1.897   2.140
  229POPC  H13B30559   1.333   1.926   2.257
  229POPC  H13C30560   1.324   1.774   2.170
  229POPC   C1430561   1.264   1.740   2.434
  229POPC  H14A30562   1.206   1.697   2.514
  229POPC  H14B30563   1.331   1.663   2.397
  229POPC  H14C30564   1.329   1.817   2.476
  229POPC   C1530565   1.097   1.684   2.261
  229POPC  H15A30566   1.027   1.643   2.332
  229POPC  H15B30567   1.159   1.606   2.222
  229POPC  H15C30568   1.037   1.726   2.179
  229POPC   C1130569   0.999   1.990   2.273
  229POPC  H11A30570   1.067   2.038   2.200
  229POPC  H11B30571   0.957   2.076   2.332
  229POPC     P30572   0.742   1.959   2.232
  229POPC   O1330573   0.645   1.876   2.154
  229POPC   O1430574   0.723   2.105   2.218
  229POPC   O1230575   0.896   1.916   2.203
  229POPC   O1130576   0.732   1.914   2.384
  229POPC    C130577   0.781   1.787   2.427
  229POPC    HA30578   0.873   1.754   2.376
  229POPC    HB30579   0.702   1.713   2.401
  229POPC    C230580   0.804   1.776   2.582
  229POPC    HS30581   0.721   1.832   2.631
  229POPC   O2130582   0.933   1.814   2.637
  229POPC   C2130583   0.960   1.941   2.660
  229POPC   O2230584   0.927   2.034   2.590
  229POPC   C2230585   1.053   1.963   2.782
  229POPC   H2R30586   1.045   2.072   2.801
  229POPC   H2S30587   1.157   1.941   2.751
  229POPC    C330588   0.790   1.627   2.622
  229POPC    HX30589   0.872   1.572   2.569
  229POPC    HY30590   0.694   1.584   2.588
  229POPC   O3130591   0.810   1.608   2.763
  229POPC   C3130592   0.707   1.644   2.839
  229POPC   O3230593   0.599   1.683   2.800
  229POPC   C3230594   0.745   1.604   2.981
  229POPC   H2X30595   0.853   1.577   2.984
  229POPC   H2Y30596   0.690   1.509   2.997
  229POPC   C2330597   1.026   1.895   2.920
  229POPC   H3R30598   1.050   1.786   2.917
  229POPC   H3S30599   0.919   1.904   2.949
  229POPC   C2430600   1.113   1.965   3.027
  229POPC   H4R30601   1.109   2.075   3.011
  229POPC   H4S30602   1.218   1.932   3.009
  229POPC   C2530603   1.081   1.943   3.176
  229POPC   H5R30604   0.994   2.003   3.208
  229POPC   H5S30605   1.166   1.984   3.235
  229POPC   C2630606   1.064   1.797   3.219
  229POPC   H6R30607   0.982   1.748   3.162
  229POPC   H6S30608   1.037   1.795   3.327
  229POPC   C2730609   1.195   1.720   3.197
  229POPC   H7R30610   1.278   1.794   3.188
  229POPC   H7S30611   1.189   1.666   3.100
  229POPC   C2830612   1.230   1.627   3.313
  229POPC   H8R30613   1.218   1.679   3.410
  229POPC   H8S30614   1.337   1.601   3.302
  229POPC   C2930615   1.148   1.502   3.301
  229POPC   H9130616   1.150   1.455   3.201
  229POPC  C21030617   1.075   1.443   3.397
  229POPC  H10130618   1.030   1.345   3.375
  229POPC  C21130619   1.060   1.489   3.539
  229POPC  H11R30620   1.159   1.496   3.589
  229POPC  H11S30621   1.004   1.409   3.594
  229POPC  C21230622   0.985   1.622   3.559
  229POPC  H12R30623   0.920   1.643   3.471
  229POPC  H12S30624   1.059   1.704   3.566
  229POPC  C21330625   0.896   1.621   3.685
  229POPC  H13R30626   0.822   1.539   3.674
  229POPC  H13S30627   0.840   1.717   3.692
  229POPC  C21430628   0.979   1.598   3.811
  229POPC  H14R30629   1.043   1.686   3.832
  229POPC  H14S30630   1.049   1.516   3.788
  229POPC  C21530631   0.903   1.560   3.939
  229POPC  H15R30632   0.981   1.542   4.017
  229POPC  H15S30633   0.848   1.465   3.925
  229POPC  C21630634   0.811   1.670   3.992
  229POPC  H16R30635   0.706   1.644   3.967
  229POPC  H16S30636   0.835   1.765   3.939
  229POPC  C21730637   0.830   1.694   4.142
  229POPC  H17R30638   0.770   1.783   4.171
  229POPC  H17S30639   0.937   1.721   4.159
  229POPC  C21830640   0.794   1.577   4.234
  229POPC  H18R30641   0.691   1.541   4.216
  229POPC  H18S30642   0.801   1.610   4.340
  229POPC  H18T30643   0.865   1.492   4.220
  229POPC   C3330644   0.711   1.698   3.099
  229POPC   H3X30645   0.786   1.682   3.180
  229POPC   H3Y30646   0.615   1.661   3.139
  229POPC   C3430647   0.689   1.848   3.078
  229POPC   H4X30648   0.579   1.866   3.076
  229POPC   H4Y30649   0.722   1.882   2.979
  229POPC   C3530650   0.744   1.932   3.194
  229POPC   H5X30651   0.803   2.014   3.152
  229POPC   H5Y30652   0.812   1.875   3.260
  229POPC   C3630653   0.627   1.985   3.277
  229POPC   H6X30654   0.575   1.890   3.298
  229POPC   H6Y30655   0.559   2.044   3.211
  229POPC   C3730656   0.656   2.066   3.405
  229POPC   H7X30657   0.558   2.082   3.455
  229POPC   H7Y30658   0.696   2.166   3.378
  229POPC   C3830659   0.752   2.008   3.510
  229POPC   H8X30660   0.856   2.010   3.469
  229POPC   H8Y30661   0.730   1.902   3.534
  229POPC   C3930662   0.745   2.093   3.638
  229POPC   H9X30663   0.721   2.031   3.727
  229POPC   H9Y30664   0.662   2.166   3.628
  229POPC  C31030665   0.873   2.173   3.659
  229POPC  H10X30666   0.857   2.250   3.737
  229POPC  H10Y30667   0.896   2.225   3.563
  229POPC  C31130668   0.993   2.086   3.698
  229POPC  H11X30669   1.086   2.148   3.695
  229POPC  H11Y30670   1.007   2.003   3.627
  229POPC  C31230671   0.976   2.030   3.839
  229POPC  H12X30672   0.881   1.972   3.845
  229POPC  H12Y30673   0.969   2.117   3.909
  229POPC  C31330674   1.090   1.940   3.884
  229POPC  H13X30675   1.113   1.869   3.802
  229POPC  H13Y30676   1.055   1.881   3.972
  229POPC  C31430677   1.216   2.018   3.920
  229POPC  H14X30678   1.190   2.098   3.993
  229POPC  H14Y30679   1.253   2.066   3.827
  229POPC  C31530680   1.327   1.930   3.979
  229POPC  H15X30681   1.420   1.991   3.982
  229POPC  H15Y30682   1.345   1.845   3.910
  229POPC  C31630683   1.298   1.878   4.120
  229POPC  H16X30684   1.372   1.800   4.149
  229POPC  H16Y30685   1.197   1.833   4.127
  229POPC  H16Z30686   1.304   1.960   4.194
  230POPC     N30687   8.988   2.325   2.425
  230POPC   C1230688   9.022   2.469   2.460
  230POPC  H12A30689   9.122   2.474   2.501
  230POPC  H12B30690   8.954   2.509   2.534
  230POPC   C1330691   8.851   2.323   2.364
  230POPC  H13A30692   8.779   2.377   2.424
  230POPC  H13B30693   8.855   2.378   2.270
  230POPC  H13C30694   8.816   2.222   2.345
  230POPC   C1430695   9.082   2.274   2.322
  230POPC  H14A30696   9.041   2.185   2.276
  230POPC  H14B30697   9.093   2.349   2.243
  230POPC  H14C30698   9.180   2.249   2.362
  230POPC   C1530699   8.988   2.236   2.545
  230POPC  H15A30700   8.908   2.266   2.613
  230POPC  H15B30701   9.081   2.242   2.598
  230POPC  H15C30702   8.969   2.132   2.517
  230POPC   C1130703   9.021   2.571   2.344
  230POPC  H11A30704   9.080   2.535   2.257
  230POPC  H11B30705   9.072   2.663   2.382
  230POPC     P30706   8.870   2.729   2.214
  230POPC   O1330707   8.727   2.754   2.193
  230POPC   O1430708   8.951   2.712   2.091
  230POPC   O1230709   8.887   2.599   2.304
  230POPC   O1130710   8.932   2.848   2.293
  230POPC    C130711   8.863   2.942   2.375
  230POPC    HA30712   8.758   2.960   2.341
  230POPC    HB30713   8.918   3.038   2.365
  230POPC    C230714   8.868   2.909   2.526
  230POPC    HS30715   8.880   3.005   2.582
  230POPC   O2130716   8.973   2.815   2.550
  230POPC   C2130717   9.085   2.870   2.588
  230POPC   O2230718   9.103   2.988   2.609
  230POPC   C2230719   9.187   2.758   2.617
  230POPC   H2R30720   9.277   2.776   2.557
  230POPC   H2S30721   9.141   2.662   2.588
  230POPC    C330722   8.741   2.844   2.584
  230POPC    HX30723   8.740   2.735   2.562
  230POPC    HY30724   8.652   2.891   2.535
  230POPC   O3130725   8.732   2.871   2.725
  230POPC   C3130726   8.808   2.800   2.806
  230POPC   O3230727   8.874   2.702   2.777
  230POPC   C3230728   8.788   2.856   2.948
  230POPC   H2X30729   8.686   2.828   2.979
  230POPC   H2Y30730   8.793   2.967   2.937
  230POPC   C2330731   9.219   2.749   2.768
  230POPC   H3R30732   9.123   2.753   2.824
  230POPC   H3S30733   9.278   2.838   2.798
  230POPC   C2430734   9.294   2.621   2.807
  230POPC   H4R30735   9.402   2.646   2.820
  230POPC   H4S30736   9.288   2.548   2.724
  230POPC   C2530737   9.241   2.554   2.934
  230POPC   H5R30738   9.244   2.624   3.020
  230POPC   H5S30739   9.307   2.469   2.960
  230POPC   C2630740   9.100   2.496   2.922
  230POPC   H6R30741   9.088   2.445   2.823
  230POPC   H6S30742   9.025   2.578   2.926
  230POPC   C2730743   9.072   2.395   3.034
  230POPC   H7R30744   9.085   2.445   3.132
  230POPC   H7S30745   9.147   2.313   3.028
  230POPC   C2830746   8.932   2.331   3.027
  230POPC   H8R30747   8.930   2.251   3.104
  230POPC   H8S30748   8.919   2.279   2.929
  230POPC   C2930749   8.822   2.431   3.050
  230POPC   H9130750   8.781   2.477   2.959
  230POPC  C21030751   8.780   2.476   3.170
  230POPC  H10130752   8.699   2.549   3.173
  230POPC  C21130753   8.835   2.435   3.305
  230POPC  H11R30754   8.909   2.353   3.297
  230POPC  H11S30755   8.753   2.397   3.368
  230POPC  C21230756   8.904   2.554   3.375
  230POPC  H12R30757   8.827   2.631   3.397
  230POPC  H12S30758   8.980   2.599   3.307
  230POPC  C21330759   8.975   2.516   3.507
  230POPC  H13R30760   9.013   2.609   3.554
  230POPC  H13S30761   9.062   2.451   3.485
  230POPC  C21430762   8.880   2.445   3.605
  230POPC  H14R30763   8.852   2.346   3.563
  230POPC  H14S30764   8.789   2.507   3.612
  230POPC  C21530765   8.933   2.425   3.747
  230POPC  H15R30766   8.854   2.376   3.808
  230POPC  H15S30767   8.955   2.524   3.794
  230POPC  C21630768   9.058   2.339   3.752
  230POPC  H16R30769   9.140   2.393   3.701
  230POPC  H16S30770   9.042   2.243   3.697
  230POPC  C21730771   9.101   2.307   3.895
  230POPC  H17R30772   9.084   2.396   3.960
  230POPC  H17S30773   9.210   2.288   3.893
  230POPC  C21830774   9.031   2.184   3.954
  230POPC  H18R30775   9.072   2.158   4.053
  230POPC  H18S30776   9.044   2.097   3.886
  230POPC  H18T30777   8.922   2.203   3.965
  230POPC   C3330778   8.885   2.820   3.064
  230POPC   H3X30779   8.988   2.853   3.038
  230POPC   H3Y30780   8.888   2.711   3.085
  230POPC   C3430781   8.836   2.898   3.188
  230POPC   H4X30782   8.738   2.856   3.221
  230POPC   H4Y30783   8.817   3.002   3.152
  230POPC   C3530784   8.927   2.914   3.311
  230POPC   H5X30785   9.030   2.940   3.281
  230POPC   H5Y30786   8.932   2.820   3.370
  230POPC   C3630787   8.865   3.026   3.396
  230POPC   H6X30788   8.763   2.994   3.419
  230POPC   H6Y30789   8.857   3.118   3.332
  230POPC   C3730790   8.936   3.064   3.527
  230POPC   H7X30791   8.938   3.175   3.534
  230POPC   H7Y30792   9.040   3.031   3.519
  230POPC   C3830793   8.864   3.010   3.652
  230POPC   H8X30794   8.787   2.942   3.612
  230POPC   H8Y30795   8.810   3.094   3.703
  230POPC   C3930796   8.940   2.924   3.756
  230POPC   H9X30797   9.030   2.881   3.711
  230POPC   H9Y30798   8.875   2.837   3.780
  230POPC  C31030799   8.970   2.994   3.890
  230POPC  H10X30800   8.872   3.029   3.929
  230POPC  H10Y30801   9.030   3.085   3.876
  230POPC  C31130802   9.040   2.903   3.994
  230POPC  H11X30803   9.149   2.901   3.975
  230POPC  H11Y30804   8.999   2.799   3.985
  230POPC  C31230805   9.011   2.952   4.137
  230POPC  H12X30806   8.907   2.926   4.155
  230POPC  H12Y30807   9.020   3.062   4.137
  230POPC  C31330808   9.084   2.897   4.260
  230POPC  H13X30809   9.045   2.952   4.349
  230POPC  H13Y30810   9.189   2.927   4.251
  230POPC  C31430811   9.068   2.747   4.287
  230POPC  H14X30812   9.143   2.717   4.364
  230POPC  H14Y30813   9.089   2.688   4.196
  230POPC  C31530814   8.930   2.708   4.343
  230POPC  H15X30815   8.856   2.710   4.260
  230POPC  H15Y30816   8.899   2.784   4.418
  230POPC  C31630817   8.926   2.570   4.411
  230POPC  H16X30818   8.826   2.552   4.456
  230POPC  H16Y30819   9.002   2.565   4.492
  230POPC  H16Z30820   8.947   2.489   4.337
  231POPC     N30821   0.345   2.977   2.251
  231POPC   C1230822   0.212   2.899   2.249
  231POPC  H12A30823   0.226   2.801   2.207
  231POPC  H12B30824   0.143   2.952   2.183
  231POPC   C1330825   0.308   3.113   2.301
  231POPC  H13A30826   0.227   3.154   2.240
  231POPC  H13B30827   0.261   3.102   2.400
  231POPC  H13C30828   0.387   3.184   2.310
  231POPC   C1430829   0.444   2.921   2.345
  231POPC  H14A30830   0.522   2.991   2.369
  231POPC  H14B30831   0.394   2.894   2.437
  231POPC  H14C30832   0.491   2.829   2.312
  231POPC   C1530833   0.400   2.991   2.113
  231POPC  H15A30834   0.324   3.039   2.051
  231POPC  H15B30835   0.432   2.899   2.066
  231POPC  H15C30836   0.485   3.057   2.109
  231POPC   C1130837   0.136   2.885   2.384
  231POPC  H11A30838   0.203   2.837   2.459
  231POPC  H11B30839   0.050   2.814   2.371
  231POPC     P30840  -0.030   3.085   2.362
  231POPC   O1330841  -0.135   2.984   2.339
  231POPC   O1430842   0.030   3.146   2.240
  231POPC   O1230843   0.091   3.011   2.436
  231POPC   O1130844  -0.079   3.201   2.457
  231POPC    C130845   0.004   3.285   2.536
  231POPC    HA30846  -0.034   3.389   2.527
  231POPC    HB30847   0.109   3.287   2.498
  231POPC    C230848   0.002   3.247   2.688
  231POPC    HS30849   0.075   3.314   2.739
  231POPC   O2130850   0.035   3.110   2.711
  231POPC   C2130851   0.161   3.080   2.698
  231POPC   O2230852   0.253   3.156   2.673
  231POPC   C2230853   0.175   2.931   2.729
  231POPC   H2R30854   0.111   2.875   2.658
  231POPC   H2S30855   0.137   2.913   2.831
  231POPC    C330856  -0.134   3.270   2.758
  231POPC    HX30857  -0.210   3.211   2.702
  231POPC    HY30858  -0.163   3.377   2.753
  231POPC   O3130859  -0.119   3.230   2.897
  231POPC   C3130860  -0.212   3.148   2.944
  231POPC   O3230861  -0.319   3.122   2.894
  231POPC   C3230862  -0.163   3.086   3.076
  231POPC   H2X30863  -0.253   3.076   3.141
  231POPC   H2Y30864  -0.091   3.154   3.125
  231POPC   C2330865   0.321   2.889   2.716
  231POPC   H3R30866   0.380   2.949   2.788
  231POPC   H3S30867   0.357   2.911   2.613
  231POPC   C2430868   0.349   2.742   2.748
  231POPC   H4R30869   0.433   2.710   2.681
  231POPC   H4S30870   0.262   2.678   2.724
  231POPC   C2530871   0.400   2.724   2.892
  231POPC   H5R30872   0.474   2.803   2.914
  231POPC   H5S30873   0.455   2.627   2.896
  231POPC   C2630874   0.288   2.724   2.998
  231POPC   H6R30875   0.209   2.652   2.969
  231POPC   H6S30876   0.240   2.823   3.004
  231POPC   C2730877   0.341   2.681   3.135
  231POPC   H7R30878   0.382   2.579   3.123
  231POPC   H7S30879   0.256   2.673   3.208
  231POPC   C2830880   0.449   2.775   3.191
  231POPC   H8R30881   0.527   2.797   3.115
  231POPC   H8S30882   0.503   2.724   3.273
  231POPC   C2930883   0.384   2.902   3.239
  231POPC   H9130884   0.358   2.977   3.162
  231POPC  C21030885   0.358   2.929   3.368
  231POPC  H10130886   0.309   3.024   3.395
  231POPC  C21130887   0.392   2.833   3.481
  231POPC  H11R30888   0.502   2.820   3.484
  231POPC  H11S30889   0.348   2.733   3.459
  231POPC  C21230890   0.349   2.865   3.627
  231POPC  H12R30891   0.405   2.796   3.694
  231POPC  H12S30892   0.241   2.842   3.639
  231POPC  C21330893   0.378   3.009   3.675
  231POPC  H13R30894   0.381   3.078   3.589
  231POPC  H13S30895   0.477   3.009   3.725
  231POPC  C21430896   0.273   3.072   3.767
  231POPC  H14R30897   0.184   3.078   3.703
  231POPC  H14S30898   0.301   3.177   3.791
  231POPC  C21530899   0.239   2.997   3.896
  231POPC  H15R30900   0.228   2.888   3.877
  231POPC  H15S30901   0.140   3.033   3.931
  231POPC  C21630902   0.339   3.025   4.010
  231POPC  H16R30903   0.285   3.020   4.107
  231POPC  H16S30904   0.377   3.129   3.999
  231POPC  C21730905   0.455   2.925   4.014
  231POPC  H17R30906   0.537   2.969   4.074
  231POPC  H17S30907   0.494   2.907   3.911
  231POPC  C21830908   0.414   2.793   4.078
  231POPC  H18R30909   0.370   2.815   4.177
  231POPC  H18S30910   0.501   2.725   4.093
  231POPC  H18T30911   0.339   2.739   4.016
  231POPC   C3330912  -0.099   2.947   3.050
  231POPC   H3X30913  -0.001   2.963   2.998
  231POPC   H3Y30914  -0.165   2.891   2.981
  231POPC   C3430915  -0.078   2.853   3.170
  231POPC   H4X30916  -0.006   2.775   3.135
  231POPC   H4Y30917  -0.172   2.800   3.195
  231POPC   C3530918  -0.020   2.913   3.298
  231POPC   H5X30919  -0.100   2.966   3.356
  231POPC   H5Y30920   0.056   2.989   3.272
  231POPC   C3630921   0.047   2.804   3.385
  231POPC   H6X30922   0.131   2.850   3.440
  231POPC   H6Y30923   0.090   2.725   3.320
  231POPC   C3730924  -0.040   2.739   3.493
  231POPC   H7X30925   0.025   2.672   3.554
  231POPC   H7Y30926  -0.117   2.675   3.444
  231POPC   C3830927  -0.110   2.837   3.587
  231POPC   H8X30928  -0.144   2.780   3.677
  231POPC   H8Y30929  -0.199   2.871   3.532
  231POPC   C3930930  -0.029   2.959   3.635
  231POPC   H9X30931   0.047   2.990   3.560
  231POPC   H9Y30932   0.026   2.928   3.727
  231POPC  C31030933  -0.109   3.087   3.665
  231POPC  H10X30934  -0.212   3.060   3.693
  231POPC  H10Y30935  -0.115   3.152   3.576
  231POPC  C31130936  -0.055   3.162   3.786
  231POPC  H11X30937   0.047   3.199   3.769
  231POPC  H11Y30938  -0.055   3.090   3.871
  231POPC  C31230939  -0.137   3.284   3.827
  231POPC  H12X30940  -0.245   3.269   3.805
  231POPC  H12Y30941  -0.104   3.370   3.765
  231POPC  C31330942  -0.121   3.313   3.978
  231POPC  H13X30943  -0.189   3.242   4.030
  231POPC  H13Y30944  -0.157   3.416   3.998
  231POPC  C31430945   0.020   3.290   4.036
  231POPC  H14X30946   0.096   3.326   3.962
  231POPC  H14Y30947   0.037   3.181   4.051
  231POPC  C31530948   0.046   3.363   4.169
  231POPC  H15X30949  -0.031   3.442   4.182
  231POPC  H15Y30950   0.145   3.413   4.164
  231POPC  C31630951   0.043   3.272   4.291
  231POPC  H16X30952   0.131   3.204   4.294
  231POPC  H16Y30953  -0.049   3.209   4.287
  231POPC  H16Z30954   0.041   3.332   4.385
  232POPC     N30955   0.317   2.541   2.110
  232POPC   C1230956   0.264   2.545   2.252
  232POPC  H12A30957   0.156   2.532   2.251
  232POPC  H12B30958   0.285   2.643   2.295
  232POPC   C1330959   0.441   2.626   2.102
  232POPC  H13A30960   0.512   2.594   2.179
  232POPC  H13B30961   0.490   2.612   2.006
  232POPC  H13C30962   0.418   2.730   2.118
  232POPC   C1430963   0.363   2.401   2.079
  232POPC  H14A30964   0.434   2.373   2.158
  232POPC  H14B30965   0.284   2.329   2.081
  232POPC  H14C30966   0.415   2.398   1.985
  232POPC   C1530967   0.214   2.582   2.012
  232POPC  H15A30968   0.129   2.514   2.013
  232POPC  H15B30969   0.254   2.576   1.911
  232POPC  H15C30970   0.173   2.681   2.026
  232POPC   C1130971   0.327   2.443   2.349
  232POPC  H11A30972   0.288   2.341   2.328
  232POPC  H11B30973   0.292   2.468   2.453
  232POPC     P30974   0.555   2.521   2.442
  232POPC   O1330975   0.502   2.661   2.444
  232POPC   O1430976   0.698   2.507   2.413
  232POPC   O1230977   0.470   2.443   2.335
  232POPC   O1130978   0.509   2.436   2.568
  232POPC    C130979   0.534   2.292   2.560
  232POPC    HA30980   0.617   2.269   2.630
  232POPC    HB30981   0.569   2.255   2.460
  232POPC    C230982   0.411   2.204   2.598
  232POPC    HS30983   0.330   2.226   2.525
  232POPC   O2130984   0.377   2.233   2.733
  232POPC   C2130985   0.287   2.326   2.744
  232POPC   O2230986   0.203   2.356   2.660
  232POPC   C2230987   0.300   2.393   2.879
  232POPC   H2R30988   0.288   2.500   2.853
  232POPC   H2S30989   0.401   2.378   2.923
  232POPC    C330990   0.434   2.051   2.588
  232POPC    HX30991   0.431   2.018   2.482
  232POPC    HY30992   0.349   2.000   2.640
  232POPC   O3130993   0.560   2.015   2.645
  232POPC   C3130994   0.566   2.024   2.775
  232POPC   O3230995   0.479   1.999   2.857
  232POPC   C3230996   0.700   2.084   2.806
  232POPC   H2X30997   0.739   2.141   2.719
  232POPC   H2Y30998   0.771   2.002   2.826
  232POPC   C2330999   0.188   2.355   2.976
  232POPC   H3R31000   0.097   2.326   2.917
  232POPC   H3S31001   0.160   2.443   3.038
  232POPC   C2431002   0.224   2.241   3.071
  232POPC   H4R31003   0.297   2.276   3.147
  232POPC   H4S31004   0.277   2.164   3.012
  232POPC   C2531005   0.095   2.189   3.139
  232POPC   H5R31006   0.014   2.186   3.064
  232POPC   H5S31007   0.065   2.265   3.214
  232POPC   C2631008   0.100   2.052   3.209
  232POPC   H6R31009   0.092   1.966   3.140
  232POPC   H6S31010   0.007   2.042   3.270
  232POPC   C2731011   0.224   2.028   3.297
  232POPC   H7R31012   0.312   2.011   3.232
  232POPC   H7S31013   0.204   1.934   3.354
  232POPC   C2831014   0.255   2.136   3.400
  232POPC   H8R31015   0.298   2.226   3.351
  232POPC   H8S31016   0.330   2.098   3.473
  232POPC   C2931017   0.122   2.160   3.463
  232POPC   H9131018   0.069   2.066   3.484
  232POPC  C21031019   0.062   2.276   3.493
  232POPC  H10131020  -0.040   2.274   3.534
  232POPC  C21131021   0.119   2.412   3.470
  232POPC  H11R31022   0.039   2.484   3.443
  232POPC  H11S31023   0.194   2.413   3.388
  232POPC  C21231024   0.185   2.455   3.603
  232POPC  H12R31025   0.223   2.559   3.593
  232POPC  H12S31026   0.273   2.389   3.623
  232POPC  C21331027   0.090   2.444   3.723
  232POPC  H13R31028   0.101   2.341   3.764
  232POPC  H13S31029  -0.015   2.454   3.689
  232POPC  C21431030   0.114   2.551   3.831
  232POPC  H14R31031   0.079   2.649   3.791
  232POPC  H14S31032   0.224   2.560   3.849
  232POPC  C21531033   0.044   2.519   3.964
  232POPC  H15R31034  -0.064   2.506   3.946
  232POPC  H15S31035   0.056   2.606   4.032
  232POPC  C21631036   0.106   2.396   4.032
  232POPC  H16R31037   0.190   2.429   4.092
  232POPC  H16S31038   0.156   2.334   3.956
  232POPC  C21731039   0.016   2.309   4.122
  232POPC  H17R31040   0.084   2.249   4.188
  232POPC  H17S31041  -0.037   2.235   4.059
  232POPC  C21831042  -0.087   2.382   4.208
  232POPC  H18R31043  -0.152   2.447   4.145
  232POPC  H18S31044  -0.038   2.446   4.284
  232POPC  H18T31045  -0.152   2.308   4.260
  232POPC   C3331046   0.681   2.174   2.927
  232POPC   H3X31047   0.623   2.117   3.004
  232POPC   H3Y31048   0.621   2.264   2.902
  232POPC   C3431049   0.815   2.210   2.988
  232POPC   H4X31050   0.864   2.290   2.927
  232POPC   H4Y31051   0.879   2.120   2.985
  232POPC   C3531052   0.794   2.252   3.133
  232POPC   H5X31053   0.878   2.220   3.197
  232POPC   H5Y31054   0.701   2.204   3.170
  232POPC   C3631055   0.773   2.400   3.144
  232POPC   H6X31056   0.713   2.435   3.057
  232POPC   H6Y31057   0.876   2.444   3.135
  232POPC   C3731058   0.707   2.446   3.273
  232POPC   H7X31059   0.710   2.558   3.276
  232POPC   H7Y31060   0.766   2.409   3.359
  232POPC   C3831061   0.559   2.409   3.287
  232POPC   H8X31062   0.544   2.299   3.293
  232POPC   H8Y31063   0.507   2.442   3.195
  232POPC   C3931064   0.500   2.476   3.411
  232POPC   H9X31065   0.389   2.481   3.405
  232POPC   H9Y31066   0.537   2.581   3.415
  232POPC  C31031067   0.543   2.405   3.539
  232POPC  H10X31068   0.647   2.369   3.526
  232POPC  H10Y31069   0.479   2.316   3.555
  232POPC  C31131070   0.543   2.497   3.661
  232POPC  H11X31071   0.438   2.523   3.686
  232POPC  H11Y31072   0.596   2.592   3.637
  232POPC  C31231073   0.612   2.433   3.782
  232POPC  H12X31074   0.722   2.448   3.774
  232POPC  H12Y31075   0.593   2.323   3.783
  232POPC  C31331076   0.559   2.493   3.912
  232POPC  H13X31077   0.531   2.599   3.891
  232POPC  H13Y31078   0.637   2.494   3.991
  232POPC  C31431079   0.435   2.418   3.963
  232POPC  H14X31080   0.375   2.384   3.876
  232POPC  H14Y31081   0.373   2.490   4.020
  232POPC  C31531082   0.469   2.295   4.050
  232POPC  H15X31083   0.568   2.260   4.014
  232POPC  H15Y31084   0.397   2.214   4.029
  232POPC  C31631085   0.473   2.319   4.201
  232POPC  H16X31086   0.516   2.418   4.224
  232POPC  H16Y31087   0.533   2.241   4.253
  232POPC  H16Z31088   0.370   2.314   4.244
  233POPC     N31089   1.428   1.175   2.125
  233POPC   C1231090   1.557   1.247   2.162
  233POPC  H12A31091   1.560   1.343   2.113
  233POPC  H12B31092   1.639   1.188   2.123
  233POPC   C1331093   1.416   1.170   1.977
  233POPC  H13A31094   1.403   1.269   1.935
  233POPC  H13B31095   1.505   1.127   1.931
  233POPC  H13C31096   1.331   1.110   1.946
  233POPC   C1431097   1.433   1.033   2.174
  233POPC  H14A31098   1.468   1.032   2.277
  233POPC  H14B31099   1.335   0.987   2.170
  233POPC  H14C31100   1.503   0.974   2.117
  233POPC   C1531101   1.310   1.241   2.189
  233POPC  H15A31102   1.217   1.198   2.152
  233POPC  H15B31103   1.310   1.347   2.169
  233POPC  H15C31104   1.316   1.228   2.297
  233POPC   C1131105   1.586   1.271   2.311
  233POPC  H11A31106   1.503   1.331   2.356
  233POPC  H11B31107   1.680   1.330   2.321
  233POPC     P31108   1.555   1.115   2.519
  233POPC   O1331109   1.640   1.191   2.613
  233POPC   O1431110   1.551   0.967   2.531
  233POPC   O1231111   1.604   1.145   2.373
  233POPC   O1131112   1.404   1.167   2.512
  233POPC    C131113   1.308   1.103   2.599
  233POPC    HA31114   1.346   1.007   2.642
  233POPC    HB31115   1.218   1.076   2.540
  233POPC    C231116   1.265   1.192   2.718
  233POPC    HS31117   1.185   1.258   2.678
  233POPC   O2131118   1.377   1.269   2.765
  233POPC   C2131119   1.343   1.379   2.830
  233POPC   O2231120   1.231   1.426   2.834
  233POPC   C2231121   1.465   1.432   2.907
  233POPC   H2R31122   1.515   1.506   2.841
  233POPC   H2S31123   1.534   1.347   2.923
  233POPC    C331124   1.208   1.110   2.837
  233POPC    HX31125   1.115   1.061   2.807
  233POPC    HY31126   1.183   1.179   2.920
  233POPC   O3131127   1.298   1.003   2.873
  233POPC   C3131128   1.361   1.016   2.986
  233POPC   O3231129   1.343   1.103   3.070
  233POPC   C3231130   1.461   0.903   2.999
  233POPC   H2X31131   1.547   0.927   2.933
  233POPC   H2Y31132   1.415   0.808   2.963
  233POPC   C2331133   1.431   1.498   3.043
  233POPC   H3R31134   1.359   1.435   3.101
  233POPC   H3S31135   1.382   1.596   3.023
  233POPC   C2431136   1.555   1.523   3.131
  233POPC   H4R31137   1.530   1.595   3.212
  233POPC   H4S31138   1.632   1.572   3.067
  233POPC   C2531139   1.617   1.398   3.197
  233POPC   H5R31140   1.714   1.426   3.244
  233POPC   H5S31141   1.640   1.324   3.116
  233POPC   C2631142   1.531   1.326   3.303
  233POPC   H6R31143   1.581   1.228   3.326
  233POPC   H6S31144   1.431   1.302   3.262
  233POPC   C2731145   1.516   1.400   3.437
  233POPC   H7R31146   1.454   1.491   3.424
  233POPC   H7S31147   1.617   1.435   3.469
  233POPC   C2831148   1.458   1.314   3.553
  233POPC   H8R31149   1.454   1.380   3.643
  233POPC   H8S31150   1.534   1.237   3.572
  233POPC   C2931151   1.327   1.244   3.537
  233POPC   H9131152   1.252   1.303   3.484
  233POPC  C21031153   1.293   1.120   3.580
  233POPC  H10131154   1.193   1.084   3.556
  233POPC  C21131155   1.379   1.021   3.654
  233POPC  H11R31156   1.444   1.074   3.727
  233POPC  H11S31157   1.444   0.970   3.579
  233POPC  C21231158   1.304   0.911   3.732
  233POPC  H12R31159   1.232   0.866   3.661
  233POPC  H12S31160   1.247   0.958   3.816
  233POPC  C21331161   1.387   0.793   3.788
  233POPC  H13R31162   1.434   0.744   3.700
  233POPC  H13S31163   1.320   0.718   3.834
  233POPC  C21431164   1.496   0.823   3.892
  233POPC  H14R31165   1.557   0.910   3.861
  233POPC  H14S31166   1.564   0.735   3.898
  233POPC  C21531167   1.451   0.858   4.034
  233POPC  H15R31168   1.421   0.766   4.089
  233POPC  H15S31169   1.363   0.926   4.029
  233POPC  C21631170   1.565   0.931   4.108
  233POPC  H16R31171   1.598   1.018   4.046
  233POPC  H16S31172   1.653   0.864   4.116
  233POPC  C21731173   1.526   0.983   4.247
  233POPC  H17R31174   1.472   0.903   4.302
  233POPC  H17S31175   1.455   1.067   4.232
  233POPC  C21831176   1.644   1.032   4.331
  233POPC  H18R31177   1.608   1.080   4.424
  233POPC  H18S31178   1.705   1.106   4.274
  233POPC  H18T31179   1.709   0.947   4.359
  233POPC   C3331180   1.508   0.888   3.145
  233POPC   H3X31181   1.428   0.841   3.206
  233POPC   H3Y31182   1.528   0.989   3.189
  233POPC   C3431183   1.637   0.808   3.155
  233POPC   H4X31184   1.720   0.870   3.115
  233POPC   H4Y31185   1.629   0.717   3.091
  233POPC   C3531186   1.668   0.765   3.299
  233POPC   H5X31187   1.767   0.713   3.301
  233POPC   H5Y31188   1.590   0.693   3.332
  233POPC   C3631189   1.671   0.882   3.398
  233POPC   H6X31190   1.577   0.942   3.394
  233POPC   H6Y31191   1.755   0.949   3.371
  233POPC   C3731192   1.686   0.832   3.542
  233POPC   H7X31193   1.764   0.753   3.546
  233POPC   H7Y31194   1.593   0.778   3.569
  233POPC   C3831195   1.712   0.941   3.648
  233POPC   H8X31196   1.774   0.898   3.729
  233POPC   H8Y31197   1.615   0.965   3.692
  233POPC   C3931198   1.762   1.080   3.605
  233POPC   H9X31199   1.691   1.126   3.535
  233POPC   H9Y31200   1.852   1.065   3.545
  233POPC  C31031201   1.794   1.175   3.724
  233POPC  H10X31202   1.874   1.245   3.691
  233POPC  H10Y31203   1.832   1.114   3.809
  233POPC  C31131204   1.680   1.265   3.776
  233POPC  H11X31205   1.591   1.200   3.786
  233POPC  H11Y31206   1.662   1.343   3.699
  233POPC  C31231207   1.699   1.341   3.909
  233POPC  H12X31208   1.795   1.396   3.906
  233POPC  H12Y31209   1.704   1.267   3.993
  233POPC  C31331210   1.584   1.441   3.939
  233POPC  H13X31211   1.575   1.512   3.854
  233POPC  H13Y31212   1.608   1.500   4.030
  233POPC  C31431213   1.450   1.370   3.961
  233POPC  H14X31214   1.451   1.319   4.060
  233POPC  H14Y31215   1.441   1.289   3.885
  233POPC  C31531216   1.320   1.451   3.946
  233POPC  H15X31217   1.331   1.534   3.873
  233POPC  H15Y31218   1.291   1.495   4.044
  233POPC  C31631219   1.211   1.355   3.898
  233POPC  H16X31220   1.215   1.342   3.788
  233POPC  H16Y31221   1.110   1.388   3.928
  233POPC  H16Z31222   1.226   1.256   3.944
  234POPC     N31223   8.815   6.315   2.153
  234POPC   C1231224   8.683   6.267   2.213
  234POPC  H12A31225   8.628   6.215   2.137
  234POPC  H12B31226   8.626   6.357   2.238
  234POPC   C1331227   8.875   6.415   2.247
  234POPC  H13A31228   8.970   6.453   2.211
  234POPC  H13B31229   8.811   6.501   2.266
  234POPC  H13C31230   8.889   6.371   2.347
  234POPC   C1431231   8.911   6.201   2.136
  234POPC  H14A31232   9.005   6.235   2.093
  234POPC  H14B31233   8.933   6.159   2.234
  234POPC  H14C31234   8.870   6.124   2.073
  234POPC   C1531235   8.790   6.380   2.020
  234POPC  H15A31236   8.879   6.437   1.990
  234POPC  H15B31237   8.709   6.453   2.024
  234POPC  H15C31238   8.768   6.308   1.942
  234POPC   C1131239   8.685   6.183   2.344
  234POPC  H11A31240   8.750   6.093   2.331
  234POPC  H11B31241   8.582   6.144   2.365
  234POPC     P31242   8.641   6.372   2.518
  234POPC   O1331243   8.602   6.457   2.402
  234POPC   O1431244   8.709   6.434   2.633
  234POPC   O1231245   8.733   6.257   2.456
  234POPC   O1131246   8.513   6.291   2.572
  234POPC    C131247   8.531   6.233   2.702
  234POPC    HA31248   8.535   6.309   2.783
  234POPC    HB31249   8.631   6.181   2.706
  234POPC    C231250   8.423   6.126   2.736
  234POPC    HS31251   8.388   6.084   2.639
  234POPC   O2131252   8.311   6.178   2.813
  234POPC   C2131253   8.203   6.102   2.825
  234POPC   O2231254   8.177   6.007   2.753
  234POPC   C2231255   8.116   6.150   2.943
  234POPC   H2R31256   8.010   6.126   2.922
  234POPC   H2S31257   8.127   6.260   2.954
  234POPC    C331258   8.495   6.013   2.813
  234POPC    HX31259   8.589   5.996   2.759
  234POPC    HY31260   8.439   5.920   2.805
  234POPC   O3131261   8.532   6.046   2.948
  234POPC   C3131262   8.487   5.960   3.038
  234POPC   O3231263   8.387   5.892   3.029
  234POPC   C3231264   8.586   5.957   3.152
  234POPC   H2X31265   8.575   6.049   3.212
  234POPC   H2Y31266   8.687   5.957   3.106
  234POPC   C2331267   8.165   6.079   3.072
  234POPC   H3R31268   8.275   6.096   3.072
  234POPC   H3S31269   8.146   5.969   3.064
  234POPC   C2431270   8.122   6.128   3.211
  234POPC   H4R31271   8.027   6.079   3.241
  234POPC   H4S31272   8.104   6.238   3.209
  234POPC   C2531273   8.236   6.093   3.310
  234POPC   H5R31274   8.331   6.131   3.266
  234POPC   H5S31275   8.244   5.982   3.316
  234POPC   C2631276   8.227   6.154   3.451
  234POPC   H6R31277   8.142   6.104   3.503
  234POPC   H6S31278   8.209   6.263   3.444
  234POPC   C2731279   8.354   6.129   3.533
  234POPC   H7R31280   8.442   6.143   3.467
  234POPC   H7S31281   8.342   6.022   3.561
  234POPC   C2831282   8.380   6.205   3.665
  234POPC   H8R31283   8.469   6.158   3.711
  234POPC   H8S31284   8.299   6.182   3.735
  234POPC   C2931285   8.401   6.353   3.656
  234POPC   H9131286   8.318   6.406   3.607
  234POPC  C21031287   8.505   6.424   3.706
  234POPC  H10131288   8.505   6.534   3.694
  234POPC  C21131289   8.624   6.371   3.782
  234POPC  H11R31290   8.717   6.409   3.733
  234POPC  H11S31291   8.631   6.260   3.778
  234POPC  C21231292   8.633   6.414   3.929
  234POPC  H12R31293   8.619   6.524   3.937
  234POPC  H12S31294   8.737   6.392   3.961
  234POPC  C21331295   8.541   6.347   4.033
  234POPC  H13R31296   8.511   6.245   4.003
  234POPC  H13S31297   8.453   6.413   4.040
  234POPC  C21431298   8.614   6.348   4.169
  234POPC  H14R31299   8.649   6.453   4.178
  234POPC  H14S31300   8.703   6.284   4.166
  234POPC  C21531301   8.545   6.315   4.302
  234POPC  H15R31302   8.564   6.209   4.327
  234POPC  H15S31303   8.435   6.330   4.298
  234POPC  C21631304   8.608   6.405   4.411
  234POPC  H16R31305   8.567   6.380   4.511
  234POPC  H16S31306   8.574   6.508   4.387
  234POPC  C21731307   8.762   6.400   4.415
  234POPC  H17R31308   8.807   6.493   4.452
  234POPC  H17S31309   8.808   6.387   4.314
  234POPC  C21831310   8.815   6.294   4.509
  234POPC  H18R31311   8.925   6.289   4.508
  234POPC  H18S31312   8.776   6.196   4.476
  234POPC  H18T31313   8.782   6.315   4.612
  234POPC   C3331314   8.572   5.830   3.238
  234POPC   H3X31315   8.576   5.739   3.174
  234POPC   H3Y31316   8.473   5.831   3.289
  234POPC   C3431317   8.685   5.825   3.341
  234POPC   H4X31318   8.730   5.926   3.348
  234POPC   H4Y31319   8.765   5.755   3.307
  234POPC   C3531320   8.636   5.786   3.481
  234POPC   H5X31321   8.718   5.744   3.542
  234POPC   H5Y31322   8.556   5.709   3.471
  234POPC   C3631323   8.578   5.907   3.553
  234POPC   H6X31324   8.500   5.940   3.483
  234POPC   H6Y31325   8.654   5.988   3.562
  234POPC   C3731326   8.519   5.875   3.691
  234POPC   H7X31327   8.457   5.785   3.681
  234POPC   H7Y31328   8.451   5.954   3.728
  234POPC   C3831329   8.627   5.856   3.796
  234POPC   H8X31330   8.716   5.818   3.743
  234POPC   H8Y31331   8.597   5.780   3.870
  234POPC   C3931332   8.661   5.989   3.865
  234POPC   H9X31333   8.571   6.032   3.914
  234POPC   H9Y31334   8.693   6.059   3.785
  234POPC  C31031335   8.773   5.976   3.968
  234POPC  H10X31336   8.847   5.903   3.930
  234POPC  H10Y31337   8.732   5.935   4.063
  234POPC  C31131338   8.847   6.107   3.996
  234POPC  H11X31339   8.917   6.088   4.080
  234POPC  H11Y31340   8.773   6.183   4.025
  234POPC  C31231341   8.926   6.159   3.876
  234POPC  H12X31342   8.860   6.203   3.798
  234POPC  H12Y31343   8.974   6.068   3.837
  234POPC  C31331344   9.046   6.249   3.905
  234POPC  H13X31345   9.107   6.257   3.812
  234POPC  H13Y31346   9.109   6.197   3.981
  234POPC  C31431347   9.014   6.390   3.953
  234POPC  H14X31348   8.953   6.383   4.046
  234POPC  H14Y31349   8.954   6.445   3.877
  234POPC  C31531350   9.146   6.463   3.982
  234POPC  H15X31351   9.181   6.514   3.889
  234POPC  H15Y31352   9.222   6.386   4.007
  234POPC  C31631353   9.142   6.561   4.098
  234POPC  H16X31354   9.095   6.514   4.187
  234POPC  H16Y31355   9.085   6.652   4.074
  234POPC  H16Z31356   9.245   6.593   4.125
  235POPC     N31357   8.471   1.677   2.143
  235POPC   C1231358   8.595   1.656   2.229
  235POPC  H12A31359   8.647   1.752   2.240
  235POPC  H12B31360   8.664   1.592   2.177
  235POPC   C1331361   8.510   1.688   1.999
  235POPC  H13A31362   8.536   1.591   1.958
  235POPC  H13B31363   8.429   1.729   1.940
  235POPC  H13C31364   8.595   1.754   1.988
  235POPC   C1431365   8.377   1.563   2.163
  235POPC  H14A31366   8.418   1.470   2.125
  235POPC  H14B31367   8.355   1.554   2.270
  235POPC  H14C31368   8.284   1.579   2.110
  235POPC   C1531369   8.406   1.805   2.186
  235POPC  H15A31370   8.474   1.888   2.170
  235POPC  H15B31371   8.388   1.801   2.294
  235POPC  H15C31372   8.314   1.827   2.133
  235POPC   C1131373   8.574   1.608   2.374
  235POPC  H11A31374   8.673   1.586   2.420
  235POPC  H11B31375   8.516   1.513   2.376
  235POPC     P31376   8.588   1.832   2.503
  235POPC   O1331377   8.494   1.940   2.539
  235POPC   O1431378   8.691   1.866   2.401
  235POPC   O1231379   8.504   1.708   2.448
  235POPC   O1131380   8.651   1.770   2.632
  235POPC    C131381   8.561   1.732   2.738
  235POPC    HA31382   8.520   1.631   2.719
  235POPC    HB31383   8.475   1.802   2.751
  235POPC    C231384   8.644   1.728   2.868
  235POPC    HS31385   8.585   1.683   2.950
  235POPC   O2131386   8.691   1.858   2.905
  235POPC   C2131387   8.599   1.943   2.942
  235POPC   O2231388   8.481   1.921   2.961
  235POPC   C2231389   8.667   2.076   2.971
  235POPC   H2R31390   8.601   2.158   2.936
  235POPC   H2S31391   8.764   2.082   2.916
  235POPC    C331392   8.768   1.641   2.838
  235POPC    HX31393   8.821   1.683   2.750
  235POPC    HY31394   8.731   1.539   2.811
  235POPC   O3131395   8.862   1.638   2.946
  235POPC   C3131396   8.828   1.554   3.041
  235POPC   O3231397   8.747   1.464   3.032
  235POPC   C3231398   8.904   1.591   3.167
  235POPC   H2X31399   8.904   1.701   3.177
  235POPC   H2Y31400   9.008   1.555   3.156
  235POPC   C2331401   8.690   2.089   3.123
  235POPC   H3R31402   8.592   2.081   3.175
  235POPC   H3S31403   8.729   2.190   3.147
  235POPC   C2431404   8.790   1.984   3.176
  235POPC   H4R31405   8.887   1.996   3.124
  235POPC   H4S31406   8.752   1.882   3.155
  235POPC   C2531407   8.809   1.997   3.327
  235POPC   H5R31408   8.830   2.103   3.354
  235POPC   H5S31409   8.896   1.937   3.358
  235POPC   C2631410   8.688   1.946   3.405
  235POPC   H6R31411   8.671   1.838   3.383
  235POPC   H6S31412   8.598   2.002   3.370
  235POPC   C2731413   8.699   1.968   3.556
  235POPC   H7R31414   8.730   2.074   3.573
  235POPC   H7S31415   8.778   1.902   3.600
  235POPC   C2831416   8.564   1.949   3.625
  235POPC   H8R31417   8.492   2.018   3.575
  235POPC   H8S31418   8.573   1.987   3.730
  235POPC   C2931419   8.508   1.809   3.627
  235POPC   H9131420   8.546   1.744   3.708
  235POPC  C21031421   8.417   1.759   3.542
  235POPC  H10131422   8.378   1.657   3.561
  235POPC  C21131423   8.351   1.830   3.427
  235POPC  H11R31424   8.366   1.769   3.335
  235POPC  H11S31425   8.397   1.928   3.406
  235POPC  C21231426   8.200   1.853   3.444
  235POPC  H12R31427   8.148   1.758   3.463
  235POPC  H12S31428   8.163   1.889   3.345
  235POPC  C21331429   8.168   1.966   3.545
  235POPC  H13R31430   8.072   2.017   3.519
  235POPC  H13S31431   8.253   2.035   3.531
  235POPC  C21431432   8.169   1.933   3.695
  235POPC  H14R31433   8.211   1.831   3.704
  235POPC  H14S31434   8.065   1.930   3.733
  235POPC  C21531435   8.250   2.034   3.779
  235POPC  H15R31436   8.193   2.129   3.786
  235POPC  H15S31437   8.345   2.058   3.726
  235POPC  C21631438   8.289   1.987   3.921
  235POPC  H16R31439   8.198   1.970   3.981
  235POPC  H16S31440   8.344   2.070   3.971
  235POPC  C21731441   8.379   1.861   3.922
  235POPC  H17R31442   8.483   1.895   3.902
  235POPC  H17S31443   8.351   1.794   3.838
  235POPC  C21831444   8.376   1.774   4.047
  235POPC  H18R31445   8.354   1.834   4.137
  235POPC  H18S31446   8.473   1.721   4.061
  235POPC  H18T31447   8.299   1.695   4.038
  235POPC   C3331448   8.835   1.527   3.288
  235POPC   H3X31449   8.829   1.416   3.277
  235POPC   H3Y31450   8.731   1.567   3.291
  235POPC   C3431451   8.902   1.562   3.420
  235POPC   H4X31452   8.939   1.667   3.415
  235POPC   H4Y31453   8.989   1.495   3.435
  235POPC   C3531454   8.804   1.553   3.537
  235POPC   H5X31455   8.747   1.458   3.529
  235POPC   H5Y31456   8.732   1.637   3.530
  235POPC   C3631457   8.872   1.554   3.674
  235POPC   H6X31458   8.790   1.555   3.749
  235POPC   H6Y31459   8.931   1.647   3.688
  235POPC   C3731460   8.959   1.431   3.696
  235POPC   H7X31461   9.054   1.445   3.639
  235POPC   H7Y31462   8.909   1.342   3.653
  235POPC   C3831463   8.990   1.404   3.843
  235POPC   H8X31464   9.023   1.498   3.892
  235POPC   H8Y31465   9.075   1.332   3.850
  235POPC   C3931466   8.870   1.350   3.922
  235POPC   H9X31467   8.893   1.244   3.950
  235POPC   H9Y31468   8.780   1.347   3.858
  235POPC  C31031469   8.841   1.431   4.050
  235POPC  H10X31470   8.936   1.458   4.101
  235POPC  H10Y31471   8.785   1.363   4.119
  235POPC  C31131472   8.756   1.559   4.033
  235POPC  H11X31473   8.673   1.552   4.107
  235POPC  H11Y31474   8.709   1.560   3.933
  235POPC  C31231475   8.828   1.694   4.060
  235POPC  H12X31476   8.893   1.721   3.974
  235POPC  H12Y31477   8.894   1.683   4.149
  235POPC  C31331478   8.726   1.807   4.089
  235POPC  H13X31479   8.667   1.775   4.177
  235POPC  H13Y31480   8.657   1.812   4.002
  235POPC  C31431481   8.782   1.949   4.115
  235POPC  H14X31482   8.789   2.000   4.016
  235POPC  H14Y31483   8.885   1.941   4.156
  235POPC  C31531484   8.700   2.041   4.211
  235POPC  H15X31485   8.739   2.144   4.198
  235POPC  H15Y31486   8.720   2.015   4.317
  235POPC  C31631487   8.548   2.040   4.194
  235POPC  H16X31488   8.521   2.056   4.088
  235POPC  H16Y31489   8.502   2.120   4.255
  235POPC  H16Z31490   8.507   1.943   4.229
  236POPC     N31491   6.140  -0.150   2.401
  236POPC   C1231492   6.125  -0.100   2.257
  236POPC  H12A31493   6.130  -0.184   2.190
  236POPC  H12B31494   6.214  -0.040   2.235
  236POPC   C1331495   6.017  -0.218   2.451
  236POPC  H13A31496   5.980  -0.296   2.385
  236POPC  H13B31497   6.036  -0.264   2.547
  236POPC  H13C31498   5.939  -0.144   2.464
  236POPC   C1431499   6.256  -0.245   2.405
  236POPC  H14A31500   6.347  -0.195   2.372
  236POPC  H14B31501   6.273  -0.281   2.506
  236POPC  H14C31502   6.242  -0.332   2.342
  236POPC   C1531503   6.169  -0.035   2.493
  236POPC  H15A31504   6.081   0.030   2.498
  236POPC  H15B31505   6.249   0.027   2.456
  236POPC  H15C31506   6.192  -0.068   2.593
  236POPC   C1131507   6.001  -0.016   2.222
  236POPC  H11A31508   5.909  -0.078   2.233
  236POPC  H11B31509   6.006   0.015   2.115
  236POPC     P31510   5.904   0.222   2.292
  236POPC   O1331511   5.826   0.206   2.168
  236POPC   O1431512   5.987   0.344   2.307
  236POPC   O1231513   5.999   0.098   2.306
  236POPC   O1131514   5.800   0.212   2.408
  236POPC    C131515   5.757   0.091   2.472
  236POPC    HA31516   5.798   0.000   2.423
  236POPC    HB31517   5.646   0.085   2.467
  236POPC    C231518   5.796   0.092   2.622
  236POPC    HS31519   5.736   0.175   2.667
  236POPC   O2131520   5.939   0.116   2.627
  236POPC   C2131521   5.972   0.204   2.720
  236POPC   O2231522   5.899   0.244   2.809
  236POPC   C2231523   6.114   0.253   2.693
  236POPC   H2R31524   6.115   0.287   2.587
  236POPC   H2S31525   6.183   0.167   2.703
  236POPC    C331526   5.758  -0.040   2.696
  236POPC    HX31527   5.822  -0.124   2.661
  236POPC    HY31528   5.654  -0.065   2.664
  236POPC   O3131529   5.756  -0.028   2.840
  236POPC   C3131530   5.870  -0.057   2.902
  236POPC   O3231531   5.973  -0.093   2.848
  236POPC   C3231532   5.852  -0.044   3.053
  236POPC   H2X31533   5.746  -0.062   3.078
  236POPC   H2Y31534   5.878   0.060   3.082
  236POPC   C2331535   6.159   0.369   2.785
  236POPC   H3R31536   6.074   0.436   2.810
  236POPC   H3S31537   6.234   0.430   2.729
  236POPC   C2431538   6.228   0.323   2.914
  236POPC   H4R31539   6.282   0.411   2.956
  236POPC   H4S31540   6.304   0.245   2.892
  236POPC   C2531541   6.131   0.270   3.021
  236POPC   H5R31542   6.078   0.180   2.983
  236POPC   H5S31543   6.053   0.348   3.041
  236POPC   C2631544   6.198   0.234   3.154
  236POPC   H6R31545   6.272   0.152   3.138
  236POPC   H6S31546   6.120   0.195   3.224
  236POPC   C2731547   6.269   0.353   3.220
  236POPC   H7R31548   6.198   0.438   3.228
  236POPC   H7S31549   6.353   0.386   3.155
  236POPC   C2831550   6.329   0.318   3.358
  236POPC   H8R31551   6.403   0.396   3.385
  236POPC   H8S31552   6.386   0.223   3.346
  236POPC   C2931553   6.224   0.311   3.465
  236POPC   H9131554   6.164   0.403   3.476
  236POPC  C21031555   6.198   0.207   3.546
  236POPC  H10131556   6.117   0.218   3.619
  236POPC  C21131557   6.269   0.074   3.548
  236POPC  H11R31558   6.365   0.076   3.493
  236POPC  H11S31559   6.206  -0.002   3.497
  236POPC  C21231560   6.296   0.024   3.692
  236POPC  H12R31561   6.365   0.094   3.745
  236POPC  H12S31562   6.347  -0.075   3.685
  236POPC  C21331563   6.168   0.008   3.774
  236POPC  H13R31564   6.097  -0.043   3.707
  236POPC  H13S31565   6.125   0.107   3.799
  236POPC  C21431566   6.179  -0.076   3.902
  236POPC  H14R31567   6.206  -0.180   3.873
  236POPC  H14S31568   6.080  -0.081   3.950
  236POPC  C21531569   6.280  -0.022   4.004
  236POPC  H15R31570   6.381  -0.038   3.961
  236POPC  H15S31571   6.273  -0.083   4.097
  236POPC  C21631572   6.267   0.126   4.040
  236POPC  H16R31573   6.276   0.189   3.948
  236POPC  H16S31574   6.351   0.154   4.107
  236POPC  C21731575   6.136   0.159   4.112
  236POPC  H17R31576   6.126   0.091   4.200
  236POPC  H17S31577   6.051   0.138   4.043
  236POPC  C21831578   6.128   0.304   4.159
  236POPC  H18R31579   6.142   0.373   4.073
  236POPC  H18S31580   6.208   0.324   4.234
  236POPC  H18T31581   6.030   0.324   4.205
  236POPC   C3331582   5.941  -0.146   3.128
  236POPC   H3X31583   6.048  -0.114   3.118
  236POPC   H3Y31584   5.932  -0.246   3.081
  236POPC   C3431585   5.906  -0.160   3.276
  236POPC   H4X31586   5.979  -0.231   3.322
  236POPC   H4Y31587   5.805  -0.205   3.287
  236POPC   C3531588   5.911  -0.027   3.352
  236POPC   H5X31589   5.820   0.033   3.333
  236POPC   H5Y31590   5.998   0.031   3.313
  236POPC   C3631591   5.934  -0.046   3.503
  236POPC   H6X31592   5.957   0.053   3.547
  236POPC   H6Y31593   6.024  -0.111   3.516
  236POPC   C3731594   5.819  -0.109   3.582
  236POPC   H7X31595   5.798  -0.210   3.543
  236POPC   H7Y31596   5.727  -0.047   3.571
  236POPC   C3831597   5.857  -0.120   3.731
  236POPC   H8X31598   5.877  -0.017   3.770
  236POPC   H8Y31599   5.950  -0.180   3.740
  236POPC   C3931600   5.753  -0.189   3.818
  236POPC   H9X31601   5.734  -0.290   3.776
  236POPC   H9Y31602   5.658  -0.131   3.812
  236POPC  C31031603   5.797  -0.205   3.964
  236POPC  H10X31604   5.894  -0.261   3.966
  236POPC  H10Y31605   5.722  -0.266   4.019
  236POPC  C31131606   5.814  -0.072   4.038
  236POPC  H11X31607   5.891  -0.009   3.988
  236POPC  H11Y31608   5.852  -0.095   4.140
  236POPC  C31231609   5.684   0.008   4.047
  236POPC  H12X31610   5.608  -0.052   4.101
  236POPC  H12Y31611   5.644   0.029   3.945
  236POPC  C31331612   5.704   0.143   4.116
  236POPC  H13X31613   5.608   0.198   4.125
  236POPC  H13Y31614   5.771   0.205   4.052
  236POPC  C31431615   5.768   0.133   4.254
  236POPC  H14X31616   5.776   0.239   4.284
  236POPC  H14Y31617   5.872   0.095   4.243
  236POPC  C31531618   5.698   0.048   4.363
  236POPC  H15X31619   5.775   0.024   4.439
  236POPC  H15Y31620   5.665  -0.049   4.321
  236POPC  C31631621   5.581   0.114   4.438
  236POPC  H16X31622   5.606   0.217   4.470
  236POPC  H16Y31623   5.555   0.054   4.528
  236POPC  H16Z31624   5.491   0.118   4.374
  237POPC     N31625   2.493   8.893   2.124
  237POPC   C1231626   2.578   8.877   2.249
  237POPC  H12A31627   2.667   8.819   2.227
  237POPC  H12B31628   2.521   8.822   2.323
  237POPC   C1331629   2.371   8.974   2.155
  237POPC  H13A31630   2.401   9.060   2.217
  237POPC  H13B31631   2.321   9.009   2.066
  237POPC  H13C31632   2.300   8.920   2.216
  237POPC   C1431633   2.580   8.965   2.025
  237POPC  H14A31634   2.619   9.055   2.071
  237POPC  H14B31635   2.661   8.901   1.991
  237POPC  H14C31636   2.525   9.000   1.937
  237POPC   C1531637   2.449   8.763   2.065
  237POPC  H15A31638   2.383   8.708   2.130
  237POPC  H15B31639   2.532   8.695   2.044
  237POPC  H15C31640   2.396   8.778   1.972
  237POPC   C1131641   2.621   9.010   2.316
  237POPC  H11A31642   2.669   9.082   2.246
  237POPC  H11B31643   2.695   8.990   2.395
  237POPC     P31644   2.500   9.187   2.470
  237POPC   O1331645   2.410   9.285   2.407
  237POPC   O1431646   2.636   9.226   2.512
  237POPC   O1231647   2.506   9.065   2.372
  237POPC   O1131648   2.425   9.117   2.590
  237POPC    C131649   2.327   9.014   2.571
  237POPC    HA31650   2.306   8.994   2.463
  237POPC    HB31651   2.230   9.047   2.612
  237POPC    C231652   2.368   8.875   2.633
  237POPC    HS31653   2.314   8.798   2.573
  237POPC   O2131654   2.333   8.861   2.772
  237POPC   C2131655   2.203   8.854   2.796
  237POPC   O2231656   2.117   8.841   2.710
  237POPC   C2231657   2.181   8.859   2.946
  237POPC   H2R31658   2.266   8.915   2.991
  237POPC   H2S31659   2.187   8.754   2.978
  237POPC    C331660   2.520   8.841   2.621
  237POPC    HX31661   2.552   8.852   2.516
  237POPC    HY31662   2.527   8.733   2.648
  237POPC   O3131663   2.604   8.916   2.712
  237POPC   C3131664   2.732   8.932   2.683
  237POPC   O3231665   2.787   8.905   2.577
  237POPC   C3231666   2.807   8.980   2.805
  237POPC   H2X31667   2.762   9.075   2.840
  237POPC   H2Y31668   2.910   8.999   2.769
  237POPC   C2331669   2.046   8.919   2.992
  237POPC   H3R31670   2.038   8.901   3.101
  237POPC   H3S31671   1.962   8.865   2.942
  237POPC   C2431672   2.028   9.070   2.969
  237POPC   H4R31673   1.936   9.102   3.023
  237POPC   H4S31674   2.009   9.088   2.860
  237POPC   C2531675   2.146   9.158   3.013
  237POPC   H5R31676   2.214   9.101   3.080
  237POPC   H5S31677   2.109   9.245   3.071
  237POPC   C2631678   2.224   9.213   2.892
  237POPC   H6R31679   2.164   9.295   2.846
  237POPC   H6S31680   2.235   9.134   2.815
  237POPC   C2731681   2.363   9.268   2.925
  237POPC   H7R31682   2.356   9.339   3.010
  237POPC   H7S31683   2.397   9.325   2.835
  237POPC   C2831684   2.467   9.159   2.954
  237POPC   H8R31685   2.473   9.091   2.866
  237POPC   H8S31686   2.433   9.097   3.040
  237POPC   C2931687   2.601   9.223   2.979
  237POPC   H9131688   2.649   9.261   2.887
  237POPC  C21031689   2.666   9.236   3.097
  237POPC  H10131690   2.765   9.284   3.097
  237POPC  C21131691   2.617   9.188   3.231
  237POPC  H11R31692   2.535   9.113   3.220
  237POPC  H11S31693   2.575   9.273   3.290
  237POPC  C21231694   2.729   9.120   3.313
  237POPC  H12R31695   2.811   9.191   3.335
  237POPC  H12S31696   2.773   9.039   3.251
  237POPC  C21331697   2.678   9.055   3.443
  237POPC  H13R31698   2.732   8.959   3.456
  237POPC  H13S31699   2.570   9.030   3.434
  237POPC  C21431700   2.703   9.138   3.570
  237POPC  H14R31701   2.644   9.232   3.566
  237POPC  H14S31702   2.811   9.164   3.574
  237POPC  C21531703   2.668   9.061   3.698
  237POPC  H15R31704   2.714   8.959   3.692
  237POPC  H15S31705   2.558   9.047   3.706
  237POPC  C21631706   2.721   9.130   3.825
  237POPC  H16R31707   2.665   9.224   3.842
  237POPC  H16S31708   2.828   9.157   3.809
  237POPC  C21731709   2.712   9.041   3.951
  237POPC  H17R31710   2.676   8.940   3.920
  237POPC  H17S31711   2.635   9.084   4.020
  237POPC  C21831712   2.844   9.025   4.025
  237POPC  H18R31713   2.882   9.123   4.060
  237POPC  H18S31714   2.921   8.979   3.960
  237POPC  H18T31715   2.831   8.961   4.115
  237POPC   C3331716   2.816   8.873   2.916
  237POPC   H3X31717   2.897   8.901   2.987
  237POPC   H3Y31718   2.844   8.776   2.870
  237POPC   C3431719   2.687   8.856   2.998
  237POPC   H4X31720   2.596   8.858   2.934
  237POPC   H4Y31721   2.680   8.941   3.069
  237POPC   C3531722   2.687   8.723   3.074
  237POPC   H5X31723   2.785   8.713   3.125
  237POPC   H5Y31724   2.677   8.638   3.003
  237POPC   C3631725   2.575   8.717   3.178
  237POPC   H6X31726   2.570   8.817   3.226
  237POPC   H6Y31727   2.601   8.645   3.258
  237POPC   C3731728   2.441   8.676   3.116
  237POPC   H7X31729   2.449   8.571   3.077
  237POPC   H7Y31730   2.422   8.742   3.029
  237POPC   C3831731   2.321   8.685   3.212
  237POPC   H8X31732   2.321   8.596   3.278
  237POPC   H8Y31733   2.227   8.675   3.156
  237POPC   C3931734   2.319   8.816   3.293
  237POPC   H9X31735   2.326   8.900   3.220
  237POPC   H9Y31736   2.409   8.821   3.358
  237POPC  C31031737   2.197   8.838   3.382
  237POPC  H10X31738   2.202   8.774   3.473
  237POPC  H10Y31739   2.105   8.810   3.326
  237POPC  C31131740   2.183   8.986   3.424
  237POPC  H11X31741   2.085   9.001   3.475
  237POPC  H11Y31742   2.181   9.048   3.331
  237POPC  C31231743   2.297   9.038   3.513
  237POPC  H12X31744   2.354   9.114   3.455
  237POPC  H12Y31745   2.368   8.956   3.538
  237POPC  C31331746   2.249   9.104   3.644
  237POPC  H13X31747   2.146   9.144   3.631
  237POPC  H13Y31748   2.316   9.191   3.666
  237POPC  C31431749   2.255   9.010   3.765
  237POPC  H14X31750   2.360   8.979   3.783
  237POPC  H14Y31751   2.195   8.919   3.745
  237POPC  C31531752   2.202   9.078   3.892
  237POPC  H15X31753   2.094   9.101   3.879
  237POPC  H15Y31754   2.255   9.175   3.905
  237POPC  C31631755   2.220   8.996   4.019
  237POPC  H16X31756   2.178   9.051   4.106
  237POPC  H16Y31757   2.328   8.977   4.039
  237POPC  H16Z31758   2.169   8.898   4.011
  238POPC     N31759   7.194   8.716   2.126
  238POPC   C1231760   7.128   8.829   2.204
  238POPC  H12A31761   7.038   8.791   2.249
  238POPC  H12B31762   7.102   8.905   2.132
  238POPC   C1331763   7.219   8.597   2.213
  238POPC  H13A31764   7.279   8.630   2.300
  238POPC  H13B31765   7.129   8.556   2.254
  238POPC  H13C31766   7.280   8.525   2.162
  238POPC   C1431767   7.114   8.685   2.003
  238POPC  H14A31768   7.017   8.643   2.027
  238POPC  H14B31769   7.093   8.775   1.944
  238POPC  H14C31770   7.165   8.617   1.935
  238POPC   C1531771   7.330   8.766   2.089
  238POPC  H15A31772   7.384   8.701   2.024
  238POPC  H15B31773   7.390   8.782   2.181
  238POPC  H15C31774   7.327   8.865   2.043
  238POPC   C1131775   7.210   8.899   2.317
  238POPC  H11A31776   7.141   8.970   2.368
  238POPC  H11B31777   7.290   8.961   2.271
  238POPC     P31778   7.413   8.788   2.452
  238POPC   O1331779   7.496   8.887   2.382
  238POPC   O1431780   7.440   8.644   2.426
  238POPC   O1231781   7.260   8.806   2.411
  238POPC   O1131782   7.408   8.814   2.608
  238POPC    C131783   7.293   8.772   2.682
  238POPC    HA31784   7.303   8.665   2.710
  238POPC    HB31785   7.197   8.784   2.625
  238POPC    C231786   7.272   8.860   2.808
  238POPC    HS31787   7.263   8.964   2.767
  238POPC   O2131788   7.382   8.843   2.901
  238POPC   C2131789   7.411   8.956   2.966
  238POPC   O2231790   7.353   9.061   2.950
  238POPC   C2231791   7.522   8.934   3.071
  238POPC   H2R31792   7.602   9.007   3.048
  238POPC   H2S31793   7.563   8.832   3.061
  238POPC    C331794   7.137   8.826   2.877
  238POPC    HX31795   7.150   8.732   2.936
  238POPC    HY31796   7.059   8.808   2.799
  238POPC   O3131797   7.096   8.937   2.957
  238POPC   C3131798   7.001   8.915   3.044
  238POPC   O3231799   6.942   8.810   3.060
  238POPC   C3231800   6.989   9.038   3.131
  238POPC   H2X31801   6.889   9.084   3.116
  238POPC   H2Y31802   7.068   9.110   3.103
  238POPC   C2331803   7.464   8.960   3.213
  238POPC   H3R31804   7.399   8.873   3.238
  238POPC   H3S31805   7.401   9.051   3.204
  238POPC   C2431806   7.558   8.989   3.332
  238POPC   H4R31807   7.632   9.065   3.297
  238POPC   H4S31808   7.613   8.898   3.361
  238POPC   C2531809   7.486   9.048   3.457
  238POPC   H5R31810   7.441   8.969   3.520
  238POPC   H5S31811   7.408   9.121   3.426
  238POPC   C2631812   7.580   9.111   3.558
  238POPC   H6R31813   7.650   9.166   3.495
  238POPC   H6S31814   7.634   9.028   3.608
  238POPC   C2731815   7.520   9.207   3.664
  238POPC   H7R31816   7.410   9.206   3.654
  238POPC   H7S31817   7.550   9.312   3.645
  238POPC   C2831818   7.568   9.178   3.807
  238POPC   H8R31819   7.671   9.213   3.824
  238POPC   H8S31820   7.570   9.067   3.816
  238POPC   C2931821   7.484   9.236   3.916
  238POPC   H9131822   7.528   9.313   3.982
  238POPC  C21031823   7.360   9.193   3.936
  238POPC  H10131824   7.304   9.234   4.019
  238POPC  C21131825   7.293   9.085   3.854
  238POPC  H11R31826   7.356   9.049   3.770
  238POPC  H11S31827   7.201   9.122   3.806
  238POPC  C21231828   7.260   8.956   3.927
  238POPC  H12R31829   7.355   8.901   3.945
  238POPC  H12S31830   7.213   8.894   3.849
  238POPC  C21331831   7.195   8.964   4.066
  238POPC  H13R31832   7.261   9.029   4.128
  238POPC  H13S31833   7.201   8.861   4.106
  238POPC  C21431834   7.049   9.007   4.094
  238POPC  H14R31835   7.024   9.107   4.057
  238POPC  H14S31836   7.043   9.014   4.206
  238POPC  C21531837   6.941   8.908   4.052
  238POPC  H15R31838   6.842   8.945   4.087
  238POPC  H15S31839   6.963   8.814   4.105
  238POPC  C21631840   6.938   8.876   3.903
  238POPC  H16R31841   7.039   8.859   3.867
  238POPC  H16S31842   6.905   8.966   3.850
  238POPC  C21731843   6.879   8.740   3.866
  238POPC  H17R31844   6.824   8.740   3.770
  238POPC  H17S31845   6.802   8.722   3.938
  238POPC  C21831846   6.987   8.630   3.865
  238POPC  H18R31847   7.026   8.613   3.968
  238POPC  H18S31848   7.073   8.662   3.803
  238POPC  H18T31849   6.952   8.534   3.824
  238POPC   C3331850   7.012   8.996   3.276
  238POPC   H3X31851   6.927   8.930   3.300
  238POPC   H3Y31852   7.008   9.085   3.343
  238POPC   C3431853   7.150   8.927   3.290
  238POPC   H4X31854   7.217   9.012   3.262
  238POPC   H4Y31855   7.166   8.846   3.217
  238POPC   C3531856   7.197   8.874   3.427
  238POPC   H5X31857   7.151   8.923   3.515
  238POPC   H5Y31858   7.299   8.912   3.424
  238POPC   C3631859   7.232   8.725   3.448
  238POPC   H6X31860   7.328   8.700   3.396
  238POPC   H6Y31861   7.155   8.661   3.401
  238POPC   C3731862   7.245   8.687   3.598
  238POPC   H7X31863   7.216   8.580   3.609
  238POPC   H7Y31864   7.170   8.748   3.652
  238POPC   C3831865   7.384   8.708   3.662
  238POPC   H8X31866   7.405   8.817   3.663
  238POPC   H8Y31867   7.461   8.659   3.599
  238POPC   C3931868   7.401   8.654   3.807
  238POPC   H9X31869   7.398   8.543   3.804
  238POPC   H9Y31870   7.318   8.689   3.871
  238POPC  C31031871   7.535   8.698   3.873
  238POPC  H10X31872   7.530   8.803   3.908
  238POPC  H10Y31873   7.613   8.695   3.793
  238POPC  C31131874   7.583   8.606   3.987
  238POPC  H11X31875   7.695   8.612   3.988
  238POPC  H11Y31876   7.557   8.501   3.964
  238POPC  C31231877   7.540   8.645   4.130
  238POPC  H12X31878   7.558   8.753   4.139
  238POPC  H12Y31879   7.607   8.593   4.202
  238POPC  C31331880   7.394   8.621   4.170
  238POPC  H13X31881   7.361   8.526   4.123
  238POPC  H13Y31882   7.331   8.699   4.124
  238POPC  C31431883   7.370   8.610   4.324
  238POPC  H14X31884   7.440   8.541   4.374
  238POPC  H14Y31885   7.269   8.567   4.339
  238POPC  C31531886   7.381   8.738   4.406
  238POPC  H15X31887   7.488   8.761   4.424
  238POPC  H15Y31888   7.333   8.718   4.505
  238POPC  C31631889   7.314   8.857   4.341
  238POPC  H16X31890   7.207   8.836   4.321
  238POPC  H16Y31891   7.364   8.878   4.245
  238POPC  H16Z31892   7.321   8.948   4.404
  239POPC     N31893   1.134   8.327   2.378
  239POPC   C1231894   1.201   8.241   2.485
  239POPC  H12A31895   1.125   8.197   2.549
  239POPC  H12B31896   1.263   8.304   2.546
  239POPC   C1331897   1.074   8.235   2.277
  239POPC  H13A31898   1.031   8.289   2.195
  239POPC  H13B31899   1.152   8.169   2.239
  239POPC  H13C31900   0.994   8.174   2.320
  239POPC   C1431901   1.030   8.416   2.437
  239POPC  H14A31902   0.990   8.481   2.361
  239POPC  H14B31903   0.943   8.359   2.472
  239POPC  H14C31904   1.070   8.475   2.519
  239POPC   C1531905   1.243   8.408   2.314
  239POPC  H15A31906   1.276   8.487   2.378
  239POPC  H15B31907   1.215   8.445   2.217
  239POPC  H15C31908   1.329   8.340   2.300
  239POPC   C1131909   1.290   8.123   2.434
  239POPC  H11A31910   1.221   8.043   2.398
  239POPC  H11B31911   1.346   8.082   2.521
  239POPC     P31912   1.446   8.046   2.242
  239POPC   O1331913   1.578   8.085   2.186
  239POPC   O1431914   1.343   8.003   2.144
  239POPC   O1231915   1.383   8.163   2.331
  239POPC   O1131916   1.456   7.934   2.351
  239POPC    C131917   1.555   7.834   2.365
  239POPC    HA31918   1.614   7.820   2.271
  239POPC    HB31919   1.505   7.737   2.385
  239POPC    C231920   1.651   7.870   2.481
  239POPC    HS31921   1.719   7.782   2.497
  239POPC   O2131922   1.588   7.908   2.604
  239POPC   C2131923   1.506   7.822   2.653
  239POPC   O2231924   1.498   7.704   2.625
  239POPC   C2231925   1.426   7.888   2.766
  239POPC   H2R31926   1.318   7.886   2.740
  239POPC   H2S31927   1.457   7.993   2.778
  239POPC    C331928   1.737   7.991   2.442
  239POPC    HX31929   1.764   7.980   2.335
  239POPC    HY31930   1.826   7.986   2.509
  239POPC   O3131931   1.663   8.113   2.460
  239POPC   C3131932   1.738   8.218   2.479
  239POPC   O3231933   1.861   8.218   2.477
  239POPC   C3231934   1.650   8.331   2.529
  239POPC   H2X31935   1.565   8.344   2.459
  239POPC   H2Y31936   1.711   8.423   2.529
  239POPC   C2331937   1.454   7.805   2.892
  239POPC   H3R31938   1.556   7.832   2.928
  239POPC   H3S31939   1.458   7.696   2.865
  239POPC   C2431940   1.350   7.812   3.004
  239POPC   H4R31941   1.398   7.777   3.098
  239POPC   H4S31942   1.270   7.739   2.982
  239POPC   C2531943   1.285   7.947   3.033
  239POPC   H5R31944   1.273   8.009   2.941
  239POPC   H5S31945   1.349   8.004   3.103
  239POPC   C2631946   1.146   7.922   3.093
  239POPC   H6R31947   1.152   7.841   3.169
  239POPC   H6S31948   1.078   7.886   3.012
  239POPC   C2731949   1.082   8.045   3.157
  239POPC   H7R31950   0.974   8.022   3.172
  239POPC   H7S31951   1.088   8.130   3.085
  239POPC   C2831952   1.145   8.083   3.292
  239POPC   H8R31953   1.253   8.104   3.280
  239POPC   H8S31954   1.137   7.995   3.361
  239POPC   C2931955   1.074   8.202   3.349
  239POPC   H9131956   1.123   8.299   3.331
  239POPC  C21031957   0.957   8.200   3.415
  239POPC  H10131958   0.917   8.294   3.454
  239POPC  C21131959   0.874   8.078   3.448
  239POPC  H11R31960   0.916   7.984   3.404
  239POPC  H11S31961   0.771   8.089   3.406
  239POPC  C21231962   0.863   8.059   3.600
  239POPC  H12R31963   0.793   7.975   3.622
  239POPC  H12S31964   0.820   8.151   3.646
  239POPC  C21331965   0.998   8.026   3.664
  239POPC  H13R31966   1.078   8.088   3.619
  239POPC  H13S31967   1.022   7.920   3.643
  239POPC  C21431968   1.002   8.051   3.815
  239POPC  H14R31969   1.092   7.997   3.853
  239POPC  H14S31970   0.911   8.008   3.862
  239POPC  C21531971   1.015   8.199   3.854
  239POPC  H15R31972   0.921   8.251   3.824
  239POPC  H15S31973   1.099   8.245   3.797
  239POPC  C21631974   1.037   8.224   4.004
  239POPC  H16R31975   0.955   8.176   4.061
  239POPC  H16S31976   1.030   8.333   4.021
  239POPC  C21731977   1.173   8.180   4.060
  239POPC  H17R31978   1.253   8.227   3.999
  239POPC  H17S31979   1.184   8.070   4.052
  239POPC  C21831980   1.198   8.224   4.205
  239POPC  H18R31981   1.192   8.335   4.212
  239POPC  H18S31982   1.299   8.192   4.237
  239POPC  H18T31983   1.123   8.182   4.276
  239POPC   C3331984   1.597   8.302   2.672
  239POPC   H3X31985   1.514   8.228   2.669
  239POPC   H3Y31986   1.556   8.398   2.713
  239POPC   C3431987   1.707   8.250   2.765
  239POPC   H4X31988   1.799   8.308   2.741
  239POPC   H4Y31989   1.730   8.142   2.746
  239POPC   C3531990   1.682   8.274   2.914
  239POPC   H5X31991   1.628   8.370   2.925
  239POPC   H5Y31992   1.781   8.286   2.963
  239POPC   C3631993   1.613   8.164   2.994
  239POPC   H6X31994   1.535   8.113   2.934
  239POPC   H6Y31995   1.562   8.214   3.079
  239POPC   C3731996   1.715   8.064   3.050
  239POPC   H7X31997   1.799   8.121   3.097
  239POPC   H7Y31998   1.757   8.005   2.966
  239POPC   C3831999   1.659   7.970   3.157
  239POPC   H8X32000   1.736   7.895   3.185
  239POPC   H8Y32001   1.572   7.916   3.115
  239POPC   C3932002   1.612   8.040   3.284
  239POPC   H9X32003   1.534   8.116   3.261
  239POPC   H9Y32004   1.698   8.093   3.333
  239POPC  C31032005   1.553   7.939   3.381
  239POPC  H10X32006   1.631   7.864   3.409
  239POPC  H10Y32007   1.469   7.884   3.331
  239POPC  C31132008   1.499   8.006   3.507
  239POPC  H11X32009   1.413   8.070   3.478
  239POPC  H11Y32010   1.577   8.071   3.553
  239POPC  C31232011   1.452   7.902   3.608
  239POPC  H12X32012   1.538   7.868   3.670
  239POPC  H12Y32013   1.412   7.813   3.555
  239POPC  C31332014   1.341   7.959   3.696
  239POPC  H13X32015   1.307   7.883   3.768
  239POPC  H13Y32016   1.255   7.981   3.629
  239POPC  C31432017   1.379   8.087   3.771
  239POPC  H14X32018   1.292   8.112   3.835
  239POPC  H14Y32019   1.390   8.171   3.698
  239POPC  C31532020   1.505   8.079   3.858
  239POPC  H15X32021   1.517   8.176   3.911
  239POPC  H15Y32022   1.594   8.067   3.791
  239POPC  C31632023   1.504   7.965   3.960
  239POPC  H16X32024   1.596   7.968   4.023
  239POPC  H16Y32025   1.501   7.866   3.910
  239POPC  H16Z32026   1.415   7.973   4.025
  240POPC     N32027   1.815   0.377   2.394
  240POPC   C1232028   1.886   0.510   2.374
  240POPC  H12A32029   1.968   0.517   2.444
  240POPC  H12B32030   1.820   0.591   2.398
  240POPC   C1332031   1.901   0.260   2.357
  240POPC  H13A32032   1.952   0.282   2.262
  240POPC  H13B32033   1.977   0.240   2.431
  240POPC  H13C32034   1.840   0.171   2.343
  240POPC   C1432035   1.772   0.357   2.535
  240POPC  H14A32036   1.729   0.257   2.548
  240POPC  H14B32037   1.854   0.365   2.606
  240POPC  H14C32038   1.695   0.427   2.564
  240POPC   C1532039   1.693   0.373   2.306
  240POPC  H15A32040   1.621   0.449   2.335
  240POPC  H15B32041   1.646   0.276   2.312
  240POPC  H15C32042   1.723   0.387   2.203
  240POPC   C1132043   1.951   0.533   2.237
  240POPC  H11A32044   1.978   0.641   2.228
  240POPC  H11B32045   1.876   0.516   2.156
  240POPC     P32046   2.211   0.500   2.252
  240POPC   O1332047   2.208   0.641   2.211
  240POPC   O1432048   2.305   0.413   2.176
  240POPC   O1232049   2.064   0.444   2.222
  240POPC   O1132050   2.232   0.491   2.410
  240POPC    C132051   2.169   0.397   2.496
  240POPC    HA32052   2.196   0.292   2.467
  240POPC    HB32053   2.061   0.404   2.497
  240POPC    C232054   2.208   0.415   2.646
  240POPC    HS32055   2.153   0.336   2.702
  240POPC   O2132056   2.181   0.547   2.704
  240POPC   C2132057   2.056   0.562   2.751
  240POPC   O2232058   1.968   0.479   2.737
  240POPC   C2232059   2.029   0.706   2.807
  240POPC   H2R32060   1.925   0.731   2.776
  240POPC   H2S32061   2.098   0.768   2.748
  240POPC    C332062   2.359   0.382   2.654
  240POPC    HX32063   2.413   0.444   2.579
  240POPC    HY32064   2.375   0.276   2.624
  240POPC   O3132065   2.413   0.408   2.783
  240POPC   C3132066   2.362   0.332   2.879
  240POPC   O3232067   2.284   0.240   2.865
  240POPC   C3232068   2.417   0.373   3.011
  240POPC   H2X32069   2.496   0.450   2.994
  240POPC   H2Y32070   2.460   0.284   3.062
  240POPC   C2332071   2.049   0.757   2.955
  240POPC   H3R32072   2.152   0.729   2.985
  240POPC   H3S32073   1.976   0.711   3.024
  240POPC   C2432074   2.033   0.913   2.959
  240POPC   H4R32075   1.926   0.935   2.935
  240POPC   H4S32076   2.088   0.950   2.870
  240POPC   C2532077   2.072   1.012   3.076
  240POPC   H5R32078   1.985   1.029   3.142
  240POPC   H5S32079   2.090   1.107   3.020
  240POPC   C2632080   2.200   0.992   3.162
  240POPC   H6R32081   2.270   0.950   3.090
  240POPC   H6S32082   2.172   0.918   3.236
  240POPC   C2732083   2.265   1.106   3.248
  240POPC   H7R32084   2.176   1.157   3.292
  240POPC   H7S32085   2.318   1.176   3.181
  240POPC   C2832086   2.364   1.084   3.373
  240POPC   H8R32087   2.305   1.057   3.460
  240POPC   H8S32088   2.399   1.186   3.398
  240POPC   C2932089   2.490   0.998   3.378
  240POPC   H9132090   2.557   1.017   3.294
  240POPC  C21032091   2.533   0.912   3.475
  240POPC  H10132092   2.621   0.852   3.449
  240POPC  C21132093   2.468   0.874   3.607
  240POPC  H11R32094   2.366   0.912   3.603
  240POPC  H11S32095   2.518   0.928   3.691
  240POPC  C21232096   2.465   0.721   3.642
  240POPC  H12R32097   2.571   0.695   3.649
  240POPC  H12S32098   2.429   0.659   3.559
  240POPC  C21332099   2.398   0.666   3.773
  240POPC  H13R32100   2.288   0.674   3.769
  240POPC  H13S32101   2.434   0.724   3.861
  240POPC  C21432102   2.435   0.516   3.791
  240POPC  H14R32103   2.545   0.506   3.803
  240POPC  H14S32104   2.408   0.464   3.695
  240POPC  C21532105   2.373   0.433   3.905
  240POPC  H15R32106   2.406   0.327   3.889
  240POPC  H15S32107   2.262   0.432   3.899
  240POPC  C21632108   2.417   0.469   4.048
  240POPC  H16R32109   2.367   0.563   4.079
  240POPC  H16S32110   2.527   0.487   4.049
  240POPC  C21732111   2.388   0.357   4.148
  240POPC  H17R32112   2.450   0.268   4.120
  240POPC  H17S32113   2.281   0.327   4.139
  240POPC  C21832114   2.417   0.392   4.294
  240POPC  H18R32115   2.513   0.447   4.303
  240POPC  H18S32116   2.424   0.300   4.356
  240POPC  H18T32117   2.336   0.454   4.337
  240POPC   C3332118   2.310   0.433   3.101
  240POPC   H3X32119   2.261   0.521   3.053
  240POPC   H3Y32120   2.375   0.464   3.185
  240POPC   C3432121   2.207   0.340   3.165
  240POPC   H4X32122   2.265   0.266   3.225
  240POPC   H4Y32123   2.149   0.285   3.088
  240POPC   C3532124   2.107   0.413   3.259
  240POPC   H5X32125   2.053   0.492   3.203
  240POPC   H5Y32126   2.162   0.462   3.342
  240POPC   C3632127   2.005   0.318   3.323
  240POPC   H6X32128   1.939   0.277   3.244
  240POPC   H6Y32129   1.941   0.375   3.393
  240POPC   C3732130   2.072   0.201   3.397
  240POPC   H7X32131   2.129   0.139   3.324
  240POPC   H7Y32132   1.994   0.134   3.438
  240POPC   C3832133   2.168   0.244   3.510
  240POPC   H8X32134   2.254   0.301   3.468
  240POPC   H8Y32135   2.208   0.153   3.560
  240POPC   C3932136   2.100   0.333   3.616
  240POPC   H9X32137   2.083   0.433   3.572
  240POPC   H9Y32138   2.170   0.347   3.702
  240POPC  C31032139   1.968   0.273   3.667
  240POPC  H10X32140   1.990   0.171   3.705
  240POPC  H10Y32141   1.895   0.263   3.583
  240POPC  C31132142   1.901   0.354   3.777
  240POPC  H11X32143   1.973   0.359   3.863
  240POPC  H11Y32144   1.811   0.301   3.813
  240POPC  C31232145   1.862   0.498   3.738
  240POPC  H12X32146   1.754   0.500   3.708
  240POPC  H12Y32147   1.920   0.532   3.650
  240POPC  C31332148   1.887   0.596   3.852
  240POPC  H13X32149   1.862   0.699   3.820
  240POPC  H13Y32150   1.995   0.594   3.878
  240POPC  C31432151   1.804   0.560   3.976
  240POPC  H14X32152   1.818   0.453   4.003
  240POPC  H14Y32153   1.697   0.574   3.952
  240POPC  C31532154   1.841   0.643   4.098
  240POPC  H15X32155   1.850   0.751   4.070
  240POPC  H15Y32156   1.941   0.610   4.136
  240POPC  C31632157   1.736   0.625   4.206
  240POPC  H16X32158   1.638   0.665   4.174
  240POPC  H16Y32159   1.767   0.677   4.299
  240POPC  H16Z32160   1.722   0.517   4.227
  241POPC     N32161   6.952   0.344   2.248
  241POPC   C1232162   6.959   0.315   2.398
  241POPC  H12A32163   6.934   0.403   2.455
  241POPC  H12B32164   7.062   0.287   2.421
  241POPC   C1332165   7.026   0.235   2.175
  241POPC  H13A32166   7.133   0.239   2.189
  241POPC  H13B32167   6.993   0.138   2.215
  241POPC  H13C32168   7.005   0.236   2.069
  241POPC   C1432169   6.811   0.340   2.197
  241POPC  H14A32170   6.770   0.239   2.208
  241POPC  H14B32171   6.746   0.408   2.251
  241POPC  H14C32172   6.807   0.364   2.091
  241POPC   C1532173   7.015   0.475   2.216
  241POPC  H15A32174   7.017   0.489   2.108
  241POPC  H15B32175   7.117   0.481   2.252
  241POPC  H15C32176   6.962   0.558   2.260
  241POPC   C1132177   6.875   0.198   2.452
  241POPC  H11A32178   6.767   0.222   2.445
  241POPC  H11B32179   6.900   0.181   2.560
  241POPC     P32180   6.841  -0.054   2.397
  241POPC   O1332181   6.847  -0.125   2.267
  241POPC   O1432182   6.706  -0.032   2.454
  241POPC   O1232183   6.909   0.084   2.375
  241POPC   O1132184   6.939  -0.122   2.500
  241POPC    C132185   6.889  -0.216   2.595
  241POPC    HA32186   6.949  -0.309   2.586
  241POPC    HB32187   6.782  -0.244   2.579
  241POPC    C232188   6.906  -0.164   2.739
  241POPC    HS32189   6.880  -0.249   2.807
  241POPC   O2132190   6.826  -0.045   2.763
  241POPC   C2132191   6.737  -0.056   2.860
  241POPC   O2232192   6.709  -0.156   2.923
  241POPC   C2232193   6.677   0.083   2.887
  241POPC   H2R32194   6.582   0.069   2.943
  241POPC   H2S32195   6.653   0.129   2.790
  241POPC    C332196   7.053  -0.127   2.765
  241POPC    HX32197   7.077  -0.037   2.702
  241POPC    HY32198   7.120  -0.210   2.734
  241POPC   O3132199   7.066  -0.103   2.905
  241POPC   C3132200   7.145  -0.006   2.943
  241POPC   O3232201   7.223   0.058   2.875
  241POPC   C3232202   7.114   0.019   3.090
  241POPC   H2X32203   7.192  -0.032   3.149
  241POPC   H2Y32204   7.015  -0.027   3.114
  241POPC   C2332205   6.775   0.172   2.967
  241POPC   H3R32206   6.874   0.166   2.915
  241POPC   H3S32207   6.790   0.133   3.070
  241POPC   C2432208   6.737   0.321   2.971
  241POPC   H4R32209   6.696   0.349   2.872
  241POPC   H4S32210   6.830   0.381   2.986
  241POPC   C2532211   6.636   0.359   3.080
  241POPC   H5R32212   6.555   0.282   3.083
  241POPC   H5S32213   6.588   0.456   3.053
  241POPC   C2632214   6.695   0.376   3.221
  241POPC   H6R32215   6.743   0.282   3.256
  241POPC   H6S32216   6.610   0.397   3.290
  241POPC   C2732217   6.795   0.493   3.233
  241POPC   H7R32218   6.760   0.576   3.167
  241POPC   H7S32219   6.895   0.462   3.196
  241POPC   C2832220   6.806   0.550   3.376
  241POPC   H8R32221   6.705   0.583   3.409
  241POPC   H8S32222   6.869   0.642   3.373
  241POPC   C2932223   6.867   0.450   3.470
  241POPC   H9132224   6.975   0.434   3.456
  241POPC  C21032225   6.804   0.378   3.564
  241POPC  H10132226   6.864   0.308   3.623
  241POPC  C21132227   6.657   0.377   3.598
  241POPC  H11R32228   6.603   0.459   3.547
  241POPC  H11S32229   6.645   0.395   3.707
  241POPC  C21232230   6.586   0.245   3.561
  241POPC  H12R32231   6.596   0.226   3.452
  241POPC  H12S32232   6.478   0.261   3.583
  241POPC  C21332233   6.629   0.119   3.637
  241POPC  H13R32234   6.725   0.083   3.597
  241POPC  H13S32235   6.556   0.038   3.616
  241POPC  C21432236   6.637   0.139   3.789
  241POPC  H14R32237   6.548   0.198   3.822
  241POPC  H14S32238   6.727   0.199   3.814
  241POPC  C21532239   6.640   0.008   3.869
  241POPC  H15R32240   6.730  -0.050   3.841
  241POPC  H15S32241   6.551  -0.054   3.845
  241POPC  C21632242   6.645   0.036   4.020
  241POPC  H16R32243   6.550   0.081   4.056
  241POPC  H16S32244   6.722   0.114   4.032
  241POPC  C21732245   6.681  -0.087   4.105
  241POPC  H17R32246   6.735  -0.052   4.195
  241POPC  H17S32247   6.751  -0.152   4.048
  241POPC  C21832248   6.565  -0.167   4.161
  241POPC  H18R32249   6.594  -0.273   4.177
  241POPC  H18S32250   6.478  -0.164   4.094
  241POPC  H18T32251   6.533  -0.125   4.259
  241POPC   C3332252   7.102   0.168   3.127
  241POPC   H3X32253   7.029   0.219   3.060
  241POPC   H3Y32254   7.200   0.220   3.116
  241POPC   C3432255   7.052   0.179   3.270
  241POPC   H4X32256   6.967   0.108   3.284
  241POPC   H4Y32257   7.013   0.281   3.291
  241POPC   C3532258   7.165   0.147   3.368
  241POPC   H5X32259   7.248   0.218   3.349
  241POPC   H5Y32260   7.203   0.043   3.350
  241POPC   C3632261   7.125   0.159   3.514
  241POPC   H6X32262   7.108   0.266   3.539
  241POPC   H6Y32263   7.213   0.123   3.573
  241POPC   C3732264   7.000   0.079   3.549
  241POPC   H7X32265   7.012  -0.027   3.515
  241POPC   H7Y32266   6.911   0.120   3.495
  241POPC   C3832267   6.973   0.080   3.699
  241POPC   H8X32268   6.883   0.017   3.719
  241POPC   H8Y32269   6.954   0.182   3.739
  241POPC   C3932270   7.089   0.021   3.775
  241POPC   H9X32271   7.177   0.089   3.775
  241POPC   H9Y32272   7.118  -0.070   3.719
  241POPC  C31032273   7.051  -0.015   3.919
  241POPC  H10X32274   7.091  -0.117   3.932
  241POPC  H10Y32275   6.941  -0.022   3.933
  241POPC  C31132276   7.116   0.073   4.026
  241POPC  H11X32277   7.065   0.171   4.034
  241POPC  H11Y32278   7.221   0.094   3.993
  241POPC  C31232279   7.126   0.000   4.161
  241POPC  H12X32280   7.201   0.050   4.224
  241POPC  H12Y32281   7.164  -0.103   4.146
  241POPC  C31332282   6.995  -0.018   4.239
  241POPC  H13X32283   7.014  -0.067   4.336
  241POPC  H13Y32284   6.935  -0.091   4.181
  241POPC  C31432285   6.910   0.108   4.257
  241POPC  H14X32286   6.825   0.084   4.325
  241POPC  H14Y32287   6.869   0.133   4.157
  241POPC  C31532288   6.973   0.238   4.306
  241POPC  H15X32289   7.051   0.272   4.234
  241POPC  H15Y32290   7.020   0.224   4.405
  241POPC  C31632291   6.862   0.344   4.315
  241POPC  H16X32292   6.780   0.307   4.380
  241POPC  H16Y32293   6.819   0.362   4.214
  241POPC  H16Z32294   6.901   0.440   4.355
  242POPC     N32295   8.276   1.034   2.137
  242POPC   C1232296   8.307   1.115   2.262
  242POPC  H12A32297   8.222   1.184   2.275
  242POPC  H12B32298   8.396   1.173   2.249
  242POPC   C1332299   8.127   1.032   2.122
  242POPC  H13A32300   8.085   1.001   2.218
  242POPC  H13B32301   8.086   1.130   2.102
  242POPC  H13C32302   8.099   0.960   2.047
  242POPC   C1432303   8.340   1.085   2.013
  242POPC  H14A32304   8.323   1.190   1.997
  242POPC  H14B32305   8.448   1.069   2.017
  242POPC  H14C32306   8.306   1.031   1.925
  242POPC   C1532307   8.319   0.891   2.157
  242POPC  H15A32308   8.289   0.860   2.257
  242POPC  H15B32309   8.424   0.875   2.142
  242POPC  H15C32310   8.267   0.827   2.086
  242POPC   C1132311   8.313   1.039   2.398
  242POPC  H11A32312   8.332   1.115   2.478
  242POPC  H11B32313   8.400   0.970   2.398
  242POPC     P32314   8.069   1.051   2.477
  242POPC   O1332315   7.951   0.962   2.483
  242POPC   O1432316   8.063   1.173   2.393
  242POPC   O1232317   8.193   0.964   2.423
  242POPC   O1132318   8.120   1.089   2.622
  242POPC    C132319   8.108   0.999   2.733
  242POPC    HA32320   8.192   0.926   2.731
  242POPC    HB32321   8.012   0.941   2.729
  242POPC    C232322   8.112   1.074   2.870
  242POPC    HS32323   8.013   1.122   2.884
  242POPC   O2132324   8.220   1.169   2.869
  242POPC   C2132325   8.185   1.289   2.825
  242POPC   O2232326   8.072   1.330   2.805
  242POPC   C2232327   8.311   1.375   2.814
  242POPC   H2R32328   8.284   1.472   2.767
  242POPC   H2S32329   8.381   1.325   2.745
  242POPC    C332330   8.133   0.975   2.989
  242POPC    HX32331   8.228   0.920   2.969
  242POPC    HY32332   8.050   0.901   2.984
  242POPC   O3132333   8.129   1.040   3.118
  242POPC   C3132334   8.234   1.024   3.198
  242POPC   O3232335   8.338   0.969   3.168
  242POPC   C3232336   8.200   1.077   3.338
  242POPC   H2X32337   8.096   1.049   3.364
  242POPC   H2Y32338   8.206   1.187   3.332
  242POPC   C2332339   8.378   1.400   2.951
  242POPC   H3R32340   8.479   1.444   2.936
  242POPC   H3S32341   8.393   1.302   3.003
  242POPC   C2432342   8.297   1.495   3.042
  242POPC   H4R32343   8.188   1.476   3.027
  242POPC   H4S32344   8.316   1.600   3.012
  242POPC   C2532345   8.327   1.476   3.192
  242POPC   H5R32346   8.291   1.374   3.220
  242POPC   H5S32347   8.268   1.550   3.250
  242POPC   C2632348   8.475   1.487   3.229
  242POPC   H6R32349   8.511   1.589   3.200
  242POPC   H6S32350   8.534   1.413   3.170
  242POPC   C2732351   8.508   1.466   3.379
  242POPC   H7R32352   8.535   1.565   3.421
  242POPC   H7S32353   8.600   1.404   3.383
  242POPC   C2832354   8.400   1.400   3.467
  242POPC   H8R32355   8.376   1.302   3.421
  242POPC   H8S32356   8.308   1.462   3.465
  242POPC   C2932357   8.448   1.380   3.610
  242POPC   H9132358   8.551   1.412   3.629
  242POPC  C21032359   8.376   1.329   3.712
  242POPC  H10132360   8.425   1.320   3.811
  242POPC  C21132361   8.232   1.281   3.710
  242POPC  H11R32362   8.227   1.172   3.730
  242POPC  H11S32363   8.186   1.298   3.610
  242POPC  C21232364   8.147   1.350   3.818
  242POPC  H12R32365   8.162   1.459   3.801
  242POPC  H12S32366   8.185   1.327   3.920
  242POPC  C21332367   7.995   1.324   3.810
  242POPC  H13R32368   7.964   1.283   3.712
  242POPC  H13S32369   7.955   1.426   3.822
  242POPC  C21432370   7.924   1.255   3.927
  242POPC  H14R32371   7.980   1.287   4.018
  242POPC  H14S32372   7.932   1.145   3.918
  242POPC  C21532373   7.777   1.301   3.950
  242POPC  H15R32374   7.751   1.385   3.883
  242POPC  H15S32375   7.774   1.341   4.053
  242POPC  C21632376   7.669   1.191   3.942
  242POPC  H16R32377   7.714   1.094   3.971
  242POPC  H16S32378   7.634   1.177   3.837
  242POPC  C21732379   7.545   1.215   4.032
  242POPC  H17R32380   7.470   1.136   4.007
  242POPC  H17S32381   7.498   1.313   4.006
  242POPC  C21832382   7.566   1.211   4.185
  242POPC  H18R32383   7.613   1.304   4.223
  242POPC  H18S32384   7.630   1.126   4.215
  242POPC  H18T32385   7.468   1.198   4.236
  242POPC   C3332386   8.298   1.027   3.449
  242POPC   H3X32387   8.306   1.108   3.524
  242POPC   H3Y32388   8.400   1.012   3.408
  242POPC   C3432389   8.252   0.900   3.525
  242POPC   H4X32390   8.236   0.818   3.452
  242POPC   H4Y32391   8.155   0.921   3.574
  242POPC   C3532392   8.353   0.851   3.633
  242POPC   H5X32393   8.451   0.832   3.585
  242POPC   H5Y32394   8.316   0.755   3.676
  242POPC   C3632395   8.370   0.953   3.748
  242POPC   H6X32396   8.269   0.976   3.788
  242POPC   H6Y32397   8.414   1.046   3.705
  242POPC   C3732398   8.458   0.913   3.868
  242POPC   H7X32399   8.560   0.885   3.833
  242POPC   H7Y32400   8.414   0.825   3.919
  242POPC   C3832401   8.467   1.032   3.967
  242POPC   H8X32402   8.364   1.064   3.993
  242POPC   H8Y32403   8.516   1.116   3.912
  242POPC   C3932404   8.545   1.006   4.097
  242POPC   H9X32405   8.638   0.952   4.069
  242POPC   H9Y32406   8.488   0.940   4.166
  242POPC  C31032407   8.588   1.136   4.169
  242POPC  H10X32408   8.625   1.206   4.091
  242POPC  H10Y32409   8.676   1.113   4.234
  242POPC  C31132410   8.483   1.212   4.253
  242POPC  H11X32411   8.402   1.248   4.186
  242POPC  H11Y32412   8.535   1.302   4.295
  242POPC  C31232413   8.417   1.140   4.373
  242POPC  H12X32414   8.339   1.072   4.334
  242POPC  H12Y32415   8.367   1.215   4.437
  242POPC  C31332416   8.513   1.058   4.461
  242POPC  H13X32417   8.612   1.108   4.461
  242POPC  H13Y32418   8.523   0.961   4.409
  242POPC  C31432419   8.472   1.040   4.608
  242POPC  H14X32420   8.444   1.140   4.648
  242POPC  H14Y32421   8.561   1.005   4.665
  242POPC  C31532422   8.361   0.940   4.645
  242POPC  H15X32423   8.277   0.950   4.573
  242POPC  H15Y32424   8.322   0.973   4.745
  242POPC  C31632425   8.404   0.794   4.660
  242POPC  H16X32426   8.332   0.737   4.722
  242POPC  H16Y32427   8.415   0.744   4.561
  242POPC  H16Z32428   8.501   0.790   4.713
  243POPC     N32429   1.593   8.950   2.108
  243POPC   C1232430   1.609   9.075   2.194
  243POPC  H12A32431   1.567   9.160   2.142
  243POPC  H12B32432   1.715   9.096   2.211
  243POPC   C1332433   1.680   8.842   2.164
  243POPC  H13A32434   1.658   8.745   2.122
  243POPC  H13B32435   1.784   8.865   2.147
  243POPC  H13C32436   1.667   8.839   2.273
  243POPC   C1432437   1.450   8.907   2.110
  243POPC  H14A32438   1.387   8.991   2.083
  243POPC  H14B32439   1.430   8.824   2.042
  243POPC  H14C32440   1.426   8.876   2.211
  243POPC   C1532441   1.637   8.974   1.967
  243POPC  H15A32442   1.617   8.886   1.907
  243POPC  H15B32443   1.744   8.997   1.963
  243POPC  H15C32444   1.585   9.058   1.924
  243POPC   C1132445   1.544   9.072   2.335
  243POPC  H11A32446   1.436   9.049   2.329
  243POPC  H11B32447   1.551   9.175   2.378
  243POPC     P32448   1.704   9.021   2.533
  243POPC   O1332449   1.788   9.135   2.486
  243POPC   O1432450   1.773   8.902   2.586
  243POPC   O1232451   1.609   8.973   2.415
  243POPC   O1132452   1.595   9.073   2.639
  243POPC    C132453   1.501   8.979   2.694
  243POPC    HA32454   1.543   8.929   2.784
  243POPC    HB32455   1.477   8.899   2.620
  243POPC    C232456   1.366   9.047   2.731
  243POPC    HS32457   1.344   9.121   2.651
  243POPC   O2132458   1.383   9.114   2.858
  243POPC   C2132459   1.279   9.154   2.928
  243POPC   O2232460   1.163   9.159   2.893
  243POPC   C2232461   1.324   9.179   3.071
  243POPC   H2R32462   1.271   9.269   3.108
  243POPC   H2S32463   1.434   9.195   3.075
  243POPC    C332464   1.252   8.941   2.735
  243POPC    HX32465   1.257   8.883   2.641
  243POPC    HY32466   1.151   8.989   2.737
  243POPC   O3132467   1.270   8.855   2.849
  243POPC   C3132468   1.194   8.748   2.853
  243POPC   O3232469   1.104   8.722   2.776
  243POPC   C3232470   1.254   8.654   2.957
  243POPC   H2X32471   1.209   8.554   2.943
  243POPC   H2Y32472   1.228   8.692   3.058
  243POPC   C2332473   1.282   9.056   3.150
  243POPC   H3R32474   1.352   8.973   3.127
  243POPC   H3S32475   1.181   9.023   3.118
  243POPC   C2432476   1.274   9.078   3.301
  243POPC   H4R32477   1.215   9.170   3.322
  243POPC   H4S32478   1.375   9.089   3.344
  243POPC   C2532479   1.203   8.956   3.359
  243POPC   H5R32480   1.261   8.866   3.330
  243POPC   H5S32481   1.104   8.945   3.311
  243POPC   C2632482   1.185   8.956   3.511
  243POPC   H6R32483   1.114   9.036   3.543
  243POPC   H6S32484   1.284   8.977   3.557
  243POPC   C2732485   1.133   8.818   3.554
  243POPC   H7R32486   1.180   8.741   3.489
  243POPC   H7S32487   1.024   8.815   3.532
  243POPC   C2832488   1.159   8.780   3.700
  243POPC   H8R32489   1.120   8.676   3.714
  243POPC   H8S32490   1.102   8.847   3.768
  243POPC   C2932491   1.305   8.776   3.730
  243POPC   H9132492   1.360   8.707   3.666
  243POPC  C21032493   1.370   8.848   3.823
  243POPC  H10132494   1.479   8.837   3.832
  243POPC  C21132495   1.307   8.946   3.917
  243POPC  H11R32496   1.367   8.955   4.011
  243POPC  H11S32497   1.205   8.913   3.948
  243POPC  C21232498   1.299   9.085   3.853
  243POPC  H12R32499   1.245   9.082   3.756
  243POPC  H12S32500   1.401   9.124   3.835
  243POPC  C21332501   1.228   9.183   3.944
  243POPC  H13R32502   1.251   9.286   3.908
  243POPC  H13S32503   1.265   9.174   4.049
  243POPC  C21432504   1.076   9.169   3.945
  243POPC  H14R32505   1.044   9.072   3.987
  243POPC  H14S32506   1.036   9.178   3.842
  243POPC  C21532507   1.023   9.283   4.032
  243POPC  H15R32508   0.930   9.325   3.989
  243POPC  H15S32509   1.101   9.361   4.029
  243POPC  C21632510   1.002   9.242   4.177
  243POPC  H16R32511   1.098   9.221   4.229
  243POPC  H16S32512   0.943   9.147   4.181
  243POPC  C21732513   0.920   9.346   4.252
  243POPC  H17R32514   0.821   9.357   4.200
  243POPC  H17S32515   0.970   9.445   4.251
  243POPC  C21832516   0.898   9.298   4.394
  243POPC  H18R32517   0.999   9.280   4.438
  243POPC  H18S32518   0.844   9.201   4.393
  243POPC  H18T32519   0.844   9.372   4.456
  243POPC   C3332520   1.407   8.649   2.936
  243POPC   H3X32521   1.451   8.750   2.947
  243POPC   H3Y32522   1.428   8.617   2.831
  243POPC   C3432523   1.482   8.555   3.029
  243POPC   H4X32524   1.589   8.562   2.997
  243POPC   H4Y32525   1.448   8.450   3.014
  243POPC   C3532526   1.478   8.590   3.178
  243POPC   H5X32527   1.547   8.520   3.232
  243POPC   H5Y32528   1.375   8.573   3.217
  243POPC   C3632529   1.519   8.734   3.209
  243POPC   H6X32530   1.453   8.803   3.153
  243POPC   H6Y32531   1.623   8.753   3.175
  243POPC   C3732532   1.507   8.766   3.358
  243POPC   H7X32533   1.411   8.728   3.398
  243POPC   H7Y32534   1.507   8.877   3.371
  243POPC   C3832535   1.624   8.708   3.436
  243POPC   H8X32536   1.715   8.754   3.392
  243POPC   H8Y32537   1.629   8.598   3.426
  243POPC   C3932538   1.624   8.746   3.583
  243POPC   H9X32539   1.547   8.687   3.637
  243POPC   H9Y32540   1.597   8.853   3.588
  243POPC  C31032541   1.759   8.719   3.650
  243POPC  H10X32542   1.840   8.760   3.587
  243POPC  H10Y32543   1.774   8.609   3.657
  243POPC  C31132544   1.766   8.781   3.789
  243POPC  H11X32545   1.867   8.761   3.832
  243POPC  H11Y32546   1.690   8.733   3.854
  243POPC  C31232547   1.743   8.933   3.786
  243POPC  H12X32548   1.637   8.955   3.759
  243POPC  H12Y32549   1.807   8.979   3.707
  243POPC  C31332550   1.769   9.003   3.919
  243POPC  H13X32551   1.736   9.109   3.911
  243POPC  H13Y32552   1.879   9.003   3.937
  243POPC  C31432553   1.696   8.936   4.036
  243POPC  H14X32554   1.737   8.834   4.051
  243POPC  H14Y32555   1.588   8.926   4.011
  243POPC  C31532556   1.710   9.012   4.168
  243POPC  H15X32557   1.674   8.945   4.250
  243POPC  H15Y32558   1.643   9.101   4.166
  243POPC  C31632559   1.854   9.057   4.198
  243POPC  H16X32560   1.926   8.982   4.160
  243POPC  H16Y32561   1.871   9.068   4.307
  243POPC  H16Z32562   1.875   9.154   4.149
  244POPC     N32563   0.268   7.229   2.357
  244POPC   C1232564   0.141   7.146   2.339
  244POPC  H12A32565   0.114   7.099   2.433
  244POPC  H12B32566   0.159   7.064   2.270
  244POPC   C1332567   0.248   7.310   2.481
  244POPC  H13A32568   0.252   7.249   2.570
  244POPC  H13B32569   0.316   7.392   2.488
  244POPC  H13C32570   0.147   7.352   2.477
  244POPC   C1432571   0.389   7.146   2.371
  244POPC  H14A32572   0.381   7.075   2.454
  244POPC  H14B32573   0.406   7.085   2.282
  244POPC  H14C32574   0.477   7.206   2.388
  244POPC   C1532575   0.287   7.321   2.241
  244POPC  H15A32576   0.292   7.266   2.147
  244POPC  H15B32577   0.377   7.380   2.250
  244POPC  H15C32578   0.203   7.391   2.235
  244POPC   C1132579   0.015   7.225   2.292
  244POPC  H11A32580  -0.071   7.154   2.292
  244POPC  H11B32581   0.030   7.254   2.186
  244POPC     P32582  -0.057   7.474   2.311
  244POPC   O1332583  -0.173   7.454   2.221
  244POPC   O1432584   0.065   7.531   2.250
  244POPC   O1232585  -0.017   7.336   2.378
  244POPC   O1132586  -0.106   7.564   2.429
  244POPC    C132587  -0.217   7.532   2.514
  244POPC    HA32588  -0.210   7.427   2.551
  244POPC    HB32589  -0.314   7.547   2.461
  244POPC    C232590  -0.211   7.626   2.637
  244POPC    HS32591  -0.230   7.730   2.601
  244POPC   O2132592  -0.081   7.606   2.691
  244POPC   C2132593  -0.003   7.710   2.699
  244POPC   O2232594  -0.028   7.825   2.667
  244POPC   C2232595   0.129   7.659   2.759
  244POPC   H2R32596   0.206   7.662   2.680
  244POPC   H2S32597   0.114   7.552   2.789
  244POPC    C332598  -0.315   7.596   2.750
  244POPC    HX32599  -0.312   7.487   2.775
  244POPC    HY32600  -0.416   7.620   2.709
  244POPC   O3132601  -0.294   7.678   2.867
  244POPC   C3132602  -0.206   7.637   2.957
  244POPC   O3232603  -0.149   7.529   2.958
  244POPC   C3232604  -0.177   7.748   3.061
  244POPC   H2X32605  -0.259   7.820   3.061
  244POPC   H2Y32606  -0.088   7.803   3.026
  244POPC   C2332607   0.171   7.739   2.884
  244POPC   H3R32608   0.089   7.736   2.958
  244POPC   H3S32609   0.185   7.845   2.853
  244POPC   C2432610   0.298   7.688   2.952
  244POPC   H4R32611   0.325   7.756   3.036
  244POPC   H4S32612   0.381   7.692   2.878
  244POPC   C2532613   0.289   7.546   3.010
  244POPC   H5R32614   0.388   7.518   3.051
  244POPC   H5S32615   0.266   7.474   2.929
  244POPC   C2632616   0.190   7.527   3.126
  244POPC   H6R32617   0.088   7.552   3.091
  244POPC   H6S32618   0.217   7.593   3.212
  244POPC   C2732619   0.194   7.380   3.170
  244POPC   H7R32620   0.294   7.357   3.213
  244POPC   H7S32621   0.184   7.322   3.076
  244POPC   C2832622   0.084   7.338   3.268
  244POPC   H8R32623  -0.012   7.383   3.237
  244POPC   H8S32624   0.108   7.376   3.370
  244POPC   C2932625   0.077   7.187   3.260
  244POPC   H9132626   0.050   7.149   3.160
  244POPC  C21032627   0.093   7.098   3.359
  244POPC  H10132628   0.081   6.992   3.336
  244POPC  C21132629   0.123   7.128   3.504
  244POPC  H11R32630   0.177   7.224   3.519
  244POPC  H11S32631   0.186   7.047   3.548
  244POPC  C21232632  -0.012   7.134   3.575
  244POPC  H12R32633  -0.078   7.052   3.536
  244POPC  H12S32634  -0.063   7.230   3.551
  244POPC  C21332635  -0.007   7.115   3.727
  244POPC  H13R32636   0.024   7.210   3.776
  244POPC  H13S32637   0.067   7.036   3.752
  244POPC  C21432638  -0.146   7.071   3.775
  244POPC  H14R32639  -0.180   6.988   3.710
  244POPC  H14S32640  -0.215   7.156   3.762
  244POPC  C21532641  -0.154   7.023   3.920
  244POPC  H15R32642  -0.100   6.927   3.933
  244POPC  H15S32643  -0.261   7.004   3.943
  244POPC  C21632644  -0.103   7.126   4.020
  244POPC  H16R32645  -0.120   7.228   3.979
  244POPC  H16S32646   0.006   7.112   4.032
  244POPC  C21732647  -0.174   7.114   4.155
  244POPC  H17R32648  -0.283   7.112   4.134
  244POPC  H17S32649  -0.158   7.207   4.213
  244POPC  C21832650  -0.131   6.992   4.237
  244POPC  H18R32651  -0.162   6.899   4.186
  244POPC  H18S32652  -0.179   6.995   4.338
  244POPC  H18T32653  -0.022   6.988   4.251
  244POPC   C3332654  -0.158   7.702   3.207
  244POPC   H3X32655  -0.078   7.625   3.212
  244POPC   H3Y32656  -0.251   7.656   3.246
  244POPC   C3432657  -0.119   7.823   3.296
  244POPC   H4X32658  -0.197   7.902   3.286
  244POPC   H4Y32659  -0.024   7.865   3.255
  244POPC   C3532660  -0.097   7.791   3.444
  244POPC   H5X32661  -0.193   7.771   3.496
  244POPC   H5Y32662  -0.052   7.881   3.492
  244POPC   C3632663  -0.003   7.671   3.466
  244POPC   H6X32664   0.073   7.670   3.384
  244POPC   H6Y32665  -0.061   7.576   3.458
  244POPC   C3732666   0.073   7.673   3.600
  244POPC   H7X32667   0.121   7.773   3.613
  244POPC   H7Y32668   0.153   7.597   3.596
  244POPC   C3832669  -0.020   7.643   3.718
  244POPC   H8X32670  -0.080   7.552   3.694
  244POPC   H8Y32671  -0.091   7.728   3.729
  244POPC   C3932672   0.050   7.617   3.853
  244POPC   H9X32673   0.095   7.516   3.851
  244POPC   H9Y32674  -0.029   7.619   3.931
  244POPC  C31032675   0.158   7.720   3.892
  244POPC  H10X32676   0.112   7.821   3.898
  244POPC  H10Y32677   0.236   7.722   3.813
  244POPC  C31132678   0.229   7.687   4.025
  244POPC  H11X32679   0.156   7.675   4.107
  244POPC  H11Y32680   0.294   7.774   4.051
  244POPC  C31232681   0.320   7.563   4.013
  244POPC  H12X32682   0.370   7.573   3.913
  244POPC  H12Y32683   0.261   7.470   4.007
  244POPC  C31332684   0.435   7.556   4.114
  244POPC  H13X32685   0.482   7.656   4.115
  244POPC  H13Y32686   0.511   7.486   4.072
  244POPC  C31432687   0.412   7.503   4.257
  244POPC  H14X32688   0.513   7.502   4.304
  244POPC  H14Y32689   0.379   7.397   4.252
  244POPC  C31532690   0.322   7.582   4.353
  244POPC  H15X32691   0.216   7.576   4.321
  244POPC  H15Y32692   0.348   7.689   4.349
  244POPC  C31632693   0.336   7.531   4.498
  244POPC  H16X32694   0.441   7.500   4.516
  244POPC  H16Y32695   0.274   7.442   4.520
  244POPC  H16Z32696   0.307   7.610   4.571
  245POPC     N32697   9.009   8.251   2.213
  245POPC   C1232698   9.092   8.124   2.235
  245POPC  H12A32699   9.167   8.144   2.310
  245POPC  H12B32700   9.143   8.099   2.143
  245POPC   C1332701   8.883   8.216   2.140
  245POPC  H13A32702   8.827   8.141   2.194
  245POPC  H13B32703   8.822   8.304   2.126
  245POPC  H13C32704   8.904   8.178   2.041
  245POPC   C1432705   8.969   8.312   2.343
  245POPC  H14A32706   8.908   8.239   2.397
  245POPC  H14B32707   9.055   8.333   2.405
  245POPC  H14C32708   8.914   8.403   2.327
  245POPC   C1532709   9.085   8.349   2.130
  245POPC  H15A32710   9.027   8.438   2.109
  245POPC  H15B32711   9.116   8.306   2.035
  245POPC  H15C32712   9.178   8.379   2.175
  245POPC   C1132713   9.018   7.996   2.283
  245POPC  H11A32714   9.091   7.912   2.290
  245POPC  H11B32715   8.943   7.966   2.206
  245POPC     P32716   8.843   7.925   2.460
  245POPC   O1332717   8.897   7.809   2.536
  245POPC   O1432718   8.755   7.891   2.346
  245POPC   O1232719   8.959   8.021   2.410
  245POPC   O1132720   8.755   8.020   2.549
  245POPC    C132721   8.808   8.123   2.630
  245POPC    HA32722   8.725   8.193   2.658
  245POPC    HB32723   8.886   8.182   2.578
  245POPC    C232724   8.866   8.064   2.759
  245POPC    HS32725   8.946   7.992   2.727
  245POPC   O2132726   8.759   7.996   2.830
  245POPC   C2132727   8.809   7.922   2.925
  245POPC   O2232728   8.927   7.900   2.942
  245POPC   C2232729   8.699   7.868   3.016
  245POPC   H2R32730   8.700   7.757   3.009
  245POPC   H2S32731   8.601   7.905   2.981
  245POPC    C332732   8.932   8.174   2.846
  245POPC    HX32733   8.994   8.235   2.777
  245POPC    HY32734   9.000   8.127   2.920
  245POPC   O3132735   8.832   8.252   2.915
  245POPC   C3132736   8.885   8.360   2.972
  245POPC   O3232737   9.000   8.397   2.957
  245POPC   C3232738   8.780   8.431   3.056
  245POPC   H2X32739   8.693   8.453   2.990
  245POPC   H2Y32740   8.825   8.527   3.090
  245POPC   C2332741   8.720   7.910   3.164
  245POPC   H3R32742   8.630   7.874   3.219
  245POPC   H3S32743   8.722   8.021   3.173
  245POPC   C2432744   8.847   7.852   3.229
  245POPC   H4R32745   8.935   7.906   3.189
  245POPC   H4S32746   8.857   7.745   3.199
  245POPC   C2532747   8.850   7.860   3.382
  245POPC   H5R32748   8.831   7.964   3.414
  245POPC   H5S32749   8.951   7.832   3.419
  245POPC   C2632750   8.748   7.765   3.445
  245POPC   H6R32751   8.767   7.660   3.413
  245POPC   H6S32752   8.647   7.793   3.405
  245POPC   C2732753   8.740   7.771   3.597
  245POPC   H7R32754   8.788   7.863   3.636
  245POPC   H7S32755   8.795   7.684   3.640
  245POPC   C2832756   8.592   7.771   3.638
  245POPC   H8R32757   8.536   7.703   3.571
  245POPC   H8S32758   8.552   7.873   3.619
  245POPC   C2932759   8.567   7.728   3.779
  245POPC   H9132760   8.537   7.623   3.791
  245POPC  C21032761   8.577   7.806   3.887
  245POPC  H10132762   8.539   7.766   3.981
  245POPC  C21132763   8.613   7.951   3.896
  245POPC  H11R32764   8.620   7.999   3.797
  245POPC  H11S32765   8.712   7.963   3.945
  245POPC  C21232766   8.509   8.019   3.985
  245POPC  H12R32767   8.499   7.966   4.083
  245POPC  H12S32768   8.411   8.015   3.933
  245POPC  C21332769   8.539   8.165   4.014
  245POPC  H13R32770   8.454   8.205   4.074
  245POPC  H13S32771   8.540   8.222   3.919
  245POPC  C21432772   8.668   8.192   4.093
  245POPC  H14R32773   8.758   8.152   4.040
  245POPC  H14S32774   8.662   8.144   4.192
  245POPC  C21532775   8.681   8.344   4.108
  245POPC  H15R32776   8.578   8.376   4.131
  245POPC  H15S32777   8.710   8.389   4.010
  245POPC  C21632778   8.770   8.398   4.220
  245POPC  H16R32779   8.792   8.505   4.198
  245POPC  H16S32780   8.865   8.342   4.225
  245POPC  C21732781   8.697   8.392   4.355
  245POPC  H17R32782   8.703   8.287   4.389
  245POPC  H17S32783   8.589   8.415   4.337
  245POPC  C21832784   8.746   8.488   4.464
  245POPC  H18R32785   8.775   8.586   4.422
  245POPC  H18S32786   8.833   8.444   4.517
  245POPC  H18T32787   8.666   8.503   4.540
  245POPC   C3332788   8.734   8.348   3.177
  245POPC   H3X32789   8.820   8.322   3.243
  245POPC   H3Y32790   8.690   8.252   3.142
  245POPC   C3432791   8.629   8.424   3.258
  245POPC   H4X32792   8.562   8.475   3.185
  245POPC   H4Y32793   8.677   8.502   3.321
  245POPC   C3532794   8.540   8.334   3.345
  245POPC   H5X32795   8.490   8.258   3.280
  245POPC   H5Y32796   8.463   8.399   3.390
  245POPC   C3632797   8.613   8.263   3.459
  245POPC   H6X32798   8.714   8.233   3.426
  245POPC   H6Y32799   8.558   8.170   3.487
  245POPC   C3732800   8.620   8.353   3.584
  245POPC   H7X32801   8.516   8.379   3.615
  245POPC   H7Y32802   8.672   8.448   3.558
  245POPC   C3832803   8.691   8.286   3.701
  245POPC   H8X32804   8.635   8.194   3.729
  245POPC   H8Y32805   8.690   8.355   3.789
  245POPC   C3932806   8.835   8.247   3.670
  245POPC   H9X32807   8.891   8.337   3.633
  245POPC   H9Y32808   8.837   8.171   3.589
  245POPC  C31032809   8.907   8.189   3.792
  245POPC  H10X32810   8.850   8.101   3.829
  245POPC  H10Y32811   8.912   8.265   3.873
  245POPC  C31132812   9.049   8.145   3.754
  245POPC  H11X32813   9.097   8.233   3.706
  245POPC  H11Y32814   9.044   8.065   3.677
  245POPC  C31232815   9.134   8.098   3.873
  245POPC  H12X32816   9.159   8.186   3.936
  245POPC  H12Y32817   9.230   8.056   3.833
  245POPC  C31332818   9.068   7.993   3.963
  245POPC  H13X32819   8.981   8.040   4.014
  245POPC  H13Y32820   9.141   7.963   4.042
  245POPC  C31432821   9.023   7.869   3.887
  245POPC  H14X32822   9.112   7.816   3.848
  245POPC  H14Y32823   8.962   7.899   3.798
  245POPC  C31532824   8.937   7.775   3.971
  245POPC  H15X32825   8.908   7.692   3.903
  245POPC  H15Y32826   8.843   7.825   3.999
  245POPC  C31632827   9.003   7.724   4.099
  245POPC  H16X32828   9.007   7.805   4.175
  245POPC  H16Y32829   9.106   7.687   4.081
  245POPC  H16Z32830   8.943   7.640   4.142
  246POPC     N32831   0.060   1.873   2.101
  246POPC   C1232832   0.097   1.964   2.219
  246POPC  H12A32833   0.047   2.060   2.211
  246POPC  H12B32834   0.204   1.984   2.213
  246POPC   C1332835   0.156   1.756   2.106
  246POPC  H13A32836   0.150   1.710   2.205
  246POPC  H13B32837   0.138   1.684   2.029
  246POPC  H13C32838   0.259   1.790   2.097
  246POPC   C1432839  -0.078   1.815   2.109
  246POPC  H14A32840  -0.094   1.774   2.208
  246POPC  H14B32841  -0.157   1.884   2.085
  246POPC  H14C32842  -0.088   1.735   2.036
  246POPC   C1532843   0.082   1.934   1.968
  246POPC  H15A32844   0.189   1.938   1.945
  246POPC  H15B32845   0.038   2.031   1.953
  246POPC  H15C32846   0.043   1.870   1.888
  246POPC   C1132847   0.075   1.909   2.362
  246POPC  H11A32848  -0.034   1.901   2.381
  246POPC  H11B32849   0.117   1.980   2.438
  246POPC     P32850   0.198   1.717   2.503
  246POPC   O1332851   0.313   1.797   2.544
  246POPC   O1432852   0.220   1.573   2.472
  246POPC   O1232853   0.135   1.781   2.373
  246POPC   O1132854   0.072   1.733   2.597
  246POPC    C132855  -0.058   1.693   2.550
  246POPC    HA32856  -0.056   1.641   2.452
  246POPC    HB32857  -0.122   1.783   2.535
  246POPC    C232858  -0.128   1.597   2.650
  246POPC    HS32859  -0.230   1.577   2.610
  246POPC   O2132860  -0.141   1.651   2.783
  246POPC   C2132861  -0.194   1.771   2.795
  246POPC   O2232862  -0.267   1.827   2.714
  246POPC   C2232863  -0.152   1.828   2.929
  246POPC   H2R32864  -0.090   1.756   2.985
  246POPC   H2S32865  -0.246   1.844   2.986
  246POPC    C332866  -0.053   1.461   2.661
  246POPC    HX32867  -0.047   1.415   2.560
  246POPC    HY32868  -0.116   1.398   2.726
  246POPC   O3132869   0.076   1.474   2.724
  246POPC   C3132870   0.162   1.375   2.707
  246POPC   O3232871   0.144   1.274   2.641
  246POPC   C3232872   0.288   1.399   2.789
  246POPC   H2X32873   0.313   1.507   2.787
  246POPC   H2Y32874   0.369   1.343   2.739
  246POPC   C2332875  -0.081   1.964   2.912
  246POPC   H3R32876  -0.067   2.008   3.012
  246POPC   H3S32877  -0.151   2.032   2.858
  246POPC   C2432878   0.052   1.962   2.834
  246POPC   H4R32879   0.069   2.067   2.800
  246POPC   H4S32880   0.040   1.902   2.741
  246POPC   C2532881   0.185   1.922   2.902
  246POPC   H5R32882   0.207   1.991   2.984
  246POPC   H5S32883   0.263   1.938   2.824
  246POPC   C2632884   0.211   1.781   2.957
  246POPC   H6R32885   0.217   1.711   2.871
  246POPC   H6S32886   0.124   1.752   3.019
  246POPC   C2732887   0.341   1.774   3.044
  246POPC   H7R32888   0.376   1.878   3.060
  246POPC   H7S32889   0.419   1.720   2.987
  246POPC   C2832890   0.318   1.712   3.185
  246POPC   H8R32891   0.250   1.633   3.154
  246POPC   H8S32892   0.255   1.781   3.241
  246POPC   C2932893   0.410   1.637   3.279
  246POPC   H9132894   0.439   1.537   3.242
  246POPC  C21032895   0.459   1.677   3.398
  246POPC  H10132896   0.523   1.606   3.454
  246POPC  C21132897   0.436   1.808   3.469
  246POPC  H11R32898   0.394   1.881   3.398
  246POPC  H11S32899   0.539   1.842   3.492
  246POPC  C21232900   0.369   1.835   3.605
  246POPC  H12R32901   0.258   1.841   3.596
  246POPC  H12S32902   0.402   1.936   3.639
  246POPC  C21332903   0.414   1.733   3.710
  246POPC  H13R32904   0.399   1.774   3.812
  246POPC  H13S32905   0.522   1.711   3.696
  246POPC  C21432906   0.330   1.607   3.699
  246POPC  H14R32907   0.384   1.522   3.747
  246POPC  H14S32908   0.316   1.580   3.592
  246POPC  C21532909   0.193   1.630   3.761
  246POPC  H15R32910   0.149   1.721   3.716
  246POPC  H15S32911   0.202   1.645   3.871
  246POPC  C21632912   0.100   1.513   3.731
  246POPC  H16R32913   0.100   1.451   3.822
  246POPC  H16S32914   0.140   1.457   3.645
  246POPC  C21732915  -0.048   1.545   3.713
  246POPC  H17R32916  -0.105   1.450   3.720
  246POPC  H17S32917  -0.065   1.590   3.613
  246POPC  C21832918  -0.093   1.642   3.821
  246POPC  H18R32919  -0.041   1.622   3.917
  246POPC  H18S32920  -0.203   1.643   3.834
  246POPC  H18T32921  -0.062   1.741   3.789
  246POPC   C3332922   0.273   1.343   2.932
  246POPC   H3X32923   0.373   1.350   2.980
  246POPC   H3Y32924   0.242   1.236   2.931
  246POPC   C3432925   0.176   1.424   3.019
  246POPC   H4X32926   0.071   1.409   2.987
  246POPC   H4Y32927   0.199   1.530   2.999
  246POPC   C3532928   0.193   1.389   3.169
  246POPC   H5X32929   0.301   1.394   3.193
  246POPC   H5Y32930   0.169   1.282   3.184
  246POPC   C3632931   0.112   1.473   3.272
  246POPC   H6X32932   0.183   1.520   3.344
  246POPC   H6Y32933   0.056   1.400   3.331
  246POPC   C3732934   0.012   1.580   3.222
  246POPC   H7X32935  -0.042   1.542   3.132
  246POPC   H7Y32936   0.066   1.671   3.194
  246POPC   C3832937  -0.090   1.630   3.327
  246POPC   H8X32938  -0.066   1.578   3.422
  246POPC   H8Y32939  -0.192   1.597   3.297
  246POPC   C3932940  -0.090   1.783   3.350
  246POPC   H9X32941  -0.102   1.834   3.252
  246POPC   H9Y32942   0.009   1.813   3.392
  246POPC  C31032943  -0.203   1.830   3.445
  246POPC  H10X32944  -0.220   1.751   3.521
  246POPC  H10Y32945  -0.293   1.835   3.383
  246POPC  C31132946  -0.182   1.964   3.521
  246POPC  H11X32947  -0.282   2.003   3.551
  246POPC  H11Y32948  -0.135   2.041   3.457
  246POPC  C31232949  -0.105   1.933   3.650
  246POPC  H12X32950  -0.026   1.860   3.621
  246POPC  H12Y32951  -0.180   1.882   3.715
  246POPC  C31332952  -0.035   2.037   3.740
  246POPC  H13X32953  -0.106   2.113   3.776
  246POPC  H13Y32954   0.046   2.089   3.688
  246POPC  C31432955   0.034   1.968   3.860
  246POPC  H14X32956   0.084   1.875   3.826
  246POPC  H14Y32957  -0.043   1.939   3.935
  246POPC  C31532958   0.146   2.048   3.926
  246POPC  H15X32959   0.108   2.151   3.935
  246POPC  H15Y32960   0.234   2.053   3.857
  246POPC  C31632961   0.189   1.996   4.063
  246POPC  H16X32962   0.104   1.999   4.134
  246POPC  H16Y32963   0.271   2.057   4.105
  246POPC  H16Z32964   0.223   1.890   4.055
  247POPC     N32965   0.524   1.350   2.358
  247POPC   C1232966   0.485   1.258   2.243
  247POPC  H12A32967   0.546   1.283   2.157
  247POPC  H12B32968   0.382   1.277   2.215
  247POPC   C1332969   0.672   1.341   2.381
  247POPC  H13A32970   0.700   1.237   2.399
  247POPC  H13B32971   0.728   1.373   2.295
  247POPC  H13C32972   0.703   1.398   2.467
  247POPC   C1432973   0.487   1.492   2.327
  247POPC  H14A32974   0.381   1.502   2.304
  247POPC  H14B32975   0.501   1.557   2.413
  247POPC  H14C32976   0.546   1.532   2.246
  247POPC   C1532977   0.453   1.310   2.483
  247POPC  H15A32978   0.484   1.209   2.514
  247POPC  H15B32979   0.344   1.311   2.471
  247POPC  H15C32980   0.473   1.379   2.564
  247POPC   C1132981   0.504   1.107   2.261
  247POPC  H11A32982   0.430   1.052   2.198
  247POPC  H11B32983   0.482   1.077   2.366
  247POPC     P32984   0.696   0.929   2.256
  247POPC   O1332985   0.845   0.937   2.251
  247POPC   O1432986   0.624   0.832   2.170
  247POPC   O1232987   0.637   1.074   2.220
  247POPC   O1132988   0.647   0.916   2.407
  247POPC    C132989   0.711   0.993   2.507
  247POPC    HA32990   0.636   1.031   2.580
  247POPC    HB32991   0.761   1.083   2.464
  247POPC    C232992   0.815   0.908   2.580
  247POPC    HS32993   0.843   0.823   2.514
  247POPC   O2132994   0.752   0.861   2.700
  247POPC   C2132995   0.818   0.772   2.769
  247POPC   O2232996   0.936   0.745   2.759
  247POPC   C2232997   0.714   0.696   2.853
  247POPC   H2R32998   0.737   0.589   2.846
  247POPC   H2S32999   0.615   0.709   2.808
  247POPC    C333000   0.942   0.993   2.607
  247POPC    HX33001   0.971   1.046   2.513
  247POPC    HY33002   1.026   0.925   2.633
  247POPC   O3133003   0.917   1.082   2.717
  247POPC   C3133004   0.868   1.201   2.692
  247POPC   O3233005   0.867   1.259   2.585
  247POPC   C3233006   0.792   1.250   2.815
  247POPC   H2X33007   0.695   1.196   2.816
  247POPC   H2Y33008   0.773   1.358   2.803
  247POPC   C2333009   0.708   0.740   2.999
  247POPC   H3R33010   0.809   0.771   3.034
  247POPC   H3S33011   0.678   0.651   3.060
  247POPC   C2433012   0.602   0.849   3.020
  247POPC   H4R33013   0.511   0.825   2.961
  247POPC   H4S33014   0.641   0.947   2.983
  247POPC   C2533015   0.561   0.859   3.166
  247POPC   H5R33016   0.526   0.760   3.201
  247POPC   H5S33017   0.477   0.931   3.179
  247POPC   C2633018   0.681   0.905   3.246
  247POPC   H6R33019   0.692   1.014   3.232
  247POPC   H6S33020   0.775   0.858   3.210
  247POPC   C2733021   0.674   0.875   3.394
  247POPC   H7R33022   0.724   0.776   3.407
  247POPC   H7S33023   0.569   0.869   3.430
  247POPC   C2833024   0.753   0.980   3.471
  247POPC   H8R33025   0.738   0.959   3.579
  247POPC   H8S33026   0.713   1.080   3.452
  247POPC   C2933027   0.896   0.971   3.421
  247POPC   H9133028   0.918   1.020   3.325
  247POPC  C21033029   0.993   0.914   3.491
  247POPC  H10133030   1.097   0.911   3.454
  247POPC  C21133031   0.966   0.857   3.626
  247POPC  H11R33032   1.045   0.786   3.654
  247POPC  H11S33033   0.869   0.803   3.633
  247POPC  C21233034   0.969   0.978   3.718
  247POPC  H12R33035   0.892   1.052   3.691
  247POPC  H12S33036   1.065   1.031   3.701
  247POPC  C21333037   0.963   0.950   3.867
  247POPC  H13R33038   1.033   0.867   3.893
  247POPC  H13S33039   0.861   0.921   3.899
  247POPC  C21433040   1.009   1.080   3.931
  247POPC  H14R33041   0.933   1.157   3.907
  247POPC  H14S33042   1.103   1.111   3.881
  247POPC  C21533043   1.039   1.074   4.080
  247POPC  H15R33044   1.145   1.047   4.095
  247POPC  H15S33045   0.982   0.989   4.124
  247POPC  C21633046   0.996   1.205   4.149
  247POPC  H16R33047   0.915   1.181   4.221
  247POPC  H16S33048   0.948   1.270   4.073
  247POPC  C21733049   1.102   1.292   4.218
  247POPC  H17R33050   1.066   1.314   4.321
  247POPC  H17S33051   1.106   1.389   4.165
  247POPC  C21833052   1.246   1.239   4.228
  247POPC  H18R33053   1.313   1.319   4.265
  247POPC  H18S33054   1.284   1.204   4.130
  247POPC  H18T33055   1.252   1.153   4.298
  247POPC   C3333056   0.863   1.222   2.949
  247POPC   H3X33057   0.956   1.284   2.954
  247POPC   H3Y33058   0.894   1.116   2.958
  247POPC   C3433059   0.771   1.254   3.068
  247POPC   H4X33060   0.731   1.159   3.110
  247POPC   H4Y33061   0.681   1.311   3.035
  247POPC   C3533062   0.847   1.330   3.177
  247POPC   H5X33063   0.922   1.398   3.131
  247POPC   H5Y33064   0.902   1.258   3.241
  247POPC   C3633065   0.751   1.416   3.260
  247POPC   H6X33066   0.686   1.470   3.190
  247POPC   H6Y33067   0.806   1.493   3.319
  247POPC   C3733068   0.659   1.334   3.348
  247POPC   H7X33069   0.677   1.227   3.326
  247POPC   H7Y33070   0.552   1.354   3.326
  247POPC   C3833071   0.689   1.366   3.493
  247POPC   H8X33072   0.682   1.475   3.513
  247POPC   H8Y33073   0.795   1.335   3.513
  247POPC   C3933074   0.598   1.294   3.590
  247POPC   H9X33075   0.583   1.188   3.558
  247POPC   H9Y33076   0.496   1.339   3.594
  247POPC  C31033077   0.663   1.296   3.727
  247POPC  H10X33078   0.619   1.380   3.786
  247POPC  H10Y33079   0.773   1.314   3.720
  247POPC  C31133080   0.644   1.164   3.796
  247POPC  H11X33081   0.721   1.089   3.771
  247POPC  H11Y33082   0.548   1.119   3.760
  247POPC  C31233083   0.636   1.179   3.946
  247POPC  H12X33084   0.599   1.280   3.976
  247POPC  H12Y33085   0.735   1.164   3.994
  247POPC  C31333086   0.539   1.073   3.989
  247POPC  H13X33087   0.583   0.977   3.956
  247POPC  H13Y33088   0.441   1.086   3.940
  247POPC  C31433089   0.515   1.077   4.137
  247POPC  H14X33090   0.475   1.175   4.170
  247POPC  H14Y33091   0.615   1.070   4.181
  247POPC  C31533092   0.421   0.964   4.178
  247POPC  H15X33093   0.322   1.010   4.176
  247POPC  H15Y33094   0.436   0.935   4.283
  247POPC  C31633095   0.417   0.843   4.085
  247POPC  H16X33096   0.377   0.872   3.986
  247POPC  H16Y33097   0.351   0.764   4.126
  247POPC  H16Z33098   0.520   0.801   4.073
  248POPC     N33099   7.944   9.656   2.355
  248POPC   C1233100   7.819   9.613   2.434
  248POPC  H12A33101   7.805   9.683   2.515
  248POPC  H12B33102   7.840   9.518   2.484
  248POPC   C1333103   8.052   9.695   2.450
  248POPC  H13A33104   8.075   9.615   2.519
  248POPC  H13B33105   8.142   9.724   2.398
  248POPC  H13C33106   8.019   9.780   2.509
  248POPC   C1433107   7.987   9.540   2.271
  248POPC  H14A33108   7.901   9.506   2.212
  248POPC  H14B33109   8.070   9.563   2.206
  248POPC  H14C33110   8.016   9.455   2.331
  248POPC   C1533111   7.917   9.776   2.271
  248POPC  H15A33112   7.863   9.853   2.326
  248POPC  H15B33113   7.858   9.749   2.184
  248POPC  H15C33114   8.009   9.823   2.238
  248POPC   C1133115   7.682   9.596   2.360
  248POPC  H11A33116   7.655   9.693   2.313
  248POPC  H11B33117   7.605   9.577   2.439
  248POPC     P33118   7.657   9.342   2.302
  248POPC   O1333119   7.707   9.257   2.191
  248POPC   O1433120   7.513   9.333   2.339
  248POPC   O1233121   7.682   9.493   2.260
  248POPC   O1133122   7.754   9.335   2.424
  248POPC    C133123   7.811   9.210   2.464
  248POPC    HA33124   7.881   9.172   2.387
  248POPC    HB33125   7.731   9.134   2.479
  248POPC    C233126   7.886   9.231   2.598
  248POPC    HS33127   7.910   9.132   2.644
  248POPC   O2133128   7.802   9.308   2.684
  248POPC   C2133129   7.698   9.239   2.727
  248POPC   O2233130   7.690   9.117   2.726
  248POPC   C2233131   7.604   9.335   2.795
  248POPC   H2R33132   7.504   9.329   2.748
  248POPC   H2S33133   7.642   9.439   2.786
  248POPC    C333134   8.023   9.304   2.576
  248POPC    HX33135   8.007   9.386   2.503
  248POPC    HY33136   8.092   9.231   2.528
  248POPC   O3133137   8.084   9.351   2.699
  248POPC   C3133138   8.045   9.471   2.741
  248POPC   O3233139   7.974   9.546   2.676
  248POPC   C3233140   8.111   9.512   2.873
  248POPC   H2X33141   8.089   9.620   2.891
  248POPC   H2Y33142   8.221   9.503   2.859
  248POPC   C2333143   7.602   9.292   2.942
  248POPC   H3R33144   7.706   9.275   2.979
  248POPC   H3S33145   7.547   9.196   2.950
  248POPC   C2433146   7.538   9.394   3.034
  248POPC   H4R33147   7.431   9.410   3.008
  248POPC   H4S33148   7.591   9.492   3.024
  248POPC   C2533149   7.550   9.346   3.178
  248POPC   H5R33150   7.655   9.316   3.198
  248POPC   H5S33151   7.486   9.256   3.193
  248POPC   C2633152   7.509   9.458   3.272
  248POPC   H6R33153   7.400   9.470   3.254
  248POPC   H6S33154   7.558   9.553   3.243
  248POPC   C2733155   7.536   9.427   3.419
  248POPC   H7R33156   7.493   9.328   3.441
  248POPC   H7S33157   7.476   9.501   3.477
  248POPC   C2833158   7.684   9.445   3.467
  248POPC   H8R33159   7.681   9.456   3.578
  248POPC   H8S33160   7.706   9.546   3.428
  248POPC   C2933161   7.801   9.355   3.430
  248POPC   H9133162   7.826   9.363   3.323
  248POPC  C21033163   7.876   9.268   3.505
  248POPC  H10133164   7.955   9.211   3.454
  248POPC  C21133165   7.861   9.236   3.653
  248POPC  H11R33166   7.781   9.163   3.662
  248POPC  H11S33167   7.830   9.324   3.712
  248POPC  C21233168   7.970   9.156   3.727
  248POPC  H12R33169   8.059   9.222   3.736
  248POPC  H12S33170   7.998   9.066   3.668
  248POPC  C21333171   7.927   9.110   3.870
  248POPC  H13R33172   7.870   9.191   3.918
  248POPC  H13S33173   8.021   9.096   3.928
  248POPC  C21433174   7.847   8.977   3.877
  248POPC  H14R33175   7.915   8.897   3.842
  248POPC  H14S33176   7.764   8.980   3.805
  248POPC  C21533177   7.791   8.935   4.016
  248POPC  H15R33178   7.869   8.933   4.094
  248POPC  H15S33179   7.755   8.830   4.008
  248POPC  C21633180   7.674   9.021   4.067
  248POPC  H16R33181   7.589   8.995   4.000
  248POPC  H16S33182   7.698   9.128   4.056
  248POPC  C21733183   7.620   8.993   4.209
  248POPC  H17R33184   7.639   8.888   4.238
  248POPC  H17S33185   7.510   9.011   4.204
  248POPC  C21833186   7.674   9.076   4.324
  248POPC  H18R33187   7.653   9.183   4.308
  248POPC  H18S33188   7.783   9.059   4.334
  248POPC  H18T33189   7.626   9.045   4.419
  248POPC   C3333190   8.069   9.426   2.994
  248POPC   H3X33191   8.159   9.413   3.059
  248POPC   H3Y33192   8.039   9.324   2.960
  248POPC   C3433193   7.957   9.481   3.084
  248POPC   H4X33194   7.950   9.409   3.168
  248POPC   H4Y33195   7.859   9.478   3.031
  248POPC   C3533196   7.980   9.621   3.142
  248POPC   H5X33197   7.950   9.697   3.066
  248POPC   H5Y33198   8.089   9.635   3.164
  248POPC   C3633199   7.900   9.644   3.271
  248POPC   H6X33200   7.937   9.574   3.348
  248POPC   H6Y33201   7.793   9.621   3.251
  248POPC   C3733202   7.909   9.787   3.327
  248POPC   H7X33203   7.816   9.843   3.304
  248POPC   H7Y33204   7.993   9.839   3.275
  248POPC   C3833205   7.938   9.796   3.478
  248POPC   H8X33206   7.961   9.902   3.503
  248POPC   H8Y33207   8.028   9.735   3.503
  248POPC   C3933208   7.821   9.753   3.568
  248POPC   H9X33209   7.812   9.643   3.565
  248POPC   H9Y33210   7.726   9.796   3.530
  248POPC  C31033211   7.839   9.796   3.715
  248POPC  H10X33212   7.745   9.780   3.771
  248POPC  H10Y33213   7.862   9.904   3.716
  248POPC  C31133214   7.952   9.719   3.786
  248POPC  H11X33215   7.966   9.764   3.887
  248POPC  H11Y33216   8.047   9.732   3.730
  248POPC  C31233217   7.922   9.569   3.801
  248POPC  H12X33218   7.893   9.527   3.702
  248POPC  H12Y33219   7.836   9.555   3.870
  248POPC  C31333220   8.041   9.490   3.852
  248POPC  H13X33221   8.126   9.497   3.780
  248POPC  H13Y33222   8.012   9.383   3.860
  248POPC  C31433223   8.084   9.537   3.989
  248POPC  H14X33224   7.997   9.530   4.058
  248POPC  H14Y33225   8.116   9.644   3.986
  248POPC  C31533226   8.199   9.455   4.045
  248POPC  H15X33227   8.291   9.483   3.988
  248POPC  H15Y33228   8.181   9.347   4.031
  248POPC  C31633229   8.215   9.485   4.193
  248POPC  H16X33230   8.249   9.590   4.209
  248POPC  H16Y33231   8.285   9.420   4.245
  248POPC  H16Z33232   8.118   9.470   4.244
  249POPC     N33233   8.249   8.616   2.224
  249POPC   C1233234   8.361   8.634   2.326
  249POPC  H12A33235   8.428   8.549   2.322
  249POPC  H12B33236   8.318   8.635   2.425
  249POPC   C1333237   8.178   8.486   2.239
  249POPC  H13A33238   8.246   8.404   2.222
  249POPC  H13B33239   8.134   8.476   2.337
  249POPC  H13C33240   8.100   8.479   2.165
  249POPC   C1433241   8.146   8.724   2.241
  249POPC  H14A33242   8.071   8.726   2.162
  249POPC  H14B33243   8.098   8.720   2.338
  249POPC  H14C33244   8.197   8.821   2.239
  249POPC   C1533245   8.309   8.620   2.089
  249POPC  H15A33246   8.375   8.535   2.071
  249POPC  H15B33247   8.364   8.711   2.072
  249POPC  H15C33248   8.234   8.611   2.011
  249POPC   C1133249   8.449   8.762   2.315
  249POPC  H11A33250   8.503   8.762   2.218
  249POPC  H11B33251   8.527   8.756   2.395
  249POPC     P33252   8.413   9.000   2.425
  249POPC   O1333253   8.302   9.099   2.429
  249POPC   O1433254   8.543   9.054   2.380
  249POPC   O1233255   8.372   8.883   2.324
  249POPC   O1133256   8.431   8.921   2.561
  249POPC    C133257   8.335   8.825   2.607
  249POPC    HA33258   8.388   8.750   2.670
  249POPC    HB33259   8.284   8.771   2.525
  249POPC    C233260   8.223   8.887   2.694
  249POPC    HS33261   8.147   8.929   2.623
  249POPC   O2133262   8.285   8.992   2.768
  249POPC   C2133263   8.205   9.082   2.816
  249POPC   O2233264   8.083   9.080   2.811
  249POPC   C2233265   8.291   9.186   2.884
  249POPC   H2R33266   8.241   9.284   2.874
  249POPC   H2S33267   8.388   9.192   2.830
  249POPC    C333268   8.156   8.781   2.786
  249POPC    HX33269   8.117   8.700   2.721
  249POPC    HY33270   8.066   8.826   2.835
  249POPC   O3133271   8.252   8.726   2.879
  249POPC   C3133272   8.252   8.785   2.999
  249POPC   O3233273   8.162   8.854   3.043
  249POPC   C3233274   8.388   8.768   3.069
  249POPC   H2X33275   8.422   8.870   3.096
  249POPC   H2Y33276   8.461   8.727   2.996
  249POPC   C2333277   8.313   9.147   3.030
  249POPC   H3R33278   8.353   9.043   3.029
  249POPC   H3S33279   8.218   9.144   3.089
  249POPC   C2433280   8.418   9.234   3.098
  249POPC   H4R33281   8.368   9.316   3.153
  249POPC   H4S33282   8.481   9.279   3.017
  249POPC   C2533283   8.512   9.155   3.189
  249POPC   H5R33284   8.594   9.221   3.226
  249POPC   H5S33285   8.561   9.073   3.131
  249POPC   C2633286   8.442   9.096   3.311
  249POPC   H6R33287   8.369   9.020   3.277
  249POPC   H6S33288   8.386   9.176   3.365
  249POPC   C2733289   8.543   9.033   3.409
  249POPC   H7R33290   8.600   9.115   3.458
  249POPC   H7S33291   8.616   8.971   3.353
  249POPC   C2833292   8.478   8.946   3.517
  249POPC   H8R33293   8.552   8.934   3.599
  249POPC   H8S33294   8.467   8.844   3.475
  249POPC   C2933295   8.344   8.994   3.567
  249POPC   H9133296   8.260   8.935   3.530
  249POPC  C21033297   8.316   9.099   3.646
  249POPC  H10133298   8.213   9.110   3.679
  249POPC  C21133299   8.412   9.196   3.709
  249POPC  H11R33300   8.376   9.301   3.696
  249POPC  H11S33301   8.513   9.190   3.663
  249POPC  C21233302   8.426   9.171   3.860
  249POPC  H12R33303   8.342   9.220   3.914
  249POPC  H12S33304   8.520   9.219   3.894
  249POPC  C21333305   8.430   9.023   3.903
  249POPC  H13R33306   8.340   8.970   3.866
  249POPC  H13S33307   8.428   9.021   4.013
  249POPC  C21433308   8.553   8.948   3.852
  249POPC  H14R33309   8.605   9.014   3.779
  249POPC  H14S33310   8.520   8.857   3.797
  249POPC  C21533311   8.654   8.911   3.961
  249POPC  H15R33312   8.682   9.006   4.010
  249POPC  H15S33313   8.743   8.866   3.913
  249POPC  C21633314   8.601   8.816   4.068
  249POPC  H16R33315   8.511   8.860   4.116
  249POPC  H16S33316   8.677   8.804   4.149
  249POPC  C21733317   8.566   8.679   4.013
  249POPC  H17R33318   8.660   8.623   3.989
  249POPC  H17S33319   8.509   8.689   3.918
  249POPC  C21833320   8.481   8.603   4.113
  249POPC  H18R33321   8.542   8.576   4.202
  249POPC  H18S33322   8.440   8.511   4.067
  249POPC  H18T33323   8.396   8.665   4.148
  249POPC   C3333324   8.385   8.685   3.199
  249POPC   H3X33325   8.484   8.694   3.249
  249POPC   H3Y33326   8.368   8.578   3.175
  249POPC   C3433327   8.278   8.731   3.301
  249POPC   H4X33328   8.179   8.722   3.251
  249POPC   H4Y33329   8.291   8.837   3.327
  249POPC   C3533330   8.275   8.646   3.428
  249POPC   H5X33331   8.341   8.687   3.507
  249POPC   H5Y33332   8.318   8.547   3.403
  249POPC   C3633333   8.132   8.624   3.480
  249POPC   H6X33334   8.125   8.519   3.516
  249POPC   H6Y33335   8.058   8.634   3.398
  249POPC   C3733336   8.092   8.709   3.599
  249POPC   H7X33337   7.984   8.691   3.621
  249POPC   H7Y33338   8.103   8.817   3.576
  249POPC   C3833339   8.173   8.671   3.723
  249POPC   H8X33340   8.282   8.689   3.708
  249POPC   H8Y33341   8.161   8.562   3.744
  249POPC   C3933342   8.123   8.747   3.843
  249POPC   H9X33343   8.015   8.723   3.856
  249POPC   H9Y33344   8.135   8.857   3.826
  249POPC  C31033345   8.195   8.705   3.969
  249POPC  H10X33346   8.303   8.727   3.959
  249POPC  H10Y33347   8.184   8.595   3.981
  249POPC  C31133348   8.137   8.773   4.092
  249POPC  H11X33349   8.158   8.709   4.180
  249POPC  H11Y33350   8.027   8.780   4.082
  249POPC  C31233351   8.198   8.912   4.114
  249POPC  H12X33352   8.209   8.960   4.015
  249POPC  H12Y33353   8.298   8.903   4.160
  249POPC  C31333354   8.109   9.006   4.194
  249POPC  H13X33355   8.025   9.036   4.129
  249POPC  H13Y33356   8.162   9.101   4.212
  249POPC  C31433357   8.058   8.949   4.326
  249POPC  H14X33358   8.009   8.851   4.309
  249POPC  H14Y33359   7.981   9.019   4.367
  249POPC  C31533360   8.170   8.941   4.430
  249POPC  H15X33361   8.262   8.900   4.384
  249POPC  H15Y33362   8.138   8.873   4.512
  249POPC  C31633363   8.197   9.078   4.489
  249POPC  H16X33364   8.117   9.103   4.561
  249POPC  H16Y33365   8.197   9.153   4.407
  249POPC  H16Z33366   8.295   9.084   4.541
  250POPC     N33367   0.250   8.118   2.222
  250POPC   C1233368   0.307   8.109   2.363
  250POPC  H12A33369   0.381   8.030   2.367
  250POPC  H12B33370   0.229   8.082   2.432
  250POPC   C1333371   0.358   8.167   2.131
  250POPC  H13A33372   0.337   8.151   2.027
  250POPC  H13B33373   0.376   8.273   2.149
  250POPC  H13C33374   0.452   8.118   2.157
  250POPC   C1433375   0.202   7.985   2.170
  250POPC  H14A33376   0.286   7.916   2.156
  250POPC  H14B33377   0.126   7.942   2.233
  250POPC  H14C33378   0.160   7.997   2.070
  250POPC   C1533379   0.137   8.216   2.216
  250POPC  H15A33380   0.048   8.175   2.262
  250POPC  H15B33381   0.113   8.241   2.112
  250POPC  H15C33382   0.165   8.308   2.265
  250POPC   C1133383   0.382   8.234   2.416
  250POPC  H11A33384   0.388   8.229   2.527
  250POPC  H11B33385   0.325   8.327   2.395
  250POPC     P33386   0.632   8.151   2.401
  250POPC   O1333387   0.754   8.234   2.419
  250POPC   O1433388   0.641   8.032   2.312
  250POPC   O1233389   0.512   8.244   2.355
  250POPC   O1133390   0.578   8.102   2.543
  250POPC    C133391   0.655   8.085   2.663
  250POPC    HA33392   0.765   8.092   2.644
  250POPC    HB33393   0.633   7.984   2.704
  250POPC    C233394   0.618   8.179   2.782
  250POPC    HS33395   0.699   8.166   2.858
  250POPC   O2133396   0.488   8.139   2.833
  250POPC   C2133397   0.483   8.106   2.962
  250POPC   O2233398   0.572   8.117   3.043
  250POPC   C2233399   0.346   8.043   2.988
  250POPC   H2R33400   0.335   8.033   3.097
  250POPC   H2S33401   0.352   7.942   2.945
  250POPC    C333402   0.618   8.328   2.741
  250POPC    HX33403   0.570   8.335   2.640
  250POPC    HY33404   0.724   8.360   2.727
  250POPC   O3133405   0.555   8.409   2.843
  250POPC   C3133406   0.439   8.463   2.806
  250POPC   O3233407   0.404   8.484   2.691
  250POPC   C3233408   0.350   8.491   2.929
  250POPC   H2X33409   0.253   8.443   2.908
  250POPC   H2Y33410   0.332   8.600   2.932
  250POPC   C2333411   0.228   8.121   2.927
  250POPC   H3R33412   0.215   8.094   2.820
  250POPC   H3S33413   0.252   8.230   2.930
  250POPC   C2433414   0.095   8.104   3.003
  250POPC   H4R33415   0.112   8.048   3.097
  250POPC   H4S33416   0.024   8.045   2.941
  250POPC   C2533417   0.034   8.240   3.039
  250POPC   H5R33418   0.025   8.303   2.948
  250POPC   H5S33419   0.105   8.292   3.107
  250POPC   C2633420  -0.102   8.231   3.108
  250POPC   H6R33421  -0.108   8.139   3.169
  250POPC   H6S33422  -0.181   8.225   3.030
  250POPC   C2733423  -0.127   8.352   3.199
  250POPC   H7R33424  -0.235   8.376   3.205
  250POPC   H7S33425  -0.075   8.440   3.156
  250POPC   C2833426  -0.075   8.322   3.341
  250POPC   H8R33427   0.021   8.265   3.329
  250POPC   H8S33428  -0.147   8.253   3.390
  250POPC   C2933429  -0.048   8.443   3.425
  250POPC   H9133430  -0.052   8.541   3.375
  250POPC  C21033431  -0.016   8.435   3.555
  250POPC  H10133432   0.006   8.528   3.610
  250POPC  C21133433  -0.002   8.305   3.631
  250POPC  H11R33434   0.092   8.254   3.603
  250POPC  H11S33435  -0.082   8.234   3.603
  250POPC  C21233436  -0.005   8.325   3.784
  250POPC  H12R33437   0.018   8.226   3.831
  250POPC  H12S33438  -0.107   8.356   3.817
  250POPC  C21333439   0.096   8.425   3.837
  250POPC  H13R33440   0.092   8.426   3.949
  250POPC  H13S33441   0.072   8.528   3.804
  250POPC  C21433442   0.238   8.388   3.793
  250POPC  H14R33443   0.246   8.355   3.688
  250POPC  H14S33444   0.264   8.302   3.855
  250POPC  C21533445   0.337   8.499   3.818
  250POPC  H15R33446   0.297   8.560   3.902
  250POPC  H15S33447   0.344   8.565   3.728
  250POPC  C21633448   0.476   8.447   3.857
  250POPC  H16R33449   0.533   8.422   3.765
  250POPC  H16S33450   0.468   8.355   3.918
  250POPC  C21733451   0.549   8.547   3.943
  250POPC  H17R33452   0.655   8.516   3.950
  250POPC  H17S33453   0.508   8.546   4.046
  250POPC  C21833454   0.535   8.688   3.887
  250POPC  H18R33455   0.550   8.691   3.777
  250POPC  H18S33456   0.606   8.755   3.936
  250POPC  H18T33457   0.434   8.727   3.908
  250POPC   C3333458   0.399   8.446   3.070
  250POPC   H3X33459   0.506   8.473   3.083
  250POPC   H3Y33460   0.394   8.335   3.078
  250POPC   C3433461   0.309   8.508   3.179
  250POPC   H4X33462   0.206   8.471   3.160
  250POPC   H4Y33463   0.307   8.618   3.164
  250POPC   C3533464   0.342   8.481   3.328
  250POPC   H5X33465   0.247   8.493   3.385
  250POPC   H5Y33466   0.410   8.560   3.365
  250POPC   C3633467   0.402   8.345   3.363
  250POPC   H6X33468   0.427   8.344   3.472
  250POPC   H6Y33469   0.498   8.330   3.308
  250POPC   C3733470   0.308   8.227   3.335
  250POPC   H7X33471   0.268   8.234   3.232
  250POPC   H7Y33472   0.222   8.235   3.405
  250POPC   C3833473   0.377   8.092   3.355
  250POPC   H8X33474   0.442   8.101   3.444
  250POPC   H8Y33475   0.445   8.072   3.269
  250POPC   C3933476   0.276   7.977   3.372
  250POPC   H9X33477   0.210   7.970   3.283
  250POPC   H9Y33478   0.210   8.000   3.459
  250POPC  C31033479   0.342   7.840   3.396
  250POPC  H10X33480   0.388   7.804   3.301
  250POPC  H10Y33481   0.263   7.767   3.424
  250POPC  C31133482   0.450   7.840   3.505
  250POPC  H11X33483   0.541   7.889   3.464
  250POPC  H11Y33484   0.478   7.735   3.530
  250POPC  C31233485   0.412   7.912   3.635
  250POPC  H12X33486   0.343   7.848   3.694
  250POPC  H12Y33487   0.357   8.007   3.615
  250POPC  C31333488   0.535   7.949   3.718
  250POPC  H13X33489   0.585   8.036   3.671
  250POPC  H13Y33490   0.607   7.864   3.718
  250POPC  C31433491   0.501   7.983   3.863
  250POPC  H14X33492   0.595   8.017   3.910
  250POPC  H14Y33493   0.465   7.891   3.915
  250POPC  C31533494   0.394   8.093   3.879
  250POPC  H15X33495   0.300   8.060   3.831
  250POPC  H15Y33496   0.431   8.180   3.821
  250POPC  C31633497   0.361   8.133   4.024
  250POPC  H16X33498   0.448   8.177   4.076
  250POPC  H16Y33499   0.324   8.046   4.082
  250POPC  H16Z33500   0.281   8.210   4.029
  251POPC     N33501   1.179   0.588   2.241
  251POPC   C1233502   1.086   0.522   2.343
  251POPC  H12A33503   1.024   0.450   2.289
  251POPC  H12B33504   1.020   0.598   2.384
  251POPC   C1333505   1.291   0.658   2.311
  251POPC  H13A33506   1.255   0.735   2.380
  251POPC  H13B33507   1.345   0.584   2.369
  251POPC  H13C33508   1.358   0.704   2.240
  251POPC   C1433509   1.237   0.482   2.151
  251POPC  H14A33510   1.158   0.413   2.119
  251POPC  H14B33511   1.283   0.524   2.063
  251POPC  H14C33512   1.307   0.418   2.205
  251POPC   C1533513   1.098   0.683   2.156
  251POPC  H15A33514   1.162   0.734   2.084
  251POPC  H15B33515   1.044   0.758   2.214
  251POPC  H15C33516   1.022   0.631   2.098
  251POPC   C1133517   1.150   0.446   2.463
  251POPC  H11A33518   1.070   0.414   2.534
  251POPC  H11B33519   1.216   0.514   2.522
  251POPC     P33520   1.158   0.206   2.363
  251POPC   O1333521   1.265   0.108   2.335
  251POPC   O1433522   1.070   0.247   2.250
  251POPC   O1233523   1.227   0.336   2.419
  251POPC   O1133524   1.066   0.153   2.481
  251POPC    C133525   1.082   0.018   2.524
  251POPC    HA33526   1.126  -0.049   2.447
  251POPC    HB33527   0.981  -0.024   2.540
  251POPC    C233528   1.170   0.005   2.653
  251POPC    HS33529   1.179  -0.103   2.673
  251POPC   O2133530   1.114   0.067   2.768
  251POPC   C2133531   0.988   0.050   2.794
  251POPC   O2233532   0.914  -0.040   2.755
  251POPC   C2233533   0.947   0.173   2.870
  251POPC   H2R33534   1.009   0.183   2.962
  251POPC   H2S33535   0.840   0.165   2.898
  251POPC    C333536   1.314   0.063   2.640
  251POPC    HX33537   1.305   0.169   2.606
  251POPC    HY33538   1.367   0.008   2.560
  251POPC   O3133539   1.385   0.050   2.766
  251POPC   C3133540   1.412   0.162   2.832
  251POPC   O3233541   1.403   0.275   2.788
  251POPC   C3233542   1.459   0.126   2.974
  251POPC   H2X33543   1.528   0.040   2.966
  251POPC   H2Y33544   1.370   0.096   3.032
  251POPC   C2333545   0.973   0.290   2.774
  251POPC   H3R33546   0.923   0.267   2.676
  251POPC   H3S33547   1.081   0.303   2.753
  251POPC   C2433548   0.915   0.421   2.824
  251POPC   H4R33549   0.807   0.402   2.843
  251POPC   H4S33550   0.924   0.496   2.742
  251POPC   C2533551   0.980   0.477   2.951
  251POPC   H5R33552   0.957   0.413   3.039
  251POPC   H5S33553   0.936   0.577   2.970
  251POPC   C2633554   1.132   0.496   2.939
  251POPC   H6R33555   1.157   0.515   2.832
  251POPC   H6S33556   1.183   0.401   2.967
  251POPC   C2733557   1.187   0.615   3.019
  251POPC   H7R33558   1.150   0.708   2.971
  251POPC   H7S33559   1.298   0.615   3.011
  251POPC   C2833560   1.145   0.619   3.168
  251POPC   H8R33561   1.035   0.634   3.172
  251POPC   H8S33562   1.192   0.708   3.216
  251POPC   C2933563   1.190   0.493   3.237
  251POPC   H9133564   1.295   0.466   3.221
  251POPC  C21033565   1.114   0.412   3.314
  251POPC  H10133566   1.161   0.324   3.360
  251POPC  C21133567   0.969   0.432   3.346
  251POPC  H11R33568   0.906   0.355   3.297
  251POPC  H11S33569   0.930   0.531   3.314
  251POPC  C21233570   0.950   0.421   3.498
  251POPC  H12R33571   0.969   0.318   3.532
  251POPC  H12S33572   0.844   0.442   3.520
  251POPC  C21333573   1.035   0.519   3.578
  251POPC  H13R33574   1.038   0.617   3.525
  251POPC  H13S33575   1.140   0.483   3.584
  251POPC  C21433576   0.980   0.537   3.720
  251POPC  H14R33577   0.934   0.441   3.751
  251POPC  H14S33578   0.898   0.612   3.719
  251POPC  C21533579   1.087   0.576   3.822
  251POPC  H15R33580   1.132   0.671   3.791
  251POPC  H15S33581   1.167   0.498   3.821
  251POPC  C21633582   1.033   0.591   3.964
  251POPC  H16R33583   0.991   0.494   3.997
  251POPC  H16S33584   0.950   0.665   3.966
  251POPC  C21733585   1.143   0.635   4.061
  251POPC  H17R33586   1.168   0.742   4.041
  251POPC  H17S33587   1.235   0.576   4.042
  251POPC  C21833588   1.103   0.618   4.208
  251POPC  H18R33589   1.007   0.670   4.228
  251POPC  H18S33590   1.181   0.658   4.275
  251POPC  H18T33591   1.088   0.511   4.232
  251POPC   C3333592   1.530   0.243   3.047
  251POPC   H3X33593   1.454   0.316   3.083
  251POPC   H3Y33594   1.595   0.297   2.976
  251POPC   C3433595   1.619   0.194   3.163
  251POPC   H4X33596   1.679   0.281   3.200
  251POPC   H4Y33597   1.692   0.120   3.124
  251POPC   C3533598   1.544   0.134   3.283
  251POPC   H5X33599   1.619   0.101   3.358
  251POPC   H5Y33600   1.487   0.044   3.251
  251POPC   C3633601   1.450   0.235   3.349
  251POPC   H6X33602   1.358   0.245   3.288
  251POPC   H6Y33603   1.501   0.334   3.348
  251POPC   C3733604   1.414   0.204   3.495
  251POPC   H7X33605   1.366   0.296   3.533
  251POPC   H7Y33606   1.507   0.189   3.555
  251POPC   C3833607   1.319   0.084   3.517
  251POPC   H8X33608   1.374  -0.010   3.493
  251POPC   H8Y33609   1.234   0.092   3.446
  251POPC   C3933610   1.263   0.076   3.660
  251POPC   H9X33611   1.347   0.076   3.732
  251POPC   H9Y33612   1.208  -0.020   3.673
  251POPC  C31033613   1.166   0.193   3.690
  251POPC  H10X33614   1.077   0.177   3.626
  251POPC  H10Y33615   1.213   0.289   3.660
  251POPC  C31133616   1.118   0.214   3.834
  251POPC  H11X33617   1.052   0.130   3.864
  251POPC  H11Y33618   1.055   0.305   3.837
  251POPC  C31233619   1.229   0.233   3.937
  251POPC  H12X33620   1.296   0.317   3.910
  251POPC  H12Y33621   1.289   0.141   3.934
  251POPC  C31333622   1.170   0.257   4.077
  251POPC  H13X33623   1.083   0.191   4.094
  251POPC  H13Y33624   1.127   0.359   4.079
  251POPC  C31433625   1.266   0.245   4.195
  251POPC  H14X33626   1.206   0.239   4.289
  251POPC  H14Y33627   1.321   0.341   4.197
  251POPC  C31533628   1.369   0.130   4.194
  251POPC  H15X33629   1.469   0.175   4.218
  251POPC  H15Y33630   1.382   0.083   4.094
  251POPC  C31633631   1.341   0.019   4.295
  251POPC  H16X33632   1.251   0.042   4.356
  251POPC  H16Y33633   1.427   0.007   4.364
  251POPC  H16Z33634   1.322  -0.078   4.244
  252POPC     N33635   9.284   1.056   2.171
  252POPC   C1233636   9.275   1.067   2.324
  252POPC  H12A33637   9.236   1.165   2.351
  252POPC  H12B33638   9.373   1.062   2.369
  252POPC   C1333639   9.321   0.916   2.130
  252POPC  H13A33640   9.241   0.848   2.158
  252POPC  H13B33641   9.334   0.904   2.023
  252POPC  H13C33642   9.412   0.886   2.179
  252POPC   C1433643   9.151   1.088   2.112
  252POPC  H14A33644   9.075   1.030   2.165
  252POPC  H14B33645   9.128   1.192   2.128
  252POPC  H14C33646   9.148   1.067   2.005
  252POPC   C1533647   9.382   1.153   2.114
  252POPC  H15A33648   9.484   1.116   2.121
  252POPC  H15B33649   9.376   1.248   2.166
  252POPC  H15C33650   9.358   1.169   2.009
  252POPC   C1133651   9.182   0.968   2.399
  252POPC  H11A33652   9.193   0.984   2.509
  252POPC  H11B33653   9.211   0.863   2.379
  252POPC     P33654   8.924   0.963   2.449
  252POPC   O1333655   8.943   0.836   2.523
  252POPC   O1433656   8.808   0.979   2.359
  252POPC   O1233657   9.048   0.990   2.357
  252POPC   O1133658   8.922   1.085   2.547
  252POPC    C133659   8.939   1.213   2.487
  252POPC    HA33660   8.856   1.235   2.415
  252POPC    HB33661   9.035   1.217   2.430
  252POPC    C233662   8.946   1.324   2.594
  252POPC    HS33663   9.024   1.396   2.560
  252POPC   O2133664   8.978   1.281   2.729
  252POPC   C2133665   9.086   1.203   2.740
  252POPC   O2233666   9.161   1.173   2.649
  252POPC   C2233667   9.124   1.181   2.887
  252POPC   H2R33668   9.224   1.132   2.887
  252POPC   H2S33669   9.053   1.109   2.929
  252POPC    C333670   8.810   1.400   2.593
  252POPC    HX33671   8.790   1.436   2.490
  252POPC    HY33672   8.829   1.491   2.653
  252POPC   O3133673   8.702   1.322   2.649
  252POPC   C3133674   8.630   1.252   2.561
  252POPC   O3233675   8.604   1.289   2.448
  252POPC   C3233676   8.597   1.115   2.618
  252POPC   H2X33677   8.680   1.048   2.591
  252POPC   H2Y33678   8.507   1.077   2.567
  252POPC   C2333679   9.131   1.307   2.977
  252POPC   H3R33680   9.044   1.373   2.954
  252POPC   H3S33681   9.222   1.364   2.952
  252POPC   C2433682   9.128   1.280   3.129
  252POPC   H4R33683   9.030   1.237   3.159
  252POPC   H4S33684   9.137   1.379   3.180
  252POPC   C2533685   9.243   1.192   3.186
  252POPC   H5R33686   9.335   1.232   3.141
  252POPC   H5S33687   9.233   1.087   3.151
  252POPC   C2633688   9.249   1.197   3.341
  252POPC   H6R33689   9.161   1.142   3.379
  252POPC   H6S33690   9.233   1.303   3.372
  252POPC   C2733691   9.376   1.143   3.414
  252POPC   H7R33692   9.457   1.124   3.340
  252POPC   H7S33693   9.352   1.043   3.457
  252POPC   C2833694   9.432   1.235   3.527
  252POPC   H8R33695   9.386   1.335   3.513
  252POPC   H8S33696   9.542   1.249   3.515
  252POPC   C2933697   9.392   1.196   3.668
  252POPC   H9133698   9.286   1.172   3.671
  252POPC  C21033699   9.459   1.200   3.785
  252POPC  H10133700   9.406   1.166   3.876
  252POPC  C21133701   9.601   1.248   3.813
  252POPC  H11R33702   9.641   1.305   3.727
  252POPC  H11S33703   9.663   1.157   3.817
  252POPC  C21233704   9.633   1.334   3.941
  252POPC  H12R33705   9.657   1.438   3.910
  252POPC  H12S33706   9.726   1.296   3.986
  252POPC  C21333707   9.526   1.347   4.052
  252POPC  H13R33708   9.423   1.345   4.012
  252POPC  H13S33709   9.539   1.445   4.105
  252POPC  C21433710   9.550   1.236   4.152
  252POPC  H14R33711   9.645   1.258   4.207
  252POPC  H14S33712   9.563   1.145   4.089
  252POPC  C21533713   9.443   1.206   4.254
  252POPC  H15R33714   9.347   1.186   4.203
  252POPC  H15S33715   9.430   1.293   4.322
  252POPC  C21633716   9.484   1.083   4.336
  252POPC  H16R33717   9.435   1.089   4.435
  252POPC  H16S33718   9.593   1.087   4.358
  252POPC  C21733719   9.448   0.950   4.266
  252POPC  H17R33720   9.486   0.948   4.161
  252POPC  H17S33721   9.337   0.945   4.254
  252POPC  C21833722   9.498   0.825   4.340
  252POPC  H18R33723   9.487   0.833   4.450
  252POPC  H18S33724   9.605   0.807   4.321
  252POPC  H18T33725   9.439   0.737   4.307
  252POPC   C3333726   8.577   1.106   2.770
  252POPC   H3X33727   8.495   1.169   2.806
  252POPC   H3Y33728   8.670   1.137   2.823
  252POPC   C3433729   8.544   0.960   2.803
  252POPC   H4X33730   8.490   0.914   2.718
  252POPC   H4Y33731   8.479   0.955   2.893
  252POPC   C3533732   8.672   0.882   2.830
  252POPC   H5X33733   8.750   0.906   2.754
  252POPC   H5Y33734   8.650   0.774   2.817
  252POPC   C3633735   8.722   0.907   2.972
  252POPC   H6X33736   8.716   0.812   3.029
  252POPC   H6Y33737   8.656   0.980   3.023
  252POPC   C3733738   8.864   0.962   2.976
  252POPC   H7X33739   8.856   1.071   2.954
  252POPC   H7Y33740   8.925   0.915   2.896
  252POPC   C3833741   8.935   0.942   3.111
  252POPC   H8X33742   9.035   0.991   3.106
  252POPC   H8Y33743   8.954   0.833   3.126
  252POPC   C3933744   8.859   1.000   3.231
  252POPC   H9X33745   8.755   0.961   3.234
  252POPC   H9Y33746   8.852   1.110   3.217
  252POPC  C31033747   8.928   0.968   3.364
  252POPC  H10X33748   9.037   0.956   3.343
  252POPC  H10Y33749   8.891   0.871   3.403
  252POPC  C31133750   8.910   1.079   3.469
  252POPC  H11X33751   8.802   1.104   3.480
  252POPC  H11Y33752   8.959   1.171   3.430
  252POPC  C31233753   8.970   1.047   3.607
  252POPC  H12X33754   8.893   1.000   3.672
  252POPC  H12Y33755   9.000   1.143   3.654
  252POPC  C31333756   9.093   0.955   3.602
  252POPC  H13X33757   9.158   0.989   3.519
  252POPC  H13Y33758   9.062   0.852   3.577
  252POPC  C31433759   9.179   0.957   3.729
  252POPC  H14X33760   9.167   1.054   3.782
  252POPC  H14Y33761   9.286   0.947   3.698
  252POPC  C31533762   9.153   0.843   3.828
  252POPC  H15X33763   9.167   0.746   3.776
  252POPC  H15Y33764   9.047   0.849   3.863
  252POPC  C31633765   9.248   0.851   3.947
  252POPC  H16X33766   9.240   0.950   3.997
  252POPC  H16Y33767   9.353   0.839   3.912
  252POPC  H16Z33768   9.226   0.772   4.022
  253POPC     N33769   0.892   8.856   2.256
  253POPC   C1233770   0.821   8.956   2.347
  253POPC  H12A33771   0.768   9.028   2.285
  253POPC  H12B33772   0.893   9.011   2.406
  253POPC   C1333773   0.930   8.735   2.335
  253POPC  H13A33774   0.968   8.657   2.271
  253POPC  H13B33775   0.999   8.756   2.415
  253POPC  H13C33776   0.837   8.698   2.380
  253POPC   C1433777   0.789   8.813   2.156
  253POPC  H14A33778   0.742   8.897   2.106
  253POPC  H14B33779   0.825   8.740   2.085
  253POPC  H14C33780   0.706   8.765   2.210
  253POPC   C1533781   1.009   8.914   2.184
  253POPC  H15A33782   1.052   8.840   2.117
  253POPC  H15B33783   1.087   8.946   2.252
  253POPC  H15C33784   0.981   8.997   2.121
  253POPC   C1133785   0.716   8.897   2.445
  253POPC  H11A33786   0.684   8.977   2.514
  253POPC  H11B33787   0.761   8.821   2.512
  253POPC     P33788   0.490   8.924   2.310
  253POPC   O1333789   0.381   8.835   2.262
  253POPC   O1433790   0.555   9.006   2.206
  253POPC   O1233791   0.604   8.838   2.382
  253POPC   O1133792   0.432   9.020   2.425
  253POPC    C133793   0.496   9.140   2.470
  253POPC    HA33794   0.434   9.226   2.435
  253POPC    HB33795   0.597   9.156   2.424
  253POPC    C233796   0.509   9.162   2.627
  253POPC    HS33797   0.504   9.272   2.638
  253POPC   O2133798   0.635   9.113   2.682
  253POPC   C2133799   0.670   9.168   2.801
  253POPC   O2233800   0.617   9.268   2.846
  253POPC   C2233801   0.771   9.080   2.876
  253POPC   H2R33802   0.871   9.095   2.833
  253POPC   H2S33803   0.744   8.974   2.859
  253POPC    C333804   0.393   9.098   2.710
  253POPC    HX33805   0.303   9.096   2.645
  253POPC    HY33806   0.369   9.164   2.796
  253POPC   O3133807   0.424   8.963   2.750
  253POPC   C3133808   0.467   8.942   2.874
  253POPC   O3233809   0.455   9.018   2.968
  253POPC   C3233810   0.538   8.806   2.870
  253POPC   H2X33811   0.609   8.810   2.784
  253POPC   H2Y33812   0.460   8.733   2.842
  253POPC   C2333813   0.770   9.112   3.028
  253POPC   H3R33814   0.694   9.048   3.077
  253POPC   H3S33815   0.738   9.217   3.046
  253POPC   C2433816   0.905   9.097   3.100
  253POPC   H4R33817   0.977   9.168   3.053
  253POPC   H4S33818   0.945   8.995   3.087
  253POPC   C2533819   0.892   9.131   3.250
  253POPC   H5R33820   0.831   9.223   3.260
  253POPC   H5S33821   0.993   9.151   3.293
  253POPC   C2633822   0.828   9.015   3.328
  253POPC   H6R33823   0.905   8.937   3.344
  253POPC   H6S33824   0.750   8.969   3.265
  253POPC   C2733825   0.766   9.047   3.465
  253POPC   H7R33826   0.843   9.092   3.532
  253POPC   H7S33827   0.736   8.950   3.511
  253POPC   C2833828   0.639   9.135   3.461
  253POPC   H8R33829   0.669   9.238   3.432
  253POPC   H8S33830   0.599   9.142   3.565
  253POPC   C2933831   0.534   9.086   3.365
  253POPC   H9133832   0.546   9.124   3.262
  253POPC  C21033833   0.430   9.004   3.390
  253POPC  H10133834   0.361   8.981   3.306
  253POPC  C21133835   0.394   8.940   3.522
  253POPC  H11R33836   0.450   8.987   3.605
  253POPC  H11S33837   0.423   8.833   3.520
  253POPC  C21233838   0.244   8.948   3.553
  253POPC  H12R33839   0.187   8.897   3.472
  253POPC  H12S33840   0.210   9.054   3.555
  253POPC  C21333841   0.207   8.881   3.687
  253POPC  H13R33842   0.227   8.772   3.681
  253POPC  H13S33843   0.098   8.893   3.705
  253POPC  C21433844   0.280   8.939   3.809
  253POPC  H14R33845   0.268   9.050   3.809
  253POPC  H14S33846   0.388   8.919   3.801
  253POPC  C21533847   0.226   8.879   3.939
  253POPC  H15R33848   0.240   8.769   3.933
  253POPC  H15S33849   0.115   8.892   3.944
  253POPC  C21633850   0.288   8.930   4.070
  253POPC  H16R33851   0.268   8.856   4.148
  253POPC  H16S33852   0.239   9.020   4.110
  253POPC  C21733853   0.437   8.960   4.074
  253POPC  H17R33854   0.464   9.028   3.990
  253POPC  H17S33855   0.492   8.865   4.062
  253POPC  C21833856   0.481   9.019   4.208
  253POPC  H18R33857   0.496   9.129   4.200
  253POPC  H18S33858   0.576   8.974   4.240
  253POPC  H18T33859   0.404   9.000   4.286
  253POPC   C3333860   0.618   8.757   2.994
  253POPC   H3X33861   0.722   8.797   2.990
  253POPC   H3Y33862   0.627   8.646   2.985
  253POPC   C3433863   0.559   8.789   3.132
  253POPC   H4X33864   0.448   8.779   3.125
  253POPC   H4Y33865   0.580   8.894   3.158
  253POPC   C3533866   0.608   8.697   3.245
  253POPC   H5X33867   0.575   8.595   3.221
  253POPC   H5Y33868   0.558   8.727   3.340
  253POPC   C3633869   0.760   8.689   3.270
  253POPC   H6X33870   0.786   8.765   3.347
  253POPC   H6Y33871   0.817   8.712   3.178
  253POPC   C3733872   0.806   8.552   3.325
  253POPC   H7X33873   0.913   8.557   3.354
  253POPC   H7Y33874   0.798   8.477   3.242
  253POPC   C3833875   0.721   8.501   3.443
  253POPC   H8X33876   0.747   8.397   3.469
  253POPC   H8Y33877   0.615   8.497   3.409
  253POPC   C3933878   0.725   8.589   3.569
  253POPC   H9X33879   0.644   8.555   3.637
  253POPC   H9Y33880   0.702   8.693   3.539
  253POPC  C31033881   0.858   8.585   3.647
  253POPC  H10X33882   0.940   8.617   3.581
  253POPC  H10Y33883   0.879   8.480   3.678
  253POPC  C31133884   0.855   8.673   3.773
  253POPC  H11X33885   0.952   8.671   3.826
  253POPC  H11Y33886   0.784   8.628   3.845
  253POPC  C31233887   0.813   8.819   3.748
  253POPC  H12X33888   0.709   8.821   3.708
  253POPC  H12Y33889   0.879   8.865   3.671
  253POPC  C31333890   0.817   8.908   3.872
  253POPC  H13X33891   0.923   8.926   3.900
  253POPC  H13Y33892   0.772   8.856   3.959
  253POPC  C31433893   0.743   9.041   3.850
  253POPC  H14X33894   0.643   9.021   3.805
  253POPC  H14Y33895   0.801   9.104   3.779
  253POPC  C31533896   0.724   9.118   3.981
  253POPC  H15X33897   0.824   9.136   4.021
  253POPC  H15Y33898   0.677   9.051   4.055
  253POPC  C31633899   0.648   9.250   3.971
  253POPC  H16X33900   0.684   9.309   3.884
  253POPC  H16Y33901   0.663   9.311   4.063
  253POPC  H16Z33902   0.538   9.232   3.959
  254POPC     N33903   8.521   0.280   2.183
  254POPC   C1233904   8.612   0.402   2.193
  254POPC  H12A33905   8.599   0.464   2.105
  254POPC  H12B33906   8.715   0.365   2.192
  254POPC   C1333907   8.576   0.169   2.269
  254POPC  H13A33908   8.528   0.073   2.254
  254POPC  H13B33909   8.683   0.154   2.246
  254POPC  H13C33910   8.579   0.198   2.374
  254POPC   C1433911   8.385   0.310   2.232
  254POPC  H14A33912   8.397   0.352   2.332
  254POPC  H14B33913   8.336   0.382   2.167
  254POPC  H14C33914   8.328   0.218   2.236
  254POPC   C1533915   8.523   0.228   2.043
  254POPC  H15A33916   8.473   0.132   2.037
  254POPC  H15B33917   8.626   0.207   2.014
  254POPC  H15C33918   8.481   0.298   1.971
  254POPC   C1133919   8.602   0.491   2.320
  254POPC  H11A33920   8.500   0.535   2.330
  254POPC  H11B33921   8.669   0.580   2.306
  254POPC     P33922   8.792   0.378   2.451
  254POPC   O1333923   8.872   0.500   2.432
  254POPC   O1433924   8.819   0.275   2.350
  254POPC   O1233925   8.636   0.415   2.436
  254POPC   O1133926   8.809   0.317   2.596
  254POPC    C133927   8.705   0.235   2.649
  254POPC    HA33928   8.753   0.165   2.719
  254POPC    HB33929   8.653   0.176   2.571
  254POPC    C233930   8.608   0.317   2.733
  254POPC    HS33931   8.563   0.394   2.664
  254POPC   O2133932   8.690   0.374   2.835
  254POPC   C2133933   8.662   0.498   2.862
  254POPC   O2233934   8.563   0.558   2.822
  254POPC   C2233935   8.766   0.546   2.962
  254POPC   H2R33936   8.797   0.648   2.934
  254POPC   H2S33937   8.856   0.481   2.955
  254POPC    C333938   8.493   0.233   2.795
  254POPC    HX33939   8.455   0.166   2.715
  254POPC    HY33940   8.408   0.301   2.822
  254POPC   O3133941   8.539   0.154   2.906
  254POPC   C3133942   8.525   0.211   3.027
  254POPC   O3233943   8.448   0.302   3.053
  254POPC   C3233944   8.629   0.153   3.123
  254POPC   H2X33945   8.723   0.200   3.090
  254POPC   H2Y33946   8.638   0.045   3.108
  254POPC   C2333947   8.707   0.538   3.103
  254POPC   H3R33948   8.691   0.432   3.130
  254POPC   H3S33949   8.607   0.588   3.106
  254POPC   C2433950   8.792   0.602   3.213
  254POPC   H4R33951   8.734   0.586   3.306
  254POPC   H4S33952   8.800   0.712   3.199
  254POPC   C2533953   8.932   0.540   3.224
  254POPC   H5R33954   8.997   0.577   3.142
  254POPC   H5S33955   8.922   0.430   3.211
  254POPC   C2633956   9.002   0.566   3.358
  254POPC   H6R33957   9.042   0.670   3.359
  254POPC   H6S33958   9.088   0.496   3.367
  254POPC   C2733959   8.912   0.550   3.481
  254POPC   H7R33960   8.866   0.448   3.483
  254POPC   H7S33961   8.830   0.625   3.478
  254POPC   C2833962   8.992   0.573   3.609
  254POPC   H8R33963   9.058   0.660   3.592
  254POPC   H8S33964   9.061   0.486   3.620
  254POPC   C2933965   8.907   0.599   3.730
  254POPC   H9133966   8.851   0.694   3.730
  254POPC  C21033967   8.896   0.517   3.836
  254POPC  H10133968   8.834   0.547   3.921
  254POPC  C21133969   8.967   0.385   3.852
  254POPC  H11R33970   9.016   0.384   3.951
  254POPC  H11S33971   9.048   0.371   3.778
  254POPC  C21233972   8.872   0.264   3.843
  254POPC  H12R33973   8.926   0.173   3.813
  254POPC  H12S33974   8.793   0.281   3.767
  254POPC  C21333975   8.817   0.232   3.981
  254POPC  H13R33976   8.778   0.327   4.024
  254POPC  H13S33977   8.903   0.200   4.046
  254POPC  C21433978   8.710   0.124   3.987
  254POPC  H14R33979   8.750   0.026   3.957
  254POPC  H14S33980   8.626   0.147   3.918
  254POPC  C21533981   8.655   0.121   4.129
  254POPC  H15R33982   8.629   0.227   4.147
  254POPC  H15S33983   8.728   0.095   4.207
  254POPC  C21633984   8.525   0.045   4.148
  254POPC  H16R33985   8.462   0.062   4.058
  254POPC  H16S33986   8.478   0.095   4.236
  254POPC  C21733987   8.532  -0.104   4.180
  254POPC  H17R33988   8.599  -0.118   4.265
  254POPC  H17S33989   8.572  -0.162   4.094
  254POPC  C21833990   8.398  -0.160   4.224
  254POPC  H18R33991   8.406  -0.264   4.262
  254POPC  H18S33992   8.327  -0.158   4.139
  254POPC  H18T33993   8.358  -0.099   4.307
  254POPC   C3333994   8.619   0.191   3.274
  254POPC   H3X33995   8.623   0.301   3.286
  254POPC   H3Y33996   8.711   0.149   3.323
  254POPC   C3433997   8.499   0.136   3.350
  254POPC   H4X33998   8.484   0.028   3.327
  254POPC   H4Y33999   8.407   0.190   3.317
  254POPC   C3534000   8.515   0.149   3.503
  254POPC   H5X34001   8.593   0.078   3.539
  254POPC   H5Y34002   8.418   0.118   3.549
  254POPC   C3634003   8.550   0.291   3.548
  254POPC   H6X34004   8.494   0.363   3.484
  254POPC   H6Y34005   8.658   0.311   3.533
  254POPC   C3734006   8.511   0.317   3.694
  254POPC   H7X34007   8.582   0.264   3.760
  254POPC   H7Y34008   8.410   0.275   3.712
  254POPC   C3834009   8.507   0.466   3.731
  254POPC   H8X34010   8.447   0.520   3.655
  254POPC   H8Y34011   8.609   0.509   3.729
  254POPC   C3934012   8.442   0.489   3.869
  254POPC   H9X34013   8.350   0.428   3.878
  254POPC   H9Y34014   8.413   0.596   3.878
  254POPC  C31034015   8.538   0.458   3.985
  254POPC  H10X34016   8.623   0.526   3.969
  254POPC  H10Y34017   8.574   0.354   3.973
  254POPC  C31134018   8.478   0.475   4.125
  254POPC  H11X34019   8.406   0.391   4.142
  254POPC  H11Y34020   8.420   0.569   4.128
  254POPC  C31234021   8.579   0.476   4.243
  254POPC  H12X34022   8.607   0.373   4.269
  254POPC  H12Y34023   8.526   0.514   4.333
  254POPC  C31334024   8.708   0.559   4.221
  254POPC  H13X34025   8.681   0.665   4.241
  254POPC  H13Y34026   8.744   0.555   4.117
  254POPC  C31434027   8.829   0.516   4.306
  254POPC  H14X34028   8.803   0.513   4.414
  254POPC  H14Y34029   8.909   0.593   4.295
  254POPC  C31534030   8.892   0.380   4.275
  254POPC  H15X34031   8.945   0.387   4.178
  254POPC  H15Y34032   8.813   0.302   4.265
  254POPC  C31634033   8.988   0.339   4.387
  254POPC  H16X34034   9.051   0.425   4.418
  254POPC  H16Y34035   9.055   0.258   4.353
  254POPC  H16Z34036   8.931   0.302   4.475
  255POPC     N34037   9.305   8.952   2.389
  255POPC   C1234038   9.245   8.970   2.249
  255POPC  H12A34039   9.297   8.906   2.179
  255POPC  H12B34040   9.266   9.071   2.213
  255POPC   C1334041   9.455   8.945   2.381
  255POPC  H13A34042   9.491   8.868   2.312
  255POPC  H13B34043   9.500   9.038   2.347
  255POPC  H13C34044   9.501   8.922   2.477
  255POPC   C1434045   9.265   9.065   2.479
  255POPC  H14A34046   9.308   9.056   2.577
  255POPC  H14B34047   9.293   9.160   2.434
  255POPC  H14C34048   9.157   9.071   2.491
  255POPC   C1534049   9.254   8.825   2.449
  255POPC  H15A34050   9.273   8.741   2.383
  255POPC  H15B34051   9.147   8.834   2.463
  255POPC  H15C34052   9.301   8.805   2.545
  255POPC   C1134053   9.092   8.946   2.225
  255POPC  H11A34054   9.068   8.839   2.243
  255POPC  H11B34055   9.067   8.964   2.118
  255POPC     P34056   8.994   9.181   2.299
  255POPC   O1334057   8.857   9.217   2.254
  255POPC   O1434058   9.109   9.234   2.220
  255POPC   O1234059   9.008   9.024   2.309
  255POPC   O1134060   9.015   9.207   2.453
  255POPC    C134061   8.916   9.167   2.550
  255POPC    HA34062   8.957   9.084   2.614
  255POPC    HB34063   8.821   9.130   2.505
  255POPC    C234064   8.881   9.285   2.645
  255POPC    HS34065   8.818   9.356   2.585
  255POPC   O2134066   9.000   9.350   2.692
  255POPC   C2134067   9.056   9.437   2.612
  255POPC   O2234068   9.022   9.469   2.500
  255POPC   C2234069   9.180   9.493   2.679
  255POPC   H2R34070   9.160   9.501   2.787
  255POPC   H2S34071   9.195   9.596   2.641
  255POPC    C334072   8.797   9.245   2.771
  255POPC    HX34073   8.836   9.148   2.811
  255POPC    HY34074   8.691   9.227   2.742
  255POPC   O3134075   8.804   9.352   2.868
  255POPC   C3134076   8.895   9.336   2.963
  255POPC   O3234077   8.930   9.229   3.009
  255POPC   C3234078   8.952   9.473   3.005
  255POPC   H2X34079   8.885   9.553   2.969
  255POPC   H2Y34080   9.047   9.486   2.950
  255POPC   C2334081   9.303   9.402   2.657
  255POPC   H3R34082   9.354   9.424   2.561
  255POPC   H3S34083   9.269   9.296   2.650
  255POPC   C2434084   9.402   9.413   2.772
  255POPC   H4R34085   9.404   9.517   2.811
  255POPC   H4S34086   9.504   9.387   2.738
  255POPC   C2534087   9.365   9.318   2.887
  255POPC   H5R34088   9.256   9.327   2.910
  255POPC   H5S34089   9.419   9.350   2.978
  255POPC   C2634090   9.398   9.171   2.855
  255POPC   H6R34091   9.481   9.166   2.782
  255POPC   H6S34092   9.309   9.124   2.808
  255POPC   C2734093   9.440   9.089   2.979
  255POPC   H7R34094   9.544   9.117   3.008
  255POPC   H7S34095   9.442   8.981   2.952
  255POPC   C2834096   9.348   9.110   3.100
  255POPC   H8R34097   9.354   9.215   3.136
  255POPC   H8S34098   9.385   9.047   3.183
  255POPC   C2934099   9.206   9.079   3.061
  255POPC   H9134100   9.157   9.154   2.997
  255POPC  C21034101   9.133   8.975   3.104
  255POPC  H10134102   9.028   8.966   3.071
  255POPC  C21134103   9.183   8.871   3.201
  255POPC  H11R34104   9.285   8.837   3.174
  255POPC  H11S34105   9.116   8.782   3.198
  255POPC  C21234106   9.181   8.932   3.342
  255POPC  H12R34107   9.075   8.961   3.360
  255POPC  H12S34108   9.241   9.026   3.345
  255POPC  C21334109   9.230   8.841   3.455
  255POPC  H13R34110   9.336   8.814   3.439
  255POPC  H13S34111   9.170   8.747   3.453
  255POPC  C21434112   9.214   8.907   3.594
  255POPC  H14R34113   9.287   8.990   3.604
  255POPC  H14S34114   9.233   8.832   3.673
  255POPC  C21534115   9.074   8.966   3.611
  255POPC  H15R34116   8.999   8.891   3.580
  255POPC  H15S34117   9.065   9.055   3.543
  255POPC  C21634118   9.036   9.018   3.750
  255POPC  H16R34119   9.106   9.098   3.782
  255POPC  H16S34120   9.041   8.936   3.825
  255POPC  C21734121   8.894   9.073   3.740
  255POPC  H17R34122   8.824   8.988   3.724
  255POPC  H17S34123   8.886   9.140   3.651
  255POPC  C21834124   8.852   9.151   3.863
  255POPC  H18R34125   8.912   9.243   3.875
  255POPC  H18S34126   8.867   9.088   3.953
  255POPC  H18T34127   8.745   9.179   3.857
  255POPC   C3334128   8.981   9.485   3.157
  255POPC   H3X34129   8.935   9.399   3.211
  255POPC   H3Y34130   8.932   9.576   3.197
  255POPC   C3434131   9.132   9.491   3.187
  255POPC   H4X34132   9.163   9.597   3.199
  255POPC   H4Y34133   9.187   9.450   3.100
  255POPC   C3534134   9.176   9.408   3.308
  255POPC   H5X34135   9.287   9.394   3.303
  255POPC   H5Y34136   9.130   9.306   3.300
  255POPC   C3634137   9.141   9.471   3.444
  255POPC   H6X34138   9.031   9.476   3.452
  255POPC   H6Y34139   9.180   9.575   3.448
  255POPC   C3734140   9.198   9.392   3.564
  255POPC   H7X34141   9.302   9.426   3.585
  255POPC   H7Y34142   9.200   9.283   3.541
  255POPC   C3834143   9.110   9.414   3.688
  255POPC   H8X34144   9.016   9.356   3.674
  255POPC   H8Y34145   9.083   9.522   3.687
  255POPC   C3934146   9.171   9.381   3.827
  255POPC   H9X34147   9.248   9.303   3.814
  255POPC   H9Y34148   9.091   9.340   3.893
  255POPC  C31034149   9.226   9.506   3.900
  255POPC  H10X34150   9.144   9.578   3.915
  255POPC  H10Y34151   9.298   9.552   3.828
  255POPC  C31134152   9.296   9.487   4.036
  255POPC  H11X34153   9.382   9.558   4.041
  255POPC  H11Y34154   9.342   9.390   4.036
  255POPC  C31234155   9.219   9.518   4.167
  255POPC  H12X34156   9.125   9.573   4.144
  255POPC  H12Y34157   9.284   9.590   4.223
  255POPC  C31334158   9.191   9.401   4.266
  255POPC  H13X34159   9.084   9.401   4.292
  255POPC  H13Y34160   9.246   9.421   4.361
  255POPC  C31434161   9.229   9.262   4.216
  255POPC  H14X34162   9.336   9.263   4.191
  255POPC  H14Y34163   9.172   9.241   4.123
  255POPC  C31534164   9.215   9.144   4.312
  255POPC  H15X34165   9.117   9.152   4.361
  255POPC  H15Y34166   9.291   9.149   4.394
  255POPC  C31634167   9.226   9.009   4.241
  255POPC  H16X34168   9.333   8.984   4.225
  255POPC  H16Y34169   9.175   9.012   4.142
  255POPC  H16Z34170   9.180   8.927   4.301
  256POPC     N34171   0.087   0.330   2.433
  256POPC   C1234172   0.207   0.239   2.406
  256POPC  H12A34173   0.203   0.153   2.470
  256POPC  H12B34174   0.298   0.294   2.435
  256POPC   C1334175  -0.040   0.264   2.388
  256POPC  H13A34176  -0.129   0.318   2.419
  256POPC  H13B34177  -0.039   0.261   2.278
  256POPC  H13C34178  -0.049   0.161   2.421
  256POPC   C1434179   0.083   0.363   2.579
  256POPC  H14A34180   0.070   0.273   2.638
  256POPC  H14B34181   0.175   0.411   2.610
  256POPC  H14C34182   0.000   0.429   2.601
  256POPC   C1534183   0.099   0.456   2.352
  256POPC  H15A34184   0.013   0.520   2.360
  256POPC  H15B34185   0.107   0.425   2.247
  256POPC  H15C34186   0.191   0.510   2.369
  256POPC   C1134187   0.232   0.190   2.261
  256POPC  H11A34188   0.145   0.133   2.226
  256POPC  H11B34189   0.317   0.118   2.259
  256POPC     P34190   0.389   0.386   2.185
  256POPC   O1334191   0.346   0.527   2.191
  256POPC   O1434192   0.483   0.345   2.078
  256POPC   O1234193   0.257   0.299   2.172
  256POPC   O1134194   0.444   0.340   2.328
  256POPC    C134195   0.552   0.251   2.352
  256POPC    HA34196   0.639   0.284   2.291
  256POPC    HB34197   0.528   0.146   2.323
  256POPC    C234198   0.598   0.253   2.503
  256POPC    HS34199   0.702   0.212   2.505
  256POPC   O2134200   0.512   0.174   2.589
  256POPC   C2134201   0.540   0.179   2.721
  256POPC   O2234202   0.642   0.223   2.770
  256POPC   C2234203   0.413   0.141   2.797
  256POPC   H2R34204   0.381   0.044   2.756
  256POPC   H2S34205   0.336   0.217   2.772
  256POPC    C334206   0.603   0.401   2.550
  256POPC    HX34207   0.636   0.460   2.460
  256POPC    HY34208   0.682   0.412   2.628
  256POPC   O3134209   0.473   0.446   2.600
  256POPC   C3134210   0.472   0.579   2.606
  256POPC   O3234211   0.568   0.650   2.581
  256POPC   C3234212   0.337   0.631   2.656
  256POPC   H2X34213   0.267   0.546   2.664
  256POPC   H2Y34214   0.299   0.702   2.579
  256POPC   C2334215   0.427   0.129   2.951
  256POPC   H3R34216   0.386   0.220   3.000
  256POPC   H3S34217   0.533   0.120   2.982
  256POPC   C2434218   0.354   0.003   3.001
  256POPC   H4R34219   0.427  -0.081   3.009
  256POPC   H4S34220   0.279  -0.027   2.925
  256POPC   C2534221   0.279   0.020   3.134
  256POPC   H5R34222   0.213  -0.068   3.152
  256POPC   H5S34223   0.214   0.109   3.127
  256POPC   C2634224   0.374   0.032   3.253
  256POPC   H6R34225   0.475   0.054   3.214
  256POPC   H6S34226   0.380  -0.065   3.306
  256POPC   C2734227   0.330   0.140   3.351
  256POPC   H7R34228   0.243   0.103   3.410
  256POPC   H7S34229   0.295   0.229   3.295
  256POPC   C2834230   0.442   0.183   3.446
  256POPC   H8R34231   0.472   0.098   3.511
  256POPC   H8S34232   0.398   0.260   3.512
  256POPC   C2934233   0.561   0.240   3.374
  256POPC   H9134234   0.639   0.167   3.348
  256POPC  C21034235   0.577   0.368   3.335
  256POPC  H10134236   0.668   0.396   3.279
  256POPC  C21134237   0.477   0.480   3.357
  256POPC  H11R34238   0.376   0.447   3.324
  256POPC  H11S34239   0.503   0.565   3.291
  256POPC  C21234240   0.466   0.531   3.502
  256POPC  H12R34241   0.422   0.451   3.565
  256POPC  H12S34242   0.397   0.618   3.505
  256POPC  C21334243   0.598   0.564   3.572
  256POPC  H13R34244   0.648   0.643   3.515
  256POPC  H13S34245   0.661   0.473   3.570
  256POPC  C21434246   0.585   0.608   3.718
  256POPC  H14R34247   0.500   0.679   3.726
  256POPC  H14S34248   0.677   0.662   3.749
  256POPC  C21534249   0.564   0.490   3.815
  256POPC  H15R34250   0.497   0.416   3.766
  256POPC  H15S34251   0.512   0.530   3.904
  256POPC  C21634252   0.692   0.419   3.863
  256POPC  H16R34253   0.762   0.496   3.902
  256POPC  H16S34254   0.740   0.367   3.777
  256POPC  C21734255   0.667   0.316   3.975
  256POPC  H17R34256   0.616   0.227   3.932
  256POPC  H17S34257   0.599   0.362   4.049
  256POPC  C21834258   0.793   0.270   4.048
  256POPC  H18R34259   0.765   0.216   4.141
  256POPC  H18S34260   0.855   0.357   4.078
  256POPC  H18T34261   0.854   0.202   3.985
  256POPC   C3334262   0.351   0.704   2.791
  256POPC   H3X34263   0.419   0.792   2.775
  256POPC   H3Y34264   0.400   0.637   2.865
  256POPC   C3434265   0.220   0.758   2.850
  256POPC   H4X34266   0.185   0.841   2.784
  256POPC   H4Y34267   0.243   0.803   2.949
  256POPC   C3534268   0.106   0.656   2.867
  256POPC   H5X34269   0.079   0.616   2.767
  256POPC   H5Y34270   0.016   0.710   2.905
  256POPC   C3634271   0.138   0.540   2.962
  256POPC   H6X34272   0.247   0.536   2.985
  256POPC   H6Y34273   0.112   0.444   2.912
  256POPC   C3734274   0.061   0.546   3.095
  256POPC   H7X34275   0.079   0.450   3.148
  256POPC   H7Y34276  -0.048   0.553   3.075
  256POPC   C3834277   0.104   0.662   3.187
  256POPC   H8X34278   0.085   0.758   3.134
  256POPC   H8Y34279   0.213   0.654   3.206
  256POPC   C3934280   0.030   0.664   3.322
  256POPC   H9X34281  -0.080   0.663   3.304
  256POPC   H9Y34282   0.054   0.759   3.375
  256POPC  C31034283   0.071   0.546   3.411
  256POPC  H10X34284   0.181   0.553   3.424
  256POPC  H10Y34285   0.049   0.450   3.360
  256POPC  C31134286   0.002   0.543   3.549
  256POPC  H11X34287  -0.107   0.545   3.532
  256POPC  H11Y34288   0.029   0.634   3.607
  256POPC  C31234289   0.037   0.418   3.630
  256POPC  H12X34290   0.004   0.328   3.574
  256POPC  H12Y34291  -0.017   0.419   3.727
  256POPC  C31334292   0.187   0.406   3.654
  256POPC  H13X34293   0.226   0.494   3.711
  256POPC  H13Y34294   0.233   0.405   3.553
  256POPC  C31434295   0.233   0.275   3.719
  256POPC  H14X34296   0.343   0.264   3.708
  256POPC  H14Y34297   0.185   0.190   3.665
  256POPC  C31534298   0.203   0.269   3.867
  256POPC  H15X34299   0.188   0.163   3.895
  256POPC  H15Y34300   0.111   0.326   3.890
  256POPC  C31634301   0.317   0.321   3.950
  256POPC  H16X34302   0.414   0.283   3.913
  256POPC  H16Y34303   0.307   0.289   4.056
  256POPC  H16Z34304   0.317   0.432   3.943
  257TIP3   OH234305   1.279   1.003   6.901
  257TIP3    H134306   1.284   1.101   6.911
  257TIP3    H234307   1.191   0.993   6.861
  258TIP3   OH234308   1.167   0.877   7.252
  258TIP3    H134309   1.165   0.854   7.348
  258TIP3    H234310   1.085   0.835   7.220
  259TIP3   OH234311   0.393   0.918   7.401
  259TIP3    H134312   0.378   0.836   7.451
  259TIP3    H234313   0.471   0.953   7.448
  260TIP3   OH234314   1.461   1.227   7.137
  260TIP3    H134315   1.467   1.154   7.201
  260TIP3    H234316   1.466   1.304   7.195
  261TIP3   OH234317   0.425   1.343   7.206
  261TIP3    H134318   0.416   1.248   7.184
  261TIP3    H234319   0.511   1.336   7.249
  262TIP3   OH234320   0.142   0.641   6.796
  262TIP3    H134321   0.154   0.737   6.808
  262TIP3    H234322   0.080   0.623   6.870
  263TIP3   OH234323   0.180   0.908   7.039
  263TIP3    H134324   0.230   0.827   7.066
  263TIP3    H234325   0.247   0.960   6.992
  264TIP3   OH234326   1.205   1.743   7.090
  264TIP3    H134327   1.277   1.695   7.042
  264TIP3    H234328   1.196   1.682   7.165
  265TIP3   OH234329   0.960   1.175   7.345
  265TIP3    H134330   1.004   1.158   7.260
  265TIP3    H234331   1.038   1.194   7.403
  266TIP3   OH234332   1.826   0.283   7.378
  266TIP3    H134333   1.828   0.357   7.442
  266TIP3    H234334   1.896   0.316   7.319
  267TIP3   OH234335   1.331   0.622   7.370
  267TIP3    H134336   1.343   0.528   7.393
  267TIP3    H234337   1.307   0.618   7.275
  268TIP3   OH234338   0.633   0.402   7.047
  268TIP3    H134339   0.639   0.483   6.993
  268TIP3    H234340   0.591   0.340   6.985
  269TIP3   OH234341   1.386   0.478   6.861
  269TIP3    H134342   1.397   0.457   6.956
  269TIP3    H234343   1.472   0.442   6.832
  270TIP3   OH234344   0.286   0.678   7.114
  270TIP3    H134345   0.355   0.640   7.172
  270TIP3    H234346   0.304   0.627   7.033
  271TIP3   OH234347   0.744   0.825   7.076
  271TIP3    H134348   0.836   0.793   7.091
  271TIP3    H234349   0.706   0.747   7.030
  272TIP3   OH234350   1.848   0.462   7.587
  272TIP3    H134351   1.799   0.543   7.564
  272TIP3    H234352   1.850   0.468   7.684
  273TIP3   OH234353   0.515   0.337   7.455
  273TIP3    H134354   0.496   0.387   7.372
  273TIP3    H234355   0.452   0.380   7.515
  274TIP3   OH234356   1.209   1.280   6.821
  274TIP3    H134357   1.191   1.303   6.727
  274TIP3    H234358   1.173   1.360   6.863
  275TIP3   OH234359   0.727   1.097   7.451
  275TIP3    H134360   0.668   1.172   7.475
  275TIP3    H234361   0.803   1.144   7.411
  276TIP3   OH234362   1.512   0.400   7.100
  276TIP3    H134363   1.483   0.384   7.191
  276TIP3    H234364   1.608   0.404   7.110
  277TIP3   OH234365   0.467   0.531   7.249
  277TIP3    H134366   0.543   0.580   7.289
  277TIP3    H234367   0.514   0.471   7.187
  278TIP3   OH234368   0.579   1.302   7.546
  278TIP3    H134369   0.585   1.397   7.526
  278TIP3    H234370   0.489   1.293   7.581
  279TIP3   OH234371   0.206   1.225   6.659
  279TIP3    H134372   0.247   1.300   6.614
  279TIP3    H234373   0.201   1.260   6.749
  280TIP3   OH234374   1.544   1.416   7.343
  280TIP3    H134375   1.451   1.442   7.360
  280TIP3    H234376   1.571   1.495   7.293
  281TIP3   OH234377   1.607   0.222   7.524
  281TIP3    H134378   1.532   0.256   7.474
  281TIP3    H234379   1.676   0.228   7.453
  282TIP3   OH234380   0.886   0.107   7.177
  282TIP3    H134381   0.921   0.036   7.233
  282TIP3    H234382   0.809   0.142   7.230
  283TIP3   OH234383   1.402   1.582   7.004
  283TIP3    H134384   1.408   1.522   6.927
  283TIP3    H234385   1.476   1.644   6.980
  284TIP3   OH234386   1.518   1.388   6.837
  284TIP3    H134387   1.500   1.324   6.765
  284TIP3    H234388   1.488   1.336   6.913
  285TIP3   OH234389   1.650   1.244   7.706
  285TIP3    H134390   1.666   1.173   7.639
  285TIP3    H234391   1.663   1.322   7.649
  286TIP3   OH234392   1.153   0.989   6.659
  286TIP3    H134393   1.068   1.038   6.647
  286TIP3    H234394   1.208   1.064   6.691
  287TIP3   OH234395   1.160   0.779   6.350
  287TIP3    H134396   1.185   0.821   6.433
  287TIP3    H234397   1.137   0.689   6.375
  288TIP3   OH234398   1.853   0.893   7.487
  288TIP3    H134399   1.784   0.961   7.474
  288TIP3    H234400   1.916   0.923   7.418
  289TIP3   OH234401   1.488   0.884   6.745
  289TIP3    H134402   1.420   0.938   6.791
  289TIP3    H234403   1.548   0.864   6.821
  290TIP3   OH234404   1.454   0.777   7.699
  290TIP3    H134405   1.473   0.870   7.718
  290TIP3    H234406   1.375   0.787   7.644
  291TIP3   OH234407   0.634   1.016   6.939
  291TIP3    H134408   0.580   0.964   6.876
  291TIP3    H234409   0.691   0.945   6.978
  292TIP3   OH234410   0.762   1.354   7.215
  292TIP3    H134411   0.771   1.337   7.120
  292TIP3    H234412   0.826   1.293   7.256
  293TIP3   OH234413   0.649   0.888   7.312
  293TIP3    H134414   0.686   0.883   7.221
  293TIP3    H234415   0.695   0.966   7.351
  294TIP3   OH234416   1.289   1.456   7.398
  294TIP3    H134417   1.256   1.512   7.470
  294TIP3    H234418   1.279   1.366   7.436
  295TIP3   OH234419   0.722   1.327   7.779
  295TIP3    H134420   0.654   1.377   7.830
  295TIP3    H234421   0.675   1.309   7.694
  296TIP3   OH234422   0.448   0.975   7.675
  296TIP3    H134423   0.460   1.030   7.754
  296TIP3    H234424   0.355   0.949   7.689
  297TIP3   OH234425   1.114   1.561   6.835
  297TIP3    H134426   1.101   1.578   6.929
  297TIP3    H234427   1.063   1.632   6.792
  298TIP3   OH234428   0.558   1.516   7.886
  298TIP3    H134429   0.537   1.541   7.794
  298TIP3    H234430   0.467   1.500   7.919
  299TIP3   OH234431   1.716   0.121   6.579
  299TIP3    H134432   1.620   0.115   6.558
  299TIP3    H234433   1.752   0.120   6.488
  300TIP3   OH234434   0.470   0.905   6.743
  300TIP3    H134435   0.457   0.975   6.675
  300TIP3    H234436   0.466   0.823   6.692
  301TIP3   OH234437   0.146   1.146   7.656
  301TIP3    H134438   0.114   1.139   7.565
  301TIP3    H234439   0.132   1.054   7.691
  302TIP3   OH234440   0.152   1.441   7.234
  302TIP3    H134441   0.232   1.387   7.216
  302TIP3    H234442   0.185   1.498   7.307
  303TIP3   OH234443   1.908   1.509   7.859
  303TIP3    H134444   1.899   1.412   7.865
  303TIP3    H234445   1.823   1.534   7.904
  304TIP3   OH234446   0.971   1.449   7.770
  304TIP3    H134447   1.001   1.513   7.838
  304TIP3    H234448   0.878   1.431   7.792
  305TIP3   OH234449   1.058   1.840   6.680
  305TIP3    H134450   1.041   1.867   6.588
  305TIP3    H234451   1.060   1.925   6.729
  306TIP3   OH234452   0.424   1.709   6.919
  306TIP3    H134453   0.448   1.673   7.008
  306TIP3    H234454   0.338   1.667   6.902
  307TIP3   OH234455   1.322   1.775   6.709
  307TIP3    H134456   1.224   1.786   6.707
  307TIP3    H234457   1.326   1.679   6.716
  308TIP3   OH234458   1.609   0.644   7.892
  308TIP3    H134459   1.569   0.691   7.816
  308TIP3    H234460   1.617   0.552   7.857
  309TIP3   OH234461   0.333   1.317   7.724
  309TIP3    H134462   0.367   1.248   7.784
  309TIP3    H234463   0.252   1.269   7.692
  310TIP3   OH234464   0.663   0.181   7.301
  310TIP3    H134465   0.588   0.163   7.241
  310TIP3    H234466   0.614   0.225   7.373
  311TIP3   OH234467   1.078   0.108   7.582
  311TIP3    H134468   1.115   0.079   7.666
  311TIP3    H234469   0.982   0.113   7.599
  312TIP3   OH234470   1.369   0.521   7.722
  312TIP3    H134471   1.310   0.495   7.798
  312TIP3    H234472   1.402   0.609   7.750
  313TIP3   OH234473   0.631   0.654   7.429
  313TIP3    H134474   0.548   0.667   7.479
  313TIP3    H234475   0.643   0.744   7.390
  314TIP3   OH234476   0.614   0.641   6.917
  314TIP3    H134477   0.517   0.641   6.902
  314TIP3    H234478   0.648   0.612   6.830
  315TIP3   OH234479   1.164   0.701   6.678
  315TIP3    H134480   1.143   0.797   6.668
  315TIP3    H234481   1.241   0.705   6.736
  316TIP3   OH234482   1.088   0.754   7.922
  316TIP3    H134483   1.040   0.674   7.953
  316TIP3    H234484   1.170   0.748   7.974
  317TIP3   OH234485   1.290   0.678   7.094
  317TIP3    H134486   1.268   0.766   7.057
  317TIP3    H234487   1.294   0.625   7.014
  318TIP3   OH234488   0.368   0.648   7.556
  318TIP3    H134489   0.408   0.675   7.640
  318TIP3    H234490   0.337   0.557   7.576
  319TIP3   OH234491   0.064   0.414   6.987
  319TIP3    H134492   0.100   0.405   7.077
  319TIP3    H234493   0.123   0.359   6.934
  320TIP3   OH234494   0.121   0.465   6.537
  320TIP3    H134495   0.188   0.427   6.478
  320TIP3    H234496   0.175   0.510   6.604
  321TIP3   OH234497   1.192   0.807   7.512
  321TIP3    H134498   1.252   0.741   7.471
  321TIP3    H234499   1.135   0.749   7.569
  322TIP3   OH234500   0.930   0.395   7.002
  322TIP3    H134501   0.843   0.367   7.036
  322TIP3    H234502   0.991   0.367   7.075
  323TIP3   OH234503   0.365   0.527   6.909
  323TIP3    H134504   0.291   0.528   6.846
  323TIP3    H234505   0.410   0.441   6.889
  324TIP3   OH234506   0.695   0.580   6.654
  324TIP3    H134507   0.780   0.540   6.682
  324TIP3    H234508   0.729   0.658   6.610
  325TIP3   OH234509   1.346   0.313   7.319
  325TIP3    H134510   1.273   0.313   7.383
  325TIP3    H234511   1.306   0.274   7.239
  326TIP3   OH234512   1.620   1.906   7.981
  326TIP3    H134513   1.647   1.937   7.893
  326TIP3    H234514   1.702   1.928   8.031
  327TIP3   OH234515   0.416   1.135   7.906
  327TIP3    H134516   0.471   1.146   7.986
  327TIP3    H234517   0.326   1.140   7.945
  328TIP3   OH234518   0.960   0.701   7.171
  328TIP3    H134519   1.049   0.663   7.163
  328TIP3    H234520   0.913   0.634   7.223
  329TIP3   OH234521   0.488   0.298   6.835
  329TIP3    H134522   0.434   0.227   6.878
  329TIP3    H234523   0.530   0.249   6.762
  330TIP3   OH234524   0.849   0.510   7.429
  330TIP3    H134525   0.773   0.572   7.435
  330TIP3    H234526   0.919   0.556   7.477
  331TIP3   OH234527   0.932   1.131   6.668
  331TIP3    H134528   0.856   1.147   6.611
  331TIP3    H234529   0.908   1.183   6.748
  332TIP3   OH234530   1.673   1.095   7.493
  332TIP3    H134531   1.723   1.154   7.431
  332TIP3    H234532   1.587   1.093   7.449
  333TIP3   OH234533   1.217   0.442   6.440
  333TIP3    H134534   1.173   0.490   6.511
  333TIP3    H234535   1.310   0.468   6.446
  334TIP3   OH234536   1.035   1.191   7.720
  334TIP3    H134537   1.026   1.159   7.810
  334TIP3    H234538   1.004   1.283   7.729
  335TIP3   OH234539   0.480   1.083   7.160
  335TIP3    H134540   0.530   1.064   7.077
  335TIP3    H234541   0.494   1.003   7.213
  336TIP3   OH234542   1.144   1.309   6.562
  336TIP3    H134543   1.095   1.395   6.555
  336TIP3    H234544   1.091   1.247   6.509
  337TIP3   OH234545   0.124   0.896   7.721
  337TIP3    H134546   0.154   0.830   7.786
  337TIP3    H234547   0.099   0.846   7.641
  338TIP3   OH234548   0.818   0.879   7.887
  338TIP3    H134549   0.773   0.823   7.823
  338TIP3    H234550   0.908   0.839   7.890
  339TIP3   OH234551   1.330   1.406   7.753
  339TIP3    H134552   1.252   1.415   7.698
  339TIP3    H234553   1.300   1.452   7.835
  340TIP3   OH234554   1.897   1.232   7.824
  340TIP3    H134555   1.810   1.242   7.779
  340TIP3    H234556   1.956   1.224   7.745
  341TIP3   OH234557   1.712   1.481   6.621
  341TIP3    H134558   1.654   1.484   6.699
  341TIP3    H234559   1.719   1.385   6.613
  342TIP3   OH234560   1.434   1.008   7.311
  342TIP3    H134561   1.344   0.978   7.293
  342TIP3    H234562   1.485   0.939   7.264
  343TIP3   OH234563   0.674   1.441   6.922
  343TIP3    H134564   0.702   1.525   6.881
  343TIP3    H234565   0.578   1.446   6.919
  344TIP3   OH234566   0.822   1.212   6.892
  344TIP3    H134567   0.767   1.293   6.898
  344TIP3    H234568   0.763   1.142   6.927
  345TIP3   OH234569   0.858   1.611   7.567
  345TIP3    H134570   0.926   1.674   7.537
  345TIP3    H234571   0.910   1.562   7.634
  346TIP3   OH234572   0.676   1.705   6.811
  346TIP3    H134573   0.584   1.711   6.842
  346TIP3    H234574   0.714   1.784   6.856
  347TIP3   OH234575   1.188   1.198   7.485
  347TIP3    H134576   1.144   1.180   7.572
  347TIP3    H234577   1.233   1.115   7.464
  348TIP3   OH234578   1.445   1.319   6.410
  348TIP3    H134579   1.429   1.266   6.489
  348TIP3    H234580   1.360   1.317   6.363
  349TIP3   OH234581   1.487   1.660   7.734
  349TIP3    H134582   1.404   1.614   7.709
  349TIP3    H234583   1.503   1.721   7.658
  350TIP3   OH234584   0.305   0.397   7.651
  350TIP3    H134585   0.280   0.421   7.742
  350TIP3    H234586   0.307   0.300   7.660
  351TIP3   OH234587   1.520   1.163   6.637
  351TIP3    H134588   1.509   1.068   6.654
  351TIP3    H234589   1.617   1.165   6.620
  352TIP3   OH234590   0.265   1.567   7.478
  352TIP3    H134591   0.345   1.529   7.516
  352TIP3    H234592   0.223   1.613   7.553
  353TIP3   OH234593   0.723   1.384   6.480
  353TIP3    H134594   0.797   1.393   6.414
  353TIP3    H234595   0.730   1.470   6.525
  354TIP3   OH234596   0.426   1.097   6.536
  354TIP3    H134597   0.337   1.124   6.568
  354TIP3    H234598   0.454   1.178   6.489
  355TIP3   OH234599   1.171   0.365   7.592
  355TIP3    H134600   1.227   0.385   7.669
  355TIP3    H234601   1.145   0.273   7.606
  356TIP3   OH234602   1.275   0.284   6.708
  356TIP3    H134603   1.274   0.335   6.626
  356TIP3    H234604   1.317   0.347   6.771
  357TIP3   OH234605   1.030   1.559   6.532
  357TIP3    H134606   0.944   1.600   6.553
  357TIP3    H234607   1.034   1.575   6.436
  358TIP3   OH234608   0.942   0.534   6.742
  358TIP3    H134609   1.024   0.588   6.743
  358TIP3    H234610   0.944   0.484   6.827
  359TIP3   OH234611   1.057   0.635   7.672
  359TIP3    H134612   1.066   0.657   7.767
  359TIP3    H234613   1.089   0.544   7.664
  360TIP3   OH234614   1.022   0.215   6.822
  360TIP3    H134615   1.009   0.281   6.894
  360TIP3    H234616   1.118   0.223   6.802
  361TIP3   OH234617   0.757   1.647   6.554
  361TIP3    H134618   0.767   1.730   6.504
  361TIP3    H234619   0.723   1.680   6.639
  362TIP3   OH234620   0.635   0.325   6.545
  362TIP3    H134621   0.625   0.414   6.585
  362TIP3    H234622   0.732   0.307   6.551
  363TIP3   OH234623   1.627   0.407   7.756
  363TIP3    H134624   1.530   0.413   7.747
  363TIP3    H234625   1.652   0.363   7.673
  364TIP3   OH234626   1.544   0.777   7.174
  364TIP3    H134627   1.459   0.729   7.166
  364TIP3    H234628   1.605   0.712   7.216
  365TIP3   OH234629   0.450   1.357   6.433
  365TIP3    H134630   0.504   1.362   6.514
  365TIP3    H234631   0.522   1.354   6.368
  366TIP3   OH234632   1.599   1.692   7.315
  366TIP3    H134633   1.600   1.759   7.244
  366TIP3    H234634   1.695   1.691   7.337
  367TIP3   OH234635   0.411   0.154   7.181
  367TIP3    H134636   0.382   0.137   7.088
  367TIP3    H234637   0.374   0.073   7.225
  368TIP3   OH234638   0.247   1.486   6.795
  368TIP3    H134639   0.168   1.540   6.806
  368TIP3    H234640   0.291   1.538   6.725
  369TIP3   OH234641   0.178   1.820   7.982
  369TIP3    H134642   0.229   1.793   8.061
  369TIP3    H234643   0.146   1.735   7.949
  370TIP3   OH234644   0.695   1.631   8.146
  370TIP3    H134645   0.786   1.612   8.118
  370TIP3    H234646   0.644   1.589   8.074
  371TIP3   OH234647   1.261   1.515   7.990
  371TIP3    H134648   1.230   1.431   8.033
  371TIP3    H234649   1.354   1.518   8.023
  372TIP3   OH234650   0.160   1.163   8.008
  372TIP3    H134651   0.159   1.071   8.039
  372TIP3    H234652   0.065   1.180   7.998
  373TIP3   OH234653   0.832   1.138   7.935
  373TIP3    H134654   0.801   1.199   7.864
  373TIP3    H234655   0.819   1.048   7.897
  374TIP3   OH234656   1.402   1.120   7.748
  374TIP3    H134657   1.494   1.154   7.749
  374TIP3    H234658   1.357   1.204   7.770
  375TIP3   OH234659   0.267   0.836   7.984
  375TIP3    H134660   0.300   0.750   8.016
  375TIP3    H234661   0.276   0.890   8.065
  376TIP3   OH234662   0.615   0.769   7.675
  376TIP3    H134663   0.563   0.851   7.678
  376TIP3    H234664   0.691   0.798   7.621
  377TIP3   OH234665   1.174   1.033   8.066
  377TIP3    H134666   1.227   0.984   8.001
  377TIP3    H234667   1.139   0.964   8.125
  378TIP3   OH234668   0.727   0.551   7.788
  378TIP3    H134669   0.744   0.489   7.714
  378TIP3    H234670   0.707   0.633   7.738
  379TIP3   OH234671   0.752   0.331   7.592
  379TIP3    H134672   0.783   0.382   7.513
  379TIP3    H234673   0.656   0.322   7.574
  380TIP3   OH234674   0.856   0.893   7.578
  380TIP3    H134675   0.949   0.917   7.584
  380TIP3    H234676   0.816   0.975   7.541
  381TIP3   OH234677   1.274   0.653   8.107
  381TIP3    H134678   1.277   0.555   8.119
  381TIP3    H234679   1.368   0.675   8.098
  382TIP3   OH234680   1.471   0.959   7.956
  382TIP3    H134681   1.435   1.012   7.882
  382TIP3    H234682   1.565   0.947   7.931
  383TIP3   OH234683   0.538   0.633   8.023
  383TIP3    H134684   0.466   0.567   8.017
  383TIP3    H234685   0.591   0.613   7.945
  384TIP3   OH234686   0.813   0.081   7.610
  384TIP3    H134687   0.809   0.180   7.621
  384TIP3    H234688   0.741   0.071   7.547
  385TIP3   OH234689   0.945   0.527   7.989
  385TIP3    H134690   0.931   0.493   8.079
  385TIP3    H234691   0.866   0.494   7.942
  386TIP3   OH234692   1.204   0.432   7.905
  386TIP3    H134693   1.114   0.427   7.942
  386TIP3    H234694   1.256   0.379   7.972
  387TIP3   OH234695   1.354   0.297   8.071
  387TIP3    H134696   1.377   0.202   8.061
  387TIP3    H234697   1.345   0.308   8.169
  388TIP3   OH234698   0.352   0.414   7.995
  388TIP3    H134699   0.346   0.329   7.947
  388TIP3    H234700   0.341   0.386   8.088
  389TIP3   OH234701   0.767   9.368   7.868
  389TIP3    H134702   0.848   9.323   7.898
  389TIP3    H234703   0.792   9.386   7.774
  390TIP3   OH234704   0.864   0.213   8.053
  390TIP3    H134705   0.825   0.146   7.994
  390TIP3    H234706   0.788   0.266   8.082
  391TIP3   OH234707   0.295   1.243   6.249
  391TIP3    H134708   0.343   1.294   6.318
  391TIP3    H234709   0.255   1.316   6.196
  392TIP3   OH234710   0.092   1.879   6.876
  392TIP3    H134711   0.025   1.828   6.826
  392TIP3    H234712   0.119   1.811   6.941
  393TIP3   OH234713   0.141   1.680   7.056
  393TIP3    H134714   0.101   1.596   7.083
  393TIP3    H234715   0.194   1.703   7.136
  394TIP3   OH234716   1.881   1.754   7.321
  394TIP3    H134717   1.909   1.749   7.414
  394TIP3    H234718   1.932   1.831   7.293
  395TIP3   OH234719   1.836   1.710   7.641
  395TIP3    H134720   1.801   1.632   7.592
  395TIP3    H234721   1.861   1.667   7.725
  396TIP3   OH234722   1.714   1.289   8.128
  396TIP3    H134723   1.625   1.298   8.170
  396TIP3    H234724   1.755   1.374   8.157
  397TIP3   OH234725   1.792   1.174   6.641
  397TIP3    H134726   1.887   1.198   6.633
  397TIP3    H234727   1.797   1.099   6.703
  398TIP3   OH234728   1.851   0.959   6.839
  398TIP3    H134729   1.779   0.906   6.878
  398TIP3    H234730   1.917   0.956   6.911
  399TIP3   OH234731   1.829   1.207   7.318
  399TIP3    H134732   1.894   1.139   7.291
  399TIP3    H234733   1.868   1.289   7.280
  400TIP3   OH234734   1.698   1.486   7.561
  400TIP3    H134735   1.619   1.514   7.610
  400TIP3    H234736   1.657   1.462   7.474
  401TIP3   OH234737   1.666   0.781   6.929
  401TIP3    H134738   1.644   0.688   6.913
  401TIP3    H234739   1.634   0.793   7.021
  402TIP3   OH234740   0.169   1.011   7.288
  402TIP3    H134741   0.161   0.983   7.194
  402TIP3    H234742   0.261   0.985   7.313
  403TIP3   OH234743   1.740   0.976   7.874
  403TIP3    H134744   1.794   0.893   7.878
  403TIP3    H234745   1.805   1.044   7.847
  404TIP3   OH234746   1.847   0.745   7.949
  404TIP3    H134747   1.759   0.705   7.929
  404TIP3    H234748   1.911   0.671   7.933
  405TIP3   OH234749   1.706   0.589   7.289
  405TIP3    H134750   1.804   0.603   7.298
  405TIP3    H234751   1.679   0.600   7.381
  406TIP3   OH234752   1.683   0.673   7.547
  406TIP3    H134753   1.590   0.697   7.559
  406TIP3    H234754   1.729   0.759   7.542
  407TIP3   OH234755   0.127   0.554   7.951
  407TIP3    H134756   0.207   0.503   7.972
  407TIP3    H234757   0.057   0.486   7.950
  408TIP3   OH234758   1.883   0.123   8.082
  408TIP3    H134759   1.939   0.056   8.040
  408TIP3    H234760   1.879   0.191   8.012
  409TIP3   OH234761   1.606   0.267   6.792
  409TIP3    H134762   1.684   0.250   6.849
  409TIP3    H234763   1.613   0.197   6.724
  410TIP3   OH234764   0.194   0.332   7.231
  410TIP3    H134765   0.260   0.260   7.232
  410TIP3    H234766   0.251   0.410   7.233
  411TIP3   OH234767   0.110   0.636   7.312
  411TIP3    H134768   0.173   0.641   7.238
  411TIP3    H234769   0.104   0.729   7.338
  412TIP3   OH234770   1.864   0.313   7.888
  412TIP3    H134771   1.776   0.350   7.912
  412TIP3    H234772   1.835   0.242   7.828
  413TIP3   OH234773   1.837   0.286   6.343
  413TIP3    H134774   1.864   0.193   6.337
  413TIP3    H234775   1.921   0.327   6.370
  414TIP3   OH234776   0.077   0.253   6.691
  414TIP3    H134777  -0.018   0.246   6.715
  414TIP3    H234778   0.074   0.323   6.623
  415TIP3   OH234779   1.557   1.777   6.925
  415TIP3    H134780   1.619   1.775   6.850
  415TIP3    H234781   1.604   1.828   6.994
  416TIP3   OH234782   0.108   0.135   7.522
  416TIP3    H134783   0.078   0.147   7.613
  416TIP3    H234784   0.054   0.202   7.477
  417TIP3   OH234785   0.311   1.433   7.968
  417TIP3    H134786   0.304   1.405   7.875
  417TIP3    H234787   0.266   1.357   8.008
  418TIP3   OH234788   0.592   1.582   7.611
  418TIP3    H134789   0.588   1.677   7.583
  418TIP3    H234790   0.689   1.570   7.611
  419TIP3   OH234791   1.008   1.705   7.875
  419TIP3    H134792   1.011   1.697   7.972
  419TIP3    H234793   1.099   1.739   7.857
  420TIP3   OH234794   1.227   1.857   7.842
  420TIP3    H134795   1.309   1.824   7.803
  420TIP3    H234796   1.260   1.918   7.912
  421TIP3   OH234797   1.789   0.100   7.715
  421TIP3    H134798   1.719   0.141   7.661
  421TIP3    H234799   1.803   0.013   7.670
  422TIP3   OH234800   0.324   1.895   7.586
  422TIP3    H134801   0.241   1.931   7.547
  422TIP3    H234802   0.293   1.878   7.677
  423TIP3   OH234803   0.587   1.847   7.489
  423TIP3    H134804   0.499   1.870   7.528
  423TIP3    H234805   0.592   1.912   7.416
  424TIP3   OH234806   1.036   1.812   7.424
  424TIP3    H134807   0.963   1.855   7.377
  424TIP3    H234808   1.065   1.883   7.485
  425TIP3   OH234809   1.255   1.674   7.558
  425TIP3    H134810   1.183   1.710   7.501
  425TIP3    H234811   1.326   1.736   7.534
  426TIP3   OH234812   1.522   1.837   7.530
  426TIP3    H134813   1.539   1.928   7.500
  426TIP3    H234814   1.543   1.790   7.446
  427TIP3   OH234815   0.298   1.748   7.275
  427TIP3    H134816   0.281   1.688   7.351
  427TIP3    H234817   0.385   1.710   7.245
  428TIP3   OH234818   0.502   1.619   7.165
  428TIP3    H134819   0.494   1.523   7.184
  428TIP3    H234820   0.589   1.638   7.206
  429TIP3   OH234821   0.733   1.648   7.291
  429TIP3    H134822   0.772   1.559   7.284
  429TIP3    H234823   0.752   1.669   7.384
  430TIP3   OH234824   1.117   0.255   7.143
  430TIP3    H134825   1.041   0.194   7.148
  430TIP3    H234826   1.186   0.199   7.103
  431TIP3   OH234827   1.608   0.081   7.143
  431TIP3    H134828   1.668   0.130   7.083
  431TIP3    H234829   1.520   0.105   7.108
  432TIP3   OH234830   1.801   0.162   6.964
  432TIP3    H134831   1.849   0.093   6.914
  432TIP3    H234832   1.869   0.231   6.975
  433TIP3   OH234833   0.336   0.104   6.930
  433TIP3    H134834   0.269   0.096   6.861
  433TIP3    H234835   0.389   0.022   6.914
  434TIP3   OH234836   0.266   0.073   6.537
  434TIP3    H134837   0.322   0.119   6.469
  434TIP3    H234838   0.206   0.142   6.570
  435TIP3   OH234839   0.777   0.064   6.936
  435TIP3    H134840   0.849   0.117   6.897
  435TIP3    H234841   0.800   0.067   7.031
  436TIP3   OH234842   1.342   0.116   7.050
  436TIP3    H134843   1.349   0.103   6.954
  436TIP3    H234844   1.310   0.029   7.081
  437TIP3   OH234845   1.446   0.131   6.568
  437TIP3    H134846   1.389   0.170   6.636
  437TIP3    H234847   1.442   0.036   6.591
  438TIP3   OH234848   0.248   1.725   6.615
  438TIP3    H134849   0.156   1.722   6.587
  438TIP3    H234850   0.278   1.808   6.570
  439TIP3   OH234851   0.426   0.244   6.390
  439TIP3    H134852   0.460   0.221   6.301
  439TIP3    H234853   0.507   0.279   6.432
  440TIP3   OH234854   0.896   0.287   6.592
  440TIP3    H134855   0.933   0.236   6.667
  440TIP3    H234856   0.927   0.376   6.613
  441TIP3   OH234857   1.737   1.744   6.730
  441TIP3    H134858   1.755   1.668   6.671
  441TIP3    H234859   1.793   1.815   6.696
  442TIP3   OH234860   0.298   0.167   7.861
  442TIP3    H134861   0.240   0.090   7.884
  442TIP3    H234862   0.382   0.137   7.899
  443TIP3   OH234863   0.518   0.101   8.067
  443TIP3    H134864   0.608   0.114   8.034
  443TIP3    H234865   0.513   0.004   8.066
  444TIP3   OH234866   1.409   9.365   8.035
  444TIP3    H134867   1.383   9.306   8.107
  444TIP3    H234868   1.500   9.335   8.018
  445TIP3   OH234869   1.675   1.626   7.921
  445TIP3    H134870   1.594   1.612   7.867
  445TIP3    H234871   1.670   1.722   7.937
  446TIP3   OH234872   3.149   1.010   6.919
  446TIP3    H134873   3.136   1.099   6.957
  446TIP3    H234874   3.068   1.000   6.866
  447TIP3   OH234875   3.028   0.895   7.253
  447TIP3    H134876   3.021   0.855   7.342
  447TIP3    H234877   2.961   0.845   7.200
  448TIP3   OH234878   2.220   0.894   7.398
  448TIP3    H134879   2.216   0.812   7.452
  448TIP3    H234880   2.286   0.945   7.447
  449TIP3   OH234881   3.345   1.222   7.110
  449TIP3    H134882   3.335   1.155   7.179
  449TIP3    H234883   3.366   1.300   7.164
  450TIP3   OH234884   2.342   1.373   7.231
  450TIP3    H134885   2.309   1.282   7.221
  450TIP3    H234886   2.438   1.351   7.227
  451TIP3   OH234887   2.016   0.667   6.786
  451TIP3    H134888   2.014   0.760   6.759
  451TIP3    H234889   1.954   0.668   6.860
  452TIP3   OH234890   2.030   0.911   7.032
  452TIP3    H134891   2.070   0.823   7.049
  452TIP3    H234892   2.107   0.969   7.022
  453TIP3   OH234893   3.110   1.757   7.096
  453TIP3    H134894   3.176   1.695   7.057
  453TIP3    H234895   3.070   1.696   7.159
  454TIP3   OH234896   2.837   1.211   7.348
  454TIP3    H134897   2.856   1.151   7.275
  454TIP3    H234898   2.926   1.220   7.388
  455TIP3   OH234899   3.715   0.297   7.372
  455TIP3    H134900   3.719   0.367   7.440
  455TIP3    H234901   3.782   0.333   7.312
  456TIP3   OH234902   3.214   0.623   7.376
  456TIP3    H134903   3.233   0.530   7.396
  456TIP3    H234904   3.182   0.617   7.284
  457TIP3   OH234905   2.502   0.415   7.034
  457TIP3    H134906   2.520   0.498   6.984
  457TIP3    H234907   2.450   0.365   6.968
  458TIP3   OH234908   3.263   0.497   6.909
  458TIP3    H134909   3.296   0.450   6.989
  458TIP3    H234910   3.337   0.479   6.848
  459TIP3   OH234911   2.141   0.684   7.113
  459TIP3    H134912   2.206   0.651   7.177
  459TIP3    H234913   2.180   0.648   7.030
  460TIP3   OH234914   2.611   0.840   7.091
  460TIP3    H134915   2.701   0.811   7.117
  460TIP3    H234916   2.585   0.762   7.039
  461TIP3   OH234917   3.745   0.471   7.583
  461TIP3    H134918   3.691   0.551   7.563
  461TIP3    H234919   3.741   0.471   7.680
  462TIP3   OH234920   2.400   0.325   7.462
  462TIP3    H134921   2.366   0.373   7.384
  462TIP3    H234922   2.331   0.349   7.528
  463TIP3   OH234923   3.042   1.265   6.813
  463TIP3    H134924   2.975   1.260   6.741
  463TIP3    H234925   3.047   1.361   6.827
  464TIP3   OH234926   2.613   1.092   7.457
  464TIP3    H134927   2.549   1.162   7.486
  464TIP3    H234928   2.684   1.147   7.417
  465TIP3   OH234929   3.395   0.370   7.107
  465TIP3    H134930   3.346   0.294   7.142
  465TIP3    H234931   3.439   0.402   7.187
  466TIP3   OH234932   2.340   0.526   7.249
  466TIP3    H134933   2.401   0.588   7.293
  466TIP3    H234934   2.400   0.482   7.185
  467TIP3   OH234935   2.464   1.295   7.546
  467TIP3    H134936   2.448   1.372   7.490
  467TIP3    H234937   2.379   1.291   7.598
  468TIP3   OH234938   2.061   1.247   6.639
  468TIP3    H134939   2.147   1.228   6.597
  468TIP3    H234940   2.085   1.315   6.705
  469TIP3   OH234941   3.434   1.405   7.332
  469TIP3    H134942   3.341   1.431   7.347
  469TIP3    H234943   3.463   1.484   7.283
  470TIP3   OH234944   3.514   0.223   7.540
  470TIP3    H134945   3.428   0.231   7.497
  470TIP3    H234946   3.574   0.237   7.463
  471TIP3   OH234947   2.767   0.107   7.198
  471TIP3    H134948   2.814   0.029   7.229
  471TIP3    H234949   2.681   0.101   7.247
  472TIP3   OH234950   3.292   1.580   6.999
  472TIP3    H134951   3.302   1.508   6.934
  472TIP3    H234952   3.357   1.647   6.965
  473TIP3   OH234953   3.387   1.379   6.821
  473TIP3    H134954   3.363   1.309   6.757
  473TIP3    H234955   3.377   1.331   6.905
  474TIP3   OH234956   3.522   1.245   7.702
  474TIP3    H134957   3.537   1.173   7.636
  474TIP3    H234958   3.543   1.324   7.648
  475TIP3   OH234959   2.984   0.949   6.657
  475TIP3    H134960   2.943   1.036   6.639
  475TIP3    H234961   3.063   0.940   6.600
  476TIP3   OH234962   3.737   0.892   7.487
  476TIP3    H134963   3.668   0.962   7.483
  476TIP3    H234964   3.795   0.924   7.415
  477TIP3   OH234965   3.373   0.947   6.766
  477TIP3    H134966   3.303   0.979   6.828
  477TIP3    H234967   3.429   0.895   6.828
  478TIP3   OH234968   3.341   0.787   7.694
  478TIP3    H134969   3.363   0.880   7.711
  478TIP3    H234970   3.262   0.798   7.637
  479TIP3   OH234971   2.495   1.007   6.926
  479TIP3    H134972   2.481   0.961   6.840
  479TIP3    H234973   2.551   0.943   6.975
  480TIP3   OH234974   2.617   1.331   7.230
  480TIP3    H134975   2.636   1.320   7.135
  480TIP3    H234976   2.699   1.300   7.272
  481TIP3   OH234977   2.498   0.893   7.332
  481TIP3    H134978   2.528   0.897   7.239
  481TIP3    H234979   2.554   0.960   7.375
  482TIP3   OH234980   3.180   1.459   7.390
  482TIP3    H134981   3.152   1.513   7.466
  482TIP3    H234982   3.163   1.368   7.422
  483TIP3   OH234983   2.619   1.322   7.761
  483TIP3    H134984   2.548   1.375   7.803
  483TIP3    H234985   2.579   1.311   7.671
  484TIP3   OH234986   3.225   0.911   6.538
  484TIP3    H134987   3.271   0.929   6.623
  484TIP3    H234988   3.291   0.942   6.475
  485TIP3   OH234989   2.334   0.955   7.660
  485TIP3    H134990   2.357   1.033   7.712
  485TIP3    H234991   2.257   0.924   7.710
  486TIP3   OH234992   2.990   1.552   6.823
  486TIP3    H134993   2.992   1.554   6.919
  486TIP3    H234994   2.948   1.638   6.805
  487TIP3   OH234995   2.451   1.502   7.874
  487TIP3    H134996   2.438   1.546   7.788
  487TIP3    H234997   2.357   1.479   7.895
  488TIP3   OH234998   3.553   0.080   6.550
  488TIP3    H134999   3.488   0.006   6.537
  488TIP3    H235000   3.504   0.148   6.501
  489TIP3   OH235001   2.389   0.913   6.682
  489TIP3    H135002   2.317   0.978   6.687
  489TIP3    H235003   2.345   0.827   6.682
  490TIP3   OH235004   2.037   1.153   7.613
  490TIP3    H135005   1.982   1.135   7.535
  490TIP3    H235006   2.062   1.061   7.635
  491TIP3   OH235007   2.009   1.441   7.271
  491TIP3    H135008   2.102   1.425   7.255
  491TIP3    H235009   2.016   1.507   7.342
  492TIP3   OH235010   3.795   1.510   7.859
  492TIP3    H135011   3.788   1.413   7.853
  492TIP3    H235012   3.711   1.531   7.906
  493TIP3   OH235013   2.874   1.446   7.760
  493TIP3    H135014   2.894   1.517   7.825
  493TIP3    H235015   2.783   1.416   7.783
  494TIP3   OH235016   2.960   1.839   6.712
  494TIP3    H135017   2.909   1.885   6.644
  494TIP3    H235018   2.967   1.915   6.774
  495TIP3   OH235019   2.310   1.721   6.908
  495TIP3    H135020   2.335   1.689   6.997
  495TIP3    H235021   2.222   1.684   6.895
  496TIP3   OH235022   3.222   1.746   6.697
  496TIP3    H135023   3.128   1.773   6.708
  496TIP3    H235024   3.219   1.657   6.735
  497TIP3   OH235025   3.485   0.645   7.896
  497TIP3    H135026   3.439   0.694   7.825
  497TIP3    H235027   3.495   0.555   7.857
  498TIP3   OH235028   2.249   1.297   7.703
  498TIP3    H135029   2.254   1.264   7.795
  498TIP3    H235030   2.170   1.250   7.668
  499TIP3   OH235031   2.535   0.108   7.338
  499TIP3    H135032   2.475   0.097   7.262
  499TIP3    H235033   2.485   0.178   7.385
  500TIP3   OH235034   2.962   0.100   7.574
  500TIP3    H135035   2.993   0.079   7.663
  500TIP3    H235036   2.866   0.109   7.586
  501TIP3   OH235037   3.260   0.529   7.708
  501TIP3    H135038   3.204   0.509   7.787
  501TIP3    H235039   3.291   0.620   7.725
  502TIP3   OH235040   2.929   0.395   6.427
  502TIP3    H135041   2.882   0.339   6.491
  502TIP3    H235042   2.989   0.328   6.392
  503TIP3   OH235043   2.514   0.643   7.423
  503TIP3    H135044   2.427   0.633   7.466
  503TIP3    H235045   2.510   0.739   7.397
  504TIP3   OH235046   2.517   0.641   6.899
  504TIP3    H135047   2.420   0.628   6.886
  504TIP3    H235048   2.552   0.629   6.808
  505TIP3   OH235049   3.055   0.740   6.816
  505TIP3    H135050   3.029   0.818   6.762
  505TIP3    H235051   3.130   0.704   6.764
  506TIP3   OH235052   2.963   0.744   7.910
  506TIP3    H135053   2.914   0.665   7.944
  506TIP3    H235054   3.043   0.739   7.966
  507TIP3   OH235055   3.167   0.678   7.089
  507TIP3    H135056   3.144   0.764   7.047
  507TIP3    H235057   3.184   0.625   7.008
  508TIP3   OH235058   2.258   0.641   7.533
  508TIP3    H135059   2.295   0.669   7.619
  508TIP3    H235060   2.212   0.558   7.557
  509TIP3   OH235061   1.964   0.390   6.991
  509TIP3    H135062   2.024   0.382   7.068
  509TIP3    H235063   2.016   0.363   6.914
  510TIP3   OH235064   2.032   0.464   6.501
  510TIP3    H135065   2.106   0.427   6.450
  510TIP3    H235066   2.053   0.559   6.501
  511TIP3   OH235067   3.067   0.811   7.507
  511TIP3    H135068   3.130   0.744   7.471
  511TIP3    H235069   3.010   0.754   7.564
  512TIP3   OH235070   2.805   0.387   7.013
  512TIP3    H135071   2.710   0.369   7.028
  512TIP3    H235072   2.842   0.383   7.103
  513TIP3   OH235073   2.254   0.589   6.879
  513TIP3    H135074   2.167   0.597   6.835
  513TIP3    H235075   2.274   0.494   6.863
  514TIP3   OH235076   2.606   0.596   6.613
  514TIP3    H135077   2.686   0.564   6.660
  514TIP3    H235078   2.629   0.687   6.594
  515TIP3   OH235079   3.235   0.300   7.342
  515TIP3    H135080   3.178   0.312   7.420
  515TIP3    H235081   3.167   0.280   7.274
  516TIP3   OH235082   3.499   1.895   7.988
  516TIP3    H135083   3.529   1.930   7.902
  516TIP3    H235084   3.579   1.912   8.042
  517TIP3   OH235085   2.291   1.118   7.921
  517TIP3    H135086   2.353   1.133   7.995
  517TIP3    H235087   2.206   1.114   7.969
  518TIP3   OH235088   2.851   0.700   7.151
  518TIP3    H135089   2.934   0.650   7.134
  518TIP3    H235090   2.815   0.653   7.227
  519TIP3   OH235091   2.326   0.338   6.837
  519TIP3    H135092   2.280   0.253   6.858
  519TIP3    H235093   2.365   0.319   6.749
  520TIP3   OH235094   2.743   0.505   7.412
  520TIP3    H135095   2.664   0.563   7.427
  520TIP3    H235096   2.807   0.543   7.474
  521TIP3   OH235097   2.825   1.171   6.639
  521TIP3    H135098   2.748   1.129   6.595
  521TIP3    H235099   2.782   1.191   6.725
  522TIP3   OH235100   3.565   1.097   7.491
  522TIP3    H135101   3.614   1.159   7.431
  522TIP3    H235102   3.481   1.092   7.442
  523TIP3   OH235103   3.185   0.462   6.469
  523TIP3    H135104   3.088   0.452   6.471
  523TIP3    H235105   3.201   0.535   6.531
  524TIP3   OH235106   2.923   1.176   7.722
  524TIP3    H135107   2.903   1.153   7.814
  524TIP3    H235108   2.903   1.272   7.724
  525TIP3   OH235109   3.234   0.660   6.636
  525TIP3    H135110   3.320   0.621   6.662
  525TIP3    H235111   3.259   0.738   6.583
  526TIP3   OH235112   2.334   1.094   7.190
  526TIP3    H135113   2.393   1.077   7.115
  526TIP3    H235114   2.342   1.011   7.241
  527TIP3   OH235115   2.012   0.902   7.725
  527TIP3    H135116   2.003   0.837   7.798
  527TIP3    H235117   1.961   0.861   7.653
  528TIP3   OH235118   2.718   0.872   7.887
  528TIP3    H135119   2.671   0.816   7.823
  528TIP3    H235120   2.806   0.828   7.888
  529TIP3   OH235121   3.215   1.406   7.756
  529TIP3    H135122   3.141   1.437   7.701
  529TIP3    H235123   3.189   1.445   7.842
  530TIP3   OH235124   3.746   0.637   6.577
  530TIP3    H135125   3.681   0.595   6.517
  530TIP3    H235126   3.733   0.729   6.552
  531TIP3   OH235127   3.779   1.232   7.824
  531TIP3    H135128   3.691   1.239   7.781
  531TIP3    H235129   3.838   1.216   7.746
  532TIP3   OH235130   3.545   1.492   6.597
  532TIP3    H135131   3.513   1.465   6.685
  532TIP3    H235132   3.639   1.506   6.612
  533TIP3   OH235133   3.308   1.015   7.291
  533TIP3    H135134   3.216   0.991   7.272
  533TIP3    H235135   3.354   0.939   7.251
  534TIP3   OH235136   2.546   1.425   6.937
  534TIP3    H135137   2.599   1.503   6.913
  534TIP3    H235138   2.458   1.452   6.905
  535TIP3   OH235139   2.691   1.208   6.874
  535TIP3    H135140   2.636   1.287   6.889
  535TIP3    H235141   2.639   1.136   6.913
  536TIP3   OH235142   2.741   1.614   7.566
  536TIP3    H135143   2.811   1.675   7.536
  536TIP3    H235144   2.789   1.565   7.636
  537TIP3   OH235145   2.580   1.679   6.841
  537TIP3    H135146   2.485   1.695   6.860
  537TIP3    H235147   2.617   1.769   6.857
  538TIP3   OH235148   3.073   1.208   7.480
  538TIP3    H135149   3.034   1.179   7.567
  538TIP3    H235150   3.113   1.125   7.448
  539TIP3   OH235151   3.322   1.351   6.365
  539TIP3    H135152   3.415   1.354   6.388
  539TIP3    H235153   3.285   1.335   6.453
  540TIP3   OH235154   3.387   1.677   7.728
  540TIP3    H135155   3.303   1.634   7.705
  540TIP3    H235156   3.401   1.737   7.651
  541TIP3   OH235157   3.771   1.739   6.456
  541TIP3    H135158   3.833   1.765   6.384
  541TIP3    H235159   3.743   1.828   6.485
  542TIP3   OH235160   2.196   0.376   7.637
  542TIP3    H135161   2.152   0.423   7.711
  542TIP3    H235162   2.184   0.284   7.665
  543TIP3   OH235163   3.424   1.172   6.623
  543TIP3    H135164   3.408   1.083   6.659
  543TIP3    H235165   3.522   1.175   6.620
  544TIP3   OH235166   2.141   1.564   7.508
  544TIP3    H135167   2.217   1.505   7.522
  544TIP3    H235168   2.147   1.622   7.585
  545TIP3   OH235169   2.823   1.412   6.259
  545TIP3    H135170   2.738   1.400   6.216
  545TIP3    H235171   2.793   1.419   6.352
  546TIP3   OH235172   2.638   1.397   6.460
  546TIP3    H135173   2.574   1.347   6.511
  546TIP3    H235174   2.646   1.483   6.509
  547TIP3   OH235175   3.059   0.356   7.594
  547TIP3    H135176   3.100   0.371   7.681
  547TIP3    H235177   3.024   0.265   7.600
  548TIP3   OH235178   3.118   0.320   6.760
  548TIP3    H135179   3.156   0.338   6.672
  548TIP3    H235180   3.163   0.387   6.816
  549TIP3   OH235181   2.936   1.590   6.498
  549TIP3    H135182   2.852   1.568   6.541
  549TIP3    H235183   2.953   1.679   6.532
  550TIP3   OH235184   2.837   0.521   6.765
  550TIP3    H135185   2.912   0.584   6.777
  550TIP3    H235186   2.828   0.485   6.855
  551TIP3   OH235187   2.939   0.631   7.665
  551TIP3    H135188   2.949   0.658   7.759
  551TIP3    H235189   2.975   0.540   7.662
  552TIP3   OH235190   2.904   0.181   6.870
  552TIP3    H135191   2.875   0.248   6.935
  552TIP3    H235192   2.984   0.228   6.835
  553TIP3   OH235193   2.671   1.646   6.549
  553TIP3    H135194   2.696   1.732   6.507
  553TIP3    H235195   2.625   1.674   6.630
  554TIP3   OH235196   2.468   0.327   6.584
  554TIP3    H135197   2.490   0.421   6.571
  554TIP3    H235198   2.525   0.285   6.519
  555TIP3   OH235199   3.509   0.411   7.765
  555TIP3    H135200   3.412   0.416   7.752
  555TIP3    H235201   3.538   0.361   7.686
  556TIP3   OH235202   3.416   0.780   7.182
  556TIP3    H135203   3.331   0.732   7.180
  556TIP3    H235204   3.479   0.713   7.216
  557TIP3   OH235205   3.495   1.688   7.323
  557TIP3    H135206   3.499   1.746   7.245
  557TIP3    H235207   3.590   1.689   7.347
  558TIP3   OH235208   2.285   0.140   7.192
  558TIP3    H135209   2.262   0.134   7.097
  558TIP3    H235210   2.245   0.057   7.229
  559TIP3   OH235211   2.149   1.475   6.776
  559TIP3    H135212   2.065   1.499   6.816
  559TIP3    H235213   2.159   1.547   6.711
  560TIP3   OH235214   2.037   1.799   7.957
  560TIP3    H135215   2.103   1.791   8.030
  560TIP3    H235216   2.011   1.706   7.951
  561TIP3   OH235217   2.549   1.616   8.136
  561TIP3    H135218   2.645   1.602   8.124
  561TIP3    H235219   2.512   1.568   8.060
  562TIP3   OH235220   3.149   1.524   7.988
  562TIP3    H135221   3.128   1.434   8.022
  562TIP3    H235222   3.239   1.535   8.027
  563TIP3   OH235223   2.034   1.129   8.039
  563TIP3    H135224   2.003   1.037   8.031
  563TIP3    H235225   1.988   1.172   7.964
  564TIP3   OH235226   2.710   1.137   7.932
  564TIP3    H135227   2.678   1.196   7.860
  564TIP3    H235228   2.708   1.046   7.893
  565TIP3   OH235229   3.281   1.128   7.746
  565TIP3    H135230   3.369   1.171   7.749
  565TIP3    H235231   3.228   1.210   7.751
  566TIP3   OH235232   2.165   0.842   7.996
  566TIP3    H135233   2.215   0.764   8.025
  566TIP3    H235234   2.197   0.910   8.059
  567TIP3   OH235235   2.597   0.989   6.519
  567TIP3    H135236   2.531   0.980   6.590
  567TIP3    H235237   2.548   0.955   6.444
  568TIP3   OH235238   2.522   0.763   7.678
  568TIP3    H135239   2.457   0.836   7.677
  568TIP3    H235240   2.588   0.798   7.616
  569TIP3   OH235241   3.056   1.031   8.067
  569TIP3    H135242   3.113   0.985   8.004
  569TIP3    H235243   3.024   0.960   8.126
  570TIP3   OH235244   2.612   0.536   7.785
  570TIP3    H135245   2.616   0.470   7.714
  570TIP3    H235246   2.591   0.618   7.735
  571TIP3   OH235247   2.639   0.332   7.583
  571TIP3    H135248   2.676   0.379   7.505
  571TIP3    H235249   2.545   0.324   7.557
  572TIP3   OH235250   2.751   0.899   7.570
  572TIP3    H135251   2.840   0.937   7.564
  572TIP3    H235252   2.697   0.977   7.543
  573TIP3   OH235253   3.137   0.667   8.102
  573TIP3    H135254   3.141   0.569   8.112
  573TIP3    H235255   3.229   0.692   8.084
  574TIP3   OH235256   3.343   0.971   7.960
  574TIP3    H135257   3.309   1.020   7.881
  574TIP3    H235258   3.436   0.960   7.935
  575TIP3   OH235259   2.418   0.639   8.016
  575TIP3    H135260   2.361   0.564   7.986
  575TIP3    H235261   2.498   0.626   7.963
  576TIP3   OH235262   2.693   0.078   7.607
  576TIP3    H135263   2.684   0.175   7.622
  576TIP3    H235264   2.639   0.073   7.525
  577TIP3   OH235265   2.826   0.516   7.988
  577TIP3    H135266   2.809   0.476   8.076
  577TIP3    H235267   2.749   0.487   7.937
  578TIP3   OH235268   3.087   0.442   7.899
  578TIP3    H135269   2.997   0.432   7.935
  578TIP3    H235270   3.139   0.386   7.963
  579TIP3   OH235271   3.232   0.294   8.062
  579TIP3    H135272   3.264   0.201   8.052
  579TIP3    H235273   3.235   0.311   8.158
  580TIP3   OH235274   2.232   0.424   8.013
  580TIP3    H135275   2.220   0.345   7.956
  580TIP3    H235276   2.219   0.387   8.103
  581TIP3   OH235277   2.634   9.363   7.872
  581TIP3    H135278   2.717   9.331   7.910
  581TIP3    H235279   2.660   9.373   7.778
  582TIP3   OH235280   2.731   0.203   8.045
  582TIP3    H135281   2.678   0.140   7.993
  582TIP3    H235282   2.666   0.266   8.081
  583TIP3   OH235283   2.703   1.896   6.434
  583TIP3    H135284   2.770   1.956   6.397
  583TIP3    H235285   2.622   1.949   6.430
  584TIP3   OH235286   1.926   1.855   6.900
  584TIP3    H135287   1.869   1.791   6.856
  584TIP3    H235288   1.963   1.802   6.974
  585TIP3   OH235289   2.018   1.664   7.071
  585TIP3    H135290   1.956   1.595   7.100
  585TIP3    H235291   2.046   1.701   7.156
  586TIP3   OH235292   3.763   1.754   7.327
  586TIP3    H135293   3.800   1.768   7.416
  586TIP3    H235294   3.823   1.808   7.274
  587TIP3   OH235295   3.722   1.701   7.639
  587TIP3    H135296   3.691   1.625   7.586
  587TIP3    H235297   3.742   1.660   7.725
  588TIP3   OH235298   3.598   1.285   8.123
  588TIP3    H135299   3.512   1.301   8.168
  588TIP3    H235300   3.642   1.372   8.136
  589TIP3   OH235301   3.700   1.132   6.635
  589TIP3    H135302   3.790   1.160   6.660
  589TIP3    H235303   3.684   1.061   6.700
  590TIP3   OH235304   3.733   0.936   6.825
  590TIP3    H135305   3.655   0.887   6.861
  590TIP3    H235306   3.786   0.952   6.905
  591TIP3   OH235307   3.705   1.207   7.300
  591TIP3    H135308   3.779   1.145   7.286
  591TIP3    H235309   3.736   1.289   7.258
  592TIP3   OH235310   3.582   1.483   7.560
  592TIP3    H135311   3.517   1.529   7.615
  592TIP3    H235312   3.533   1.464   7.477
  593TIP3   OH235313   3.574   0.637   6.332
  593TIP3    H135314   3.527   0.697   6.270
  593TIP3    H235315   3.538   0.552   6.306
  594TIP3   OH235316   3.531   0.781   6.912
  594TIP3    H135317   3.491   0.696   6.888
  594TIP3    H235318   3.514   0.784   7.009
  595TIP3   OH235319   2.010   1.007   7.290
  595TIP3    H135320   2.004   0.968   7.200
  595TIP3    H235321   2.104   0.986   7.313
  596TIP3   OH235322   3.625   0.978   7.880
  596TIP3    H135323   3.676   0.892   7.883
  596TIP3    H235324   3.693   1.041   7.850
  597TIP3   OH235325   3.725   0.738   7.945
  597TIP3    H135326   3.638   0.696   7.928
  597TIP3    H235327   3.790   0.665   7.932
  598TIP3   OH235328   3.476   0.545   6.736
  598TIP3    H135329   3.495   0.449   6.750
  598TIP3    H235330   3.561   0.577   6.706
  599TIP3   OH235331   3.576   0.584   7.285
  599TIP3    H135332   3.674   0.596   7.290
  599TIP3    H235333   3.552   0.598   7.378
  600TIP3   OH235334   3.567   0.672   7.538
  600TIP3    H135335   3.475   0.700   7.553
  600TIP3    H235336   3.615   0.758   7.532
  601TIP3   OH235337   2.015   0.537   7.904
  601TIP3    H135338   2.096   0.513   7.953
  601TIP3    H235339   1.967   0.451   7.902
  602TIP3   OH235340   3.770   0.125   8.078
  602TIP3    H135341   3.823   0.056   8.034
  602TIP3    H235342   3.762   0.191   8.006
  603TIP3   OH235343   3.551   0.283   6.773
  603TIP3    H135344   3.582   0.244   6.856
  603TIP3    H235345   3.534   0.204   6.718
  604TIP3   OH235346   2.106   0.343   7.218
  604TIP3    H135347   2.156   0.260   7.223
  604TIP3    H235348   2.176   0.410   7.225
  605TIP3   OH235349   1.964   0.636   7.315
  605TIP3    H135350   2.018   0.614   7.238
  605TIP3    H235351   2.002   0.721   7.341
  606TIP3   OH235352   3.747   0.317   7.879
  606TIP3    H135353   3.656   0.345   7.904
  606TIP3    H235354   3.724   0.241   7.821
  607TIP3   OH235355   3.788   0.325   6.340
  607TIP3    H135356   3.760   0.234   6.348
  607TIP3    H235357   3.861   0.336   6.402
  608TIP3   OH235358   1.948   0.287   6.708
  608TIP3    H135359   1.855   0.264   6.698
  608TIP3    H235360   1.964   0.337   6.625
  609TIP3   OH235361   3.444   1.786   6.928
  609TIP3    H135362   3.511   1.793   6.858
  609TIP3    H235363   3.470   1.851   6.995
  610TIP3   OH235364   2.006   0.132   7.539
  610TIP3    H135365   1.947   0.121   7.615
  610TIP3    H235366   1.965   0.207   7.492
  611TIP3   OH235367   2.193   1.444   7.948
  611TIP3    H135368   2.110   1.486   7.921
  611TIP3    H235369   2.171   1.408   8.033
  612TIP3   OH235370   2.476   1.594   7.613
  612TIP3    H135371   2.476   1.686   7.578
  612TIP3    H235372   2.571   1.573   7.603
  613TIP3   OH235373   2.889   1.707   7.870
  613TIP3    H135374   2.897   1.691   7.966
  613TIP3    H235375   2.978   1.743   7.850
  614TIP3   OH235376   3.115   1.861   7.834
  614TIP3    H135377   3.197   1.813   7.816
  614TIP3    H235378   3.142   1.919   7.908
  615TIP3   OH235379   3.676   0.104   7.722
  615TIP3    H135380   3.608   0.146   7.665
  615TIP3    H235381   3.685   0.014   7.680
  616TIP3   OH235382   2.221   1.910   7.580
  616TIP3    H135383   2.142   1.954   7.544
  616TIP3    H235384   2.213   1.934   7.674
  617TIP3   OH235385   2.455   1.837   7.474
  617TIP3    H135386   2.365   1.868   7.500
  617TIP3    H235387   2.481   1.907   7.410
  618TIP3   OH235388   2.918   1.809   7.431
  618TIP3    H135389   2.836   1.857   7.412
  618TIP3    H235390   2.965   1.874   7.488
  619TIP3   OH235391   3.140   1.683   7.555
  619TIP3    H135392   3.073   1.713   7.490
  619TIP3    H235393   3.213   1.745   7.535
  620TIP3   OH235394   3.407   1.844   7.525
  620TIP3    H135395   3.421   1.934   7.491
  620TIP3    H235396   3.434   1.792   7.446
  621TIP3   OH235397   2.178   1.739   7.293
  621TIP3    H135398   2.160   1.677   7.366
  621TIP3    H235399   2.266   1.709   7.260
  622TIP3   OH235400   2.405   1.655   7.154
  622TIP3    H135401   2.389   1.560   7.170
  622TIP3    H235402   2.491   1.663   7.202
  623TIP3   OH235403   2.631   1.635   7.293
  623TIP3    H135404   2.667   1.547   7.275
  623TIP3    H235405   2.641   1.641   7.390
  624TIP3   OH235406   3.018   0.256   7.178
  624TIP3    H135407   2.941   0.197   7.171
  624TIP3    H235408   3.081   0.212   7.118
  625TIP3   OH235409   3.485   0.087   7.152
  625TIP3    H135410   3.548   0.134   7.094
  625TIP3    H235411   3.402   0.097   7.101
  626TIP3   OH235412   3.688   0.154   6.974
  626TIP3    H135413   3.744   0.086   6.932
  626TIP3    H235414   3.748   0.231   6.989
  627TIP3   OH235415   2.207   0.114   6.935
  627TIP3    H135416   2.116   0.096   6.907
  627TIP3    H235417   2.252   0.028   6.917
  628TIP3   OH235418   2.089   0.176   6.450
  628TIP3    H135419   2.180   0.174   6.419
  628TIP3    H235420   2.098   0.176   6.547
  629TIP3   OH235421   2.633   0.103   6.955
  629TIP3    H135422   2.711   0.131   6.905
  629TIP3    H235423   2.669   0.105   7.046
  630TIP3   OH235424   3.219   0.120   7.046
  630TIP3    H135425   3.207   0.110   6.950
  630TIP3    H235426   3.187   0.036   7.083
  631TIP3   OH235427   2.071   1.703   6.601
  631TIP3    H135428   2.061   1.654   6.519
  631TIP3    H235429   2.097   1.790   6.565
  632TIP3   OH235430   2.800   0.251   6.617
  632TIP3    H135431   2.822   0.210   6.702
  632TIP3    H235432   2.790   0.344   6.644
  633TIP3   OH235433   3.618   1.719   6.733
  633TIP3    H135434   3.587   1.662   6.659
  633TIP3    H235435   3.636   1.802   6.683
  634TIP3   OH235436   2.168   0.174   7.861
  634TIP3    H135437   2.098   0.106   7.856
  634TIP3    H235438   2.237   0.128   7.912
  635TIP3   OH235439   2.397   0.096   8.046
  635TIP3    H135440   2.493   0.100   8.035
  635TIP3    H235441   2.380   0.001   8.032
  636TIP3   OH235442   3.302   9.369   8.034
  636TIP3    H135443   3.262   9.315   8.104
  636TIP3    H235444   3.388   9.325   8.025
  637TIP3   OH235445   3.564   1.629   7.923
  637TIP3    H135446   3.488   1.618   7.861
  637TIP3    H235447   3.545   1.719   7.955
  638TIP3   OH235448   5.028   1.011   6.914
  638TIP3    H135449   5.008   1.106   6.927
  638TIP3    H235450   4.958   0.984   6.851
  639TIP3   OH235451   4.911   0.897   7.268
  639TIP3    H135452   4.920   0.861   7.360
  639TIP3    H235453   4.846   0.839   7.225
  640TIP3   OH235454   4.121   0.906   7.413
  640TIP3    H135455   4.116   0.818   7.454
  640TIP3    H235456   4.182   0.950   7.474
  641TIP3   OH235457   5.245   1.211   7.112
  641TIP3    H135458   5.261   1.144   7.180
  641TIP3    H235459   5.240   1.291   7.166
  642TIP3   OH235460   4.206   1.357   7.234
  642TIP3    H135461   4.185   1.261   7.224
  642TIP3    H235462   4.301   1.350   7.218
  643TIP3   OH235463   3.919   0.671   6.815
  643TIP3    H135464   3.870   0.752   6.836
  643TIP3    H235465   3.857   0.628   6.753
  644TIP3   OH235466   3.920   0.937   7.033
  644TIP3    H135467   3.952   0.847   7.056
  644TIP3    H235468   4.004   0.984   7.021
  645TIP3   OH235469   4.985   1.749   7.085
  645TIP3    H135470   5.056   1.691   7.048
  645TIP3    H235471   4.964   1.695   7.162
  646TIP3   OH235472   4.726   1.155   7.359
  646TIP3    H135473   4.755   1.078   7.308
  646TIP3    H235474   4.813   1.195   7.382
  647TIP3   OH235475   5.588   0.301   7.370
  647TIP3    H135476   5.593   0.367   7.442
  647TIP3    H235477   5.667   0.327   7.318
  648TIP3   OH235478   5.095   0.626   7.368
  648TIP3    H135479   5.114   0.534   7.394
  648TIP3    H235480   5.090   0.618   7.270
  649TIP3   OH235481   4.409   0.405   7.023
  649TIP3    H135482   4.417   0.496   6.987
  649TIP3    H235483   4.346   0.364   6.960
  650TIP3   OH235484   5.127   0.419   6.922
  650TIP3    H135485   5.184   0.397   7.000
  650TIP3    H235486   5.181   0.488   6.880
  651TIP3   OH235487   4.025   0.707   7.130
  651TIP3    H135488   4.089   0.671   7.193
  651TIP3    H235489   4.051   0.655   7.052
  652TIP3   OH235490   4.498   0.820   7.087
  652TIP3    H135491   4.593   0.794   7.098
  652TIP3    H235492   4.471   0.755   7.018
  653TIP3   OH235493   5.624   0.466   7.592
  653TIP3    H135494   5.573   0.545   7.563
  653TIP3    H235495   5.619   0.478   7.688
  654TIP3   OH235496   4.298   0.336   7.464
  654TIP3    H135497   4.263   0.388   7.389
  654TIP3    H235498   4.227   0.356   7.530
  655TIP3   OH235499   4.962   1.268   6.832
  655TIP3    H135500   4.905   1.224   6.767
  655TIP3    H235501   4.938   1.361   6.820
  656TIP3   OH235502   4.488   1.084   7.449
  656TIP3    H135503   4.428   1.157   7.478
  656TIP3    H235504   4.566   1.134   7.416
  657TIP3   OH235505   5.305   0.408   7.137
  657TIP3    H135506   5.255   0.366   7.210
  657TIP3    H235507   5.390   0.422   7.182
  658TIP3   OH235508   4.241   0.515   7.248
  658TIP3    H135509   4.307   0.580   7.278
  658TIP3    H235510   4.287   0.465   7.177
  659TIP3   OH235511   4.348   1.291   7.539
  659TIP3    H135512   4.336   1.373   7.489
  659TIP3    H235513   4.263   1.289   7.589
  660TIP3   OH235514   3.956   1.237   6.657
  660TIP3    H135515   3.911   1.291   6.591
  660TIP3    H235516   3.962   1.301   6.731
  661TIP3   OH235517   5.321   1.412   7.339
  661TIP3    H135518   5.225   1.429   7.349
  661TIP3    H235519   5.344   1.493   7.290
  662TIP3   OH235520   5.391   0.217   7.531
  662TIP3    H135521   5.306   0.224   7.486
  662TIP3    H235522   5.452   0.233   7.454
  663TIP3   OH235523   4.661   0.093   7.185
  663TIP3    H135524   4.706   0.017   7.226
  663TIP3    H235525   4.573   0.089   7.230
  664TIP3   OH235526   5.173   1.584   6.988
  664TIP3    H135527   5.185   1.509   6.926
  664TIP3    H235528   5.243   1.647   6.957
  665TIP3   OH235529   5.268   1.358   6.829
  665TIP3    H135530   5.220   1.306   6.762
  665TIP3    H235531   5.257   1.301   6.908
  666TIP3   OH235532   5.417   1.242   7.704
  666TIP3    H135533   5.425   1.168   7.639
  666TIP3    H235534   5.433   1.319   7.645
  667TIP3   OH235535   4.899   0.925   6.682
  667TIP3    H135536   4.838   0.999   6.659
  667TIP3    H235537   4.974   0.936   6.620
  668TIP3   OH235538   5.622   0.889   7.482
  668TIP3    H135539   5.552   0.957   7.479
  668TIP3    H235540   5.686   0.926   7.418
  669TIP3   OH235541   5.262   0.956   6.785
  669TIP3    H135542   5.183   0.974   6.841
  669TIP3    H235543   5.314   0.896   6.843
  670TIP3   OH235544   5.245   0.779   7.684
  670TIP3    H135545   5.253   0.872   7.714
  670TIP3    H235546   5.162   0.785   7.634
  671TIP3   OH235547   4.419   1.010   6.927
  671TIP3    H135548   4.384   0.961   6.851
  671TIP3    H235549   4.455   0.938   6.983
  672TIP3   OH235550   4.506   1.345   7.215
  672TIP3    H135551   4.508   1.330   7.120
  672TIP3    H235552   4.585   1.298   7.247
  673TIP3   OH235553   4.392   0.878   7.325
  673TIP3    H135554   4.427   0.879   7.233
  673TIP3    H235555   4.445   0.949   7.369
  674TIP3   OH235556   5.067   1.462   7.392
  674TIP3    H135557   5.039   1.516   7.467
  674TIP3    H235558   5.049   1.371   7.425
  675TIP3   OH235559   4.504   1.323   7.756
  675TIP3    H135560   4.433   1.376   7.798
  675TIP3    H235561   4.460   1.301   7.671
  676TIP3   OH235562   5.135   0.888   6.550
  676TIP3    H135563   5.186   0.917   6.629
  676TIP3    H235564   5.183   0.935   6.478
  677TIP3   OH235565   4.213   0.948   7.663
  677TIP3    H135566   4.234   1.029   7.711
  677TIP3    H235567   4.138   0.920   7.717
  678TIP3   OH235568   4.891   1.611   6.837
  678TIP3    H135569   4.915   1.649   6.923
  678TIP3    H235570   4.836   1.682   6.799
  679TIP3   OH235571   4.337   1.500   7.868
  679TIP3    H135572   4.326   1.542   7.780
  679TIP3    H235573   4.243   1.475   7.885
  680TIP3   OH235574   5.454   0.078   6.517
  680TIP3    H135575   5.365   0.075   6.560
  680TIP3    H235576   5.439   0.152   6.454
  681TIP3   OH235577   4.285   0.907   6.671
  681TIP3    H135578   4.236   0.991   6.677
  681TIP3    H235579   4.214   0.843   6.656
  682TIP3   OH235580   3.923   1.149   7.622
  682TIP3    H135581   3.880   1.135   7.537
  682TIP3    H235582   3.940   1.055   7.646
  683TIP3   OH235583   3.882   1.439   7.270
  683TIP3    H135584   3.969   1.398   7.255
  683TIP3    H235585   3.906   1.502   7.340
  684TIP3   OH235586   5.682   1.502   7.854
  684TIP3    H135587   5.673   1.405   7.853
  684TIP3    H235588   5.598   1.526   7.901
  685TIP3   OH235589   4.760   1.449   7.753
  685TIP3    H135590   4.781   1.516   7.821
  685TIP3    H235591   4.669   1.419   7.774
  686TIP3   OH235592   4.800   1.835   6.699
  686TIP3    H135593   4.814   1.866   6.607
  686TIP3    H235594   4.821   1.916   6.750
  687TIP3   OH235595   4.191   1.723   6.915
  687TIP3    H135596   4.216   1.690   7.004
  687TIP3    H235597   4.107   1.677   6.897
  688TIP3   OH235598   5.116   1.714   6.408
  688TIP3    H135599   5.175   1.641   6.380
  688TIP3    H235600   5.133   1.713   6.504
  689TIP3   OH235601   5.079   1.746   6.693
  689TIP3    H135602   4.991   1.754   6.732
  689TIP3    H235603   5.098   1.654   6.712
  690TIP3   OH235604   5.373   0.639   7.899
  690TIP3    H135605   5.335   0.686   7.821
  690TIP3    H235606   5.387   0.549   7.863
  691TIP3   OH235607   4.136   1.299   7.697
  691TIP3    H135608   4.139   1.264   7.789
  691TIP3    H235609   4.054   1.255   7.664
  692TIP3   OH235610   4.421   0.135   7.308
  692TIP3    H135611   4.346   0.130   7.245
  692TIP3    H235612   4.376   0.188   7.376
  693TIP3   OH235613   4.849   0.106   7.572
  693TIP3    H135614   4.886   0.076   7.655
  693TIP3    H235615   4.753   0.116   7.591
  694TIP3   OH235616   5.149   0.525   7.714
  694TIP3    H135617   5.102   0.502   7.797
  694TIP3    H235618   5.181   0.615   7.734
  695TIP3   OH235619   5.245   1.008   6.341
  695TIP3    H135620   5.214   1.002   6.248
  695TIP3    H235621   5.239   1.105   6.351
  696TIP3   OH235622   4.412   0.643   7.442
  696TIP3    H135623   4.319   0.635   7.469
  696TIP3    H235624   4.410   0.735   7.404
  697TIP3   OH235625   4.413   0.640   6.893
  697TIP3    H135626   4.316   0.629   6.890
  697TIP3    H235627   4.442   0.583   6.820
  698TIP3   OH235628   4.944   0.667   6.738
  698TIP3    H135629   4.936   0.764   6.722
  698TIP3    H235630   5.022   0.643   6.685
  699TIP3   OH235631   4.850   0.742   7.916
  699TIP3    H135632   4.806   0.663   7.953
  699TIP3    H235633   4.929   0.747   7.973
  700TIP3   OH235634   5.059   0.674   7.103
  700TIP3    H135635   5.040   0.756   7.053
  700TIP3    H235636   5.046   0.605   7.036
  701TIP3   OH235637   4.148   0.652   7.539
  701TIP3    H135638   4.178   0.685   7.625
  701TIP3    H235639   4.109   0.565   7.563
  702TIP3   OH235640   3.845   0.373   6.984
  702TIP3    H135641   3.904   0.385   7.062
  702TIP3    H235642   3.895   0.411   6.911
  703TIP3   OH235643   3.954   0.431   6.567
  703TIP3    H135644   4.029   0.440   6.504
  703TIP3    H235645   3.906   0.515   6.558
  704TIP3   OH235646   4.959   0.804   7.514
  704TIP3    H135647   5.017   0.739   7.468
  704TIP3    H235648   4.902   0.744   7.569
  705TIP3   OH235649   4.691   0.392   7.015
  705TIP3    H135650   4.594   0.375   7.016
  705TIP3    H235651   4.716   0.370   7.106
  706TIP3   OH235652   4.138   0.556   6.926
  706TIP3    H135653   4.066   0.590   6.869
  706TIP3    H235654   4.167   0.478   6.874
  707TIP3   OH235655   4.475   0.575   6.628
  707TIP3    H135656   4.568   0.575   6.662
  707TIP3    H235657   4.447   0.665   6.646
  708TIP3   OH235658   5.141   0.300   7.323
  708TIP3    H135659   5.070   0.307   7.388
  708TIP3    H235660   5.089   0.271   7.245
  709TIP3   OH235661   4.298   0.688   6.350
  709TIP3    H135662   4.266   0.698   6.257
  709TIP3    H235663   4.390   0.669   6.338
  710TIP3   OH235664   5.387   1.888   7.996
  710TIP3    H135665   5.419   1.918   7.910
  710TIP3    H235666   5.466   1.906   8.050
  711TIP3   OH235667   4.172   1.113   7.922
  711TIP3    H135668   4.238   1.138   7.990
  711TIP3    H235669   4.088   1.118   7.971
  712TIP3   OH235670   4.725   0.694   7.159
  712TIP3    H135671   4.811   0.650   7.155
  712TIP3    H235672   4.677   0.631   7.216
  713TIP3   OH235673   4.239   0.320   6.825
  713TIP3    H135674   4.183   0.258   6.878
  713TIP3    H235675   4.294   0.256   6.777
  714TIP3   OH235676   4.631   0.491   7.415
  714TIP3    H135677   4.549   0.544   7.427
  714TIP3    H235678   4.691   0.532   7.479
  715TIP3   OH235679   4.704   1.109   6.651
  715TIP3    H135680   4.622   1.083   6.604
  715TIP3    H235681   4.667   1.167   6.720
  716TIP3   OH235682   5.431   1.088   7.499
  716TIP3    H135683   5.480   1.145   7.434
  716TIP3    H235684   5.343   1.089   7.457
  717TIP3   OH235685   4.818   1.189   7.702
  717TIP3    H135686   4.806   1.149   7.788
  717TIP3    H235687   4.794   1.282   7.720
  718TIP3   OH235688   5.157   0.587   6.602
  718TIP3    H135689   5.242   0.589   6.650
  718TIP3    H235690   5.168   0.659   6.537
  719TIP3   OH235691   4.224   1.085   7.194
  719TIP3    H135692   4.304   1.064   7.145
  719TIP3    H235693   4.221   1.011   7.257
  720TIP3   OH235694   3.891   0.900   7.729
  720TIP3    H135695   3.888   0.835   7.801
  720TIP3    H235696   3.843   0.854   7.658
  721TIP3   OH235697   4.584   0.873   7.890
  721TIP3    H135698   4.539   0.819   7.821
  721TIP3    H235699   4.672   0.831   7.893
  722TIP3   OH235700   5.098   1.404   7.755
  722TIP3    H135701   5.023   1.425   7.698
  722TIP3    H235702   5.071   1.452   7.835
  723TIP3   OH235703   5.643   0.617   6.575
  723TIP3    H135704   5.579   0.603   6.502
  723TIP3    H235705   5.640   0.712   6.583
  724TIP3   OH235706   5.669   1.230   7.819
  724TIP3    H135707   5.580   1.233   7.778
  724TIP3    H235708   5.727   1.221   7.740
  725TIP3   OH235709   5.481   1.480   6.592
  725TIP3    H135710   5.392   1.445   6.610
  725TIP3    H235711   5.477   1.503   6.497
  726TIP3   OH235712   5.218   1.002   7.305
  726TIP3    H135713   5.126   0.988   7.278
  726TIP3    H235714   5.265   0.933   7.253
  727TIP3   OH235715   4.425   1.422   6.945
  727TIP3    H135716   4.492   1.492   6.938
  727TIP3    H235717   4.354   1.458   6.889
  728TIP3   OH235718   4.600   1.224   6.880
  728TIP3    H135719   4.533   1.294   6.892
  728TIP3    H235720   4.555   1.146   6.916
  729TIP3   OH235721   4.622   1.629   7.570
  729TIP3    H135722   4.695   1.682   7.534
  729TIP3    H235723   4.672   1.576   7.636
  730TIP3   OH235724   4.446   1.689   6.828
  730TIP3    H135725   4.353   1.703   6.856
  730TIP3    H235726   4.486   1.773   6.858
  731TIP3   OH235727   4.970   1.207   7.478
  731TIP3    H135728   4.921   1.186   7.562
  731TIP3    H235729   5.016   1.123   7.459
  732TIP3   OH235730   5.189   1.396   6.447
  732TIP3    H135731   5.198   1.313   6.497
  732TIP3    H235732   5.104   1.373   6.399
  733TIP3   OH235733   5.279   1.677   7.728
  733TIP3    H135734   5.196   1.633   7.701
  733TIP3    H235735   5.295   1.734   7.649
  734TIP3   OH235736   4.080   0.374   7.627
  734TIP3    H135737   4.027   0.418   7.696
  734TIP3    H235738   4.061   0.281   7.651
  735TIP3   OH235739   5.278   1.174   6.612
  735TIP3    H135740   5.268   1.103   6.678
  735TIP3    H235741   5.372   1.196   6.619
  736TIP3   OH235742   4.024   1.568   7.493
  736TIP3    H135743   4.099   1.513   7.520
  736TIP3    H235744   4.003   1.621   7.572
  737TIP3   OH235745   4.151   1.113   6.508
  737TIP3    H135746   4.081   1.150   6.566
  737TIP3    H235747   4.211   1.189   6.503
  738TIP3   OH235748   4.932   0.368   7.606
  738TIP3    H135749   4.987   0.384   7.684
  738TIP3    H235750   4.916   0.273   7.611
  739TIP3   OH235751   5.034   0.314   6.696
  739TIP3    H135752   5.054   0.388   6.637
  739TIP3    H235753   5.072   0.350   6.779
  740TIP3   OH235754   4.789   1.580   6.529
  740TIP3    H135755   4.695   1.593   6.550
  740TIP3    H235756   4.828   1.654   6.576
  741TIP3   OH235757   4.717   0.519   6.760
  741TIP3    H135758   4.803   0.566   6.756
  741TIP3    H235759   4.716   0.482   6.851
  742TIP3   OH235760   4.818   0.635   7.669
  742TIP3    H135761   4.828   0.661   7.764
  742TIP3    H235762   4.857   0.545   7.664
  743TIP3   OH235763   4.824   0.199   6.868
  743TIP3    H135764   4.794   0.278   6.917
  743TIP3    H235765   4.899   0.234   6.817
  744TIP3   OH235766   4.502   1.658   6.556
  744TIP3    H135767   4.530   1.742   6.518
  744TIP3    H235768   4.467   1.684   6.644
  745TIP3   OH235769   4.383   0.329   6.561
  745TIP3    H135770   4.406   0.422   6.587
  745TIP3    H235771   4.464   0.284   6.593
  746TIP3   OH235772   5.396   0.406   7.758
  746TIP3    H135773   5.299   0.414   7.750
  746TIP3    H235774   5.419   0.356   7.677
  747TIP3   OH235775   5.311   0.786   7.150
  747TIP3    H135776   5.228   0.735   7.151
  747TIP3    H235777   5.374   0.726   7.198
  748TIP3   OH235778   5.362   1.683   7.302
  748TIP3    H135779   5.375   1.751   7.233
  748TIP3    H235780   5.453   1.681   7.339
  749TIP3   OH235781   4.170   0.156   7.203
  749TIP3    H135782   4.145   0.144   7.109
  749TIP3    H235783   4.129   0.077   7.248
  750TIP3   OH235784   3.966   1.491   6.823
  750TIP3    H135785   3.914   1.547   6.882
  750TIP3    H235786   3.979   1.553   6.747
  751TIP3   OH235787   3.928   1.797   7.960
  751TIP3    H135788   3.987   1.787   8.039
  751TIP3    H235789   3.901   1.704   7.950
  752TIP3   OH235790   4.432   1.613   8.140
  752TIP3    H135791   4.527   1.599   8.125
  752TIP3    H235792   4.395   1.565   8.064
  753TIP3   OH235793   5.038   1.528   7.988
  753TIP3    H135794   5.019   1.438   8.023
  753TIP3    H235795   5.128   1.540   8.024
  754TIP3   OH235796   3.916   1.130   8.038
  754TIP3    H135797   3.882   1.040   8.033
  754TIP3    H235798   3.877   1.172   7.958
  755TIP3   OH235799   4.595   1.136   7.940
  755TIP3    H135800   4.566   1.195   7.867
  755TIP3    H235801   4.591   1.045   7.900
  756TIP3   OH235802   5.172   1.123   7.755
  756TIP3    H135803   5.261   1.164   7.752
  756TIP3    H235804   5.121   1.206   7.762
  757TIP3   OH235805   4.047   0.831   7.997
  757TIP3    H135806   4.101   0.756   8.027
  757TIP3    H235807   4.076   0.903   8.056
  758TIP3   OH235808   4.491   1.004   6.515
  758TIP3    H135809   4.413   0.961   6.556
  758TIP3    H235810   4.537   0.933   6.469
  759TIP3   OH235811   4.412   0.766   7.694
  759TIP3    H135812   4.343   0.835   7.690
  759TIP3    H235813   4.476   0.801   7.628
  760TIP3   OH235814   4.939   1.031   8.068
  760TIP3    H135815   5.001   0.985   8.010
  760TIP3    H235816   4.908   0.960   8.128
  761TIP3   OH235817   4.499   0.536   7.789
  761TIP3    H135818   4.509   0.475   7.714
  761TIP3    H235819   4.487   0.622   7.743
  762TIP3   OH235820   4.527   0.333   7.595
  762TIP3    H135821   4.565   0.379   7.517
  762TIP3    H235822   4.434   0.321   7.564
  763TIP3   OH235823   4.633   0.902   7.591
  763TIP3    H135824   4.727   0.913   7.573
  763TIP3    H235825   4.594   0.983   7.552
  764TIP3   OH235826   5.045   0.662   8.116
  764TIP3    H135827   5.056   0.565   8.122
  764TIP3    H235828   5.135   0.690   8.095
  765TIP3   OH235829   5.226   0.961   7.959
  765TIP3    H135830   5.196   1.014   7.881
  765TIP3    H235831   5.321   0.954   7.941
  766TIP3   OH235832   4.301   0.635   8.027
  766TIP3    H135833   4.243   0.562   7.995
  766TIP3    H235834   4.377   0.627   7.967
  767TIP3   OH235835   4.581   0.081   7.605
  767TIP3    H135836   4.570   0.175   7.634
  767TIP3    H235837   4.532   0.086   7.520
  768TIP3   OH235838   4.711   0.518   7.993
  768TIP3    H135839   4.688   0.481   8.081
  768TIP3    H235840   4.634   0.491   7.939
  769TIP3   OH235841   4.975   0.437   7.897
  769TIP3    H135842   4.885   0.429   7.934
  769TIP3    H235843   5.027   0.383   7.962
  770TIP3   OH235844   5.120   0.296   8.062
  770TIP3    H135845   5.147   0.202   8.056
  770TIP3    H235846   5.117   0.312   8.158
  771TIP3   OH235847   4.114   0.424   8.014
  771TIP3    H135848   4.103   0.347   7.953
  771TIP3    H235849   4.101   0.381   8.102
  772TIP3   OH235850   4.524   9.359   7.877
  772TIP3    H135851   4.609   9.329   7.914
  772TIP3    H235852   4.550   9.381   7.785
  773TIP3   OH235853   4.617   0.203   8.038
  773TIP3    H135854   4.568   0.143   7.980
  773TIP3    H235855   4.547   0.265   8.069
  774TIP3   OH235856   3.817   1.842   6.874
  774TIP3    H135857   3.751   1.787   6.828
  774TIP3    H235858   3.841   1.780   6.946
  775TIP3   OH235859   3.895   1.671   7.067
  775TIP3    H135860   3.836   1.628   7.132
  775TIP3    H235861   3.966   1.700   7.128
  776TIP3   OH235862   5.633   1.752   7.331
  776TIP3    H135863   5.674   1.764   7.418
  776TIP3    H235864   5.703   1.773   7.269
  777TIP3   OH235865   5.604   1.707   7.637
  777TIP3    H135866   5.572   1.628   7.587
  777TIP3    H235867   5.631   1.662   7.720
  778TIP3   OH235868   5.479   1.285   8.124
  778TIP3    H135869   5.391   1.297   8.165
  778TIP3    H235870   5.523   1.367   8.156
  779TIP3   OH235871   5.623   0.949   6.834
  779TIP3    H135872   5.545   0.898   6.863
  779TIP3    H235873   5.675   0.954   6.917
  780TIP3   OH235874   5.582   1.210   7.318
  780TIP3    H135875   5.653   1.145   7.297
  780TIP3    H235876   5.626   1.294   7.295
  781TIP3   OH235877   5.467   1.485   7.559
  781TIP3    H135878   5.394   1.521   7.612
  781TIP3    H235879   5.422   1.461   7.474
  782TIP3   OH235880   5.452   0.614   6.386
  782TIP3    H135881   5.436   0.669   6.309
  782TIP3    H235882   5.432   0.528   6.339
  783TIP3   OH235883   5.433   0.783   6.916
  783TIP3    H135884   5.391   0.697   6.894
  783TIP3    H235885   5.405   0.792   7.011
  784TIP3   OH235886   3.907   1.010   7.309
  784TIP3    H135887   3.905   0.978   7.216
  784TIP3    H235888   3.999   0.985   7.335
  785TIP3   OH235889   5.506   0.978   7.879
  785TIP3    H135890   5.553   0.892   7.881
  785TIP3    H235891   5.574   1.038   7.843
  786TIP3   OH235892   5.614   0.735   7.947
  786TIP3    H135893   5.525   0.699   7.929
  786TIP3    H235894   5.673   0.655   7.943
  787TIP3   OH235895   5.363   0.544   6.783
  787TIP3    H135896   5.384   0.447   6.783
  787TIP3    H235897   5.439   0.571   6.731
  788TIP3   OH235898   5.478   0.612   7.279
  788TIP3    H135899   5.577   0.619   7.285
  788TIP3    H235900   5.456   0.617   7.374
  789TIP3   OH235901   5.455   0.668   7.540
  789TIP3    H135902   5.363   0.694   7.560
  789TIP3    H235903   5.500   0.755   7.532
  790TIP3   OH235904   3.899   0.534   7.900
  790TIP3    H135905   3.977   0.510   7.955
  790TIP3    H235906   3.849   0.449   7.898
  791TIP3   OH235907   5.660   0.122   8.083
  791TIP3    H135908   5.712   0.053   8.038
  791TIP3    H235909   5.653   0.189   8.012
  792TIP3   OH235910   5.440   0.293   6.753
  792TIP3    H135911   5.479   0.243   6.828
  792TIP3    H235912   5.386   0.224   6.710
  793TIP3   OH235913   3.989   0.362   7.204
  793TIP3    H135914   4.031   0.276   7.219
  793TIP3    H235915   4.066   0.420   7.214
  794TIP3   OH235916   3.837   0.644   7.314
  794TIP3    H135917   3.891   0.619   7.237
  794TIP3    H235918   3.880   0.723   7.344
  795TIP3   OH235919   5.630   0.311   7.884
  795TIP3    H135920   5.539   0.341   7.903
  795TIP3    H235921   5.609   0.241   7.819
  796TIP3   OH235922   3.819   0.235   6.704
  796TIP3    H135923   3.733   0.271   6.731
  796TIP3    H235924   3.860   0.311   6.659
  797TIP3   OH235925   5.341   1.767   6.906
  797TIP3    H135926   5.406   1.744   6.836
  797TIP3    H235927   5.394   1.811   6.975
  798TIP3   OH235928   3.888   0.132   7.539
  798TIP3    H135929   3.831   0.120   7.617
  798TIP3    H235930   3.846   0.206   7.491
  799TIP3   OH235931   4.078   1.442   7.942
  799TIP3    H135932   3.994   1.481   7.913
  799TIP3    H235933   4.059   1.420   8.033
  800TIP3   OH235934   4.359   1.583   7.603
  800TIP3    H135935   4.354   1.678   7.580
  800TIP3    H235936   4.457   1.574   7.602
  801TIP3   OH235937   4.774   1.705   7.869
  801TIP3    H135938   4.785   1.696   7.965
  801TIP3    H235939   4.861   1.741   7.843
  802TIP3   OH235940   4.996   1.863   7.833
  802TIP3    H135941   5.079   1.820   7.810
  802TIP3    H235942   5.022   1.919   7.909
  803TIP3   OH235943   5.557   0.100   7.711
  803TIP3    H135944   5.490   0.144   7.654
  803TIP3    H235945   5.568   0.013   7.665
  804TIP3   OH235946   4.092   1.909   7.581
  804TIP3    H135947   4.015   1.965   7.555
  804TIP3    H235948   4.095   1.930   7.676
  805TIP3   OH235949   4.335   1.848   7.485
  805TIP3    H135950   4.243   1.869   7.512
  805TIP3    H235951   4.355   1.919   7.421
  806TIP3   OH235952   4.812   1.807   7.414
  806TIP3    H135953   4.735   1.851   7.373
  806TIP3    H235954   4.845   1.880   7.470
  807TIP3   OH235955   5.030   1.683   7.557
  807TIP3    H135956   4.960   1.715   7.497
  807TIP3    H235957   5.101   1.746   7.533
  808TIP3   OH235958   5.294   1.835   7.518
  808TIP3    H135959   5.311   1.928   7.497
  808TIP3    H235960   5.322   1.792   7.434
  809TIP3   OH235961   4.060   1.742   7.284
  809TIP3    H135962   4.042   1.680   7.358
  809TIP3    H235963   4.153   1.716   7.261
  810TIP3   OH235964   4.285   1.653   7.156
  810TIP3    H135965   4.261   1.563   7.183
  810TIP3    H235966   4.374   1.661   7.198
  811TIP3   OH235967   4.515   1.655   7.289
  811TIP3    H135968   4.533   1.562   7.271
  811TIP3    H235969   4.533   1.658   7.385
  812TIP3   OH235970   4.903   0.259   7.174
  812TIP3    H135971   4.821   0.206   7.178
  812TIP3    H235972   4.947   0.215   7.100
  813TIP3   OH235973   5.369   0.045   7.115
  813TIP3    H135974   5.432   0.112   7.079
  813TIP3    H235975   5.282   0.086   7.097
  814TIP3   OH235976   5.560   0.159   6.954
  814TIP3    H135977   5.621   0.097   6.911
  814TIP3    H235978   5.620   0.234   6.980
  815TIP3   OH235979   4.111   0.123   6.946
  815TIP3    H135980   4.017   0.108   6.926
  815TIP3    H235981   4.150   0.035   6.929
  816TIP3   OH235982   4.019   0.144   6.542
  816TIP3    H135983   4.039   0.239   6.543
  816TIP3    H235984   3.950   0.143   6.612
  817TIP3   OH235985   4.536   0.087   6.943
  817TIP3    H135986   4.620   0.123   6.908
  817TIP3    H235987   4.553   0.094   7.039
  818TIP3   OH235988   5.117   0.111   7.037
  818TIP3    H135989   5.092   0.105   6.943
  818TIP3    H235990   5.067   0.039   7.081
  819TIP3   OH235991   5.229   0.128   6.647
  819TIP3    H135992   5.164   0.195   6.619
  819TIP3    H235993   5.170   0.062   6.688
  820TIP3   OH235994   3.966   1.671   6.628
  820TIP3    H135995   3.881   1.682   6.580
  820TIP3    H235996   4.008   1.751   6.592
  821TIP3   OH235997   4.167   0.366   6.419
  821TIP3    H135998   4.188   0.275   6.393
  821TIP3    H235999   4.244   0.387   6.477
  822TIP3   OH236000   4.642   0.279   6.627
  822TIP3    H136001   4.724   0.239   6.661
  822TIP3    H236002   4.660   0.373   6.644
  823TIP3   OH236003   4.872   1.826   6.430
  823TIP3    H136004   4.968   1.803   6.425
  823TIP3    H236005   4.835   1.751   6.380
  824TIP3   OH236006   5.513   1.713   6.712
  824TIP3    H136007   5.507   1.623   6.671
  824TIP3    H236008   5.490   1.769   6.636
  825TIP3   OH236009   4.053   0.179   7.861
  825TIP3    H136010   3.984   0.112   7.845
  825TIP3    H236011   4.118   0.129   7.915
  826TIP3   OH236012   4.280   0.091   8.033
  826TIP3    H136013   4.376   0.096   8.018
  826TIP3    H236014   4.267  -0.004   8.022
  827TIP3   OH236015   5.190   9.372   8.039
  827TIP3    H136016   5.158   9.313   8.108
  827TIP3    H236017   5.278   9.334   8.023
  828TIP3   OH236018   5.457   1.624   7.926
  828TIP3    H136019   5.384   1.611   7.862
  828TIP3    H236020   5.436   1.713   7.958
  829TIP3   OH236021   6.925   1.018   6.922
  829TIP3    H136022   6.948   1.103   6.963
  829TIP3    H236023   6.843   1.042   6.876
  830TIP3   OH236024   6.800   0.894   7.262
  830TIP3    H136025   6.801   0.860   7.354
  830TIP3    H236026   6.720   0.852   7.224
  831TIP3   OH236027   5.992   0.899   7.400
  831TIP3    H136028   5.986   0.821   7.458
  831TIP3    H236029   6.077   0.935   7.430
  832TIP3   OH236030   7.125   1.182   7.107
  832TIP3    H136031   7.096   1.122   7.178
  832TIP3    H236032   7.142   1.263   7.157
  833TIP3   OH236033   6.095   1.360   7.235
  833TIP3    H136034   6.068   1.269   7.212
  833TIP3    H236035   6.190   1.349   7.221
  834TIP3   OH236036   5.800   0.686   6.815
  834TIP3    H136037   5.759   0.774   6.807
  834TIP3    H236038   5.731   0.638   6.863
  835TIP3   OH236039   5.791   0.938   7.049
  835TIP3    H136040   5.824   0.846   7.061
  835TIP3    H236041   5.873   0.991   7.049
  836TIP3   OH236042   6.863   1.735   7.095
  836TIP3    H136043   6.936   1.683   7.055
  836TIP3    H236044   6.846   1.679   7.171
  837TIP3   OH236045   6.602   1.184   7.368
  837TIP3    H136046   6.620   1.113   7.305
  837TIP3    H236047   6.693   1.218   7.385
  838TIP3   OH236048   7.474   0.302   7.362
  838TIP3    H136049   7.484   0.372   7.431
  838TIP3    H236050   7.552   0.321   7.307
  839TIP3   OH236051   6.971   0.624   7.373
  839TIP3    H136052   7.003   0.533   7.387
  839TIP3    H236053   6.947   0.622   7.278
  840TIP3   OH236054   6.287   0.408   7.030
  840TIP3    H136055   6.295   0.494   6.983
  840TIP3    H236056   6.226   0.359   6.971
  841TIP3   OH236057   7.026   0.396   6.888
  841TIP3    H136058   7.076   0.369   6.967
  841TIP3    H236059   7.063   0.485   6.876
  842TIP3   OH236060   5.905   0.698   7.126
  842TIP3    H136061   5.977   0.671   7.185
  842TIP3    H236062   5.931   0.643   7.049
  843TIP3   OH236063   6.373   0.814   7.086
  843TIP3    H136064   6.464   0.780   7.100
  843TIP3    H236065   6.334   0.742   7.032
  844TIP3   OH236066   7.511   0.464   7.580
  844TIP3    H136067   7.458   0.545   7.561
  844TIP3    H236068   7.509   0.465   7.677
  845TIP3   OH236069   6.176   0.335   7.467
  845TIP3    H136070   6.140   0.382   7.388
  845TIP3    H236071   6.103   0.350   7.531
  846TIP3   OH236072   6.838   1.290   6.828
  846TIP3    H136073   6.772   1.257   6.764
  846TIP3    H236074   6.828   1.386   6.818
  847TIP3   OH236075   6.369   1.086   7.461
  847TIP3    H136076   6.307   1.156   7.492
  847TIP3    H236077   6.447   1.140   7.433
  848TIP3   OH236078   7.177   0.401   7.134
  848TIP3    H136079   7.135   0.364   7.214
  848TIP3    H236080   7.271   0.402   7.158
  849TIP3   OH236081   6.115   0.527   7.245
  849TIP3    H136082   6.180   0.587   7.287
  849TIP3    H236083   6.168   0.483   7.176
  850TIP3   OH236084   6.235   1.297   7.547
  850TIP3    H136085   6.212   1.366   7.483
  850TIP3    H236086   6.150   1.293   7.599
  851TIP3   OH236087   5.831   1.258   6.635
  851TIP3    H136088   5.828   1.324   6.562
  851TIP3    H236089   5.829   1.312   6.716
  852TIP3   OH236090   7.197   1.410   7.313
  852TIP3    H136091   7.105   1.440   7.327
  852TIP3    H236092   7.234   1.493   7.278
  853TIP3   OH236093   7.293   0.215   7.547
  853TIP3    H136094   7.204   0.227   7.509
  853TIP3    H236095   7.348   0.230   7.466
  854TIP3   OH236096   6.544   0.110   7.201
  854TIP3    H136097   6.572   0.021   7.226
  854TIP3    H236098   6.460   0.122   7.252
  855TIP3   OH236099   7.058   1.571   7.016
  855TIP3    H136100   7.060   1.501   6.949
  855TIP3    H236101   7.138   1.623   6.992
  856TIP3   OH236102   7.168   1.356   6.845
  856TIP3    H136103   7.141   1.303   6.768
  856TIP3    H236104   7.156   1.294   6.919
  857TIP3   OH236105   7.294   1.241   7.705
  857TIP3    H136106   7.307   1.168   7.640
  857TIP3    H236107   7.319   1.318   7.650
  858TIP3   OH236108   6.765   0.936   6.665
  858TIP3    H136109   6.715   1.020   6.653
  858TIP3    H236110   6.833   0.938   6.596
  859TIP3   OH236111   7.514   0.890   7.480
  859TIP3    H136112   7.447   0.962   7.482
  859TIP3    H236113   7.577   0.926   7.415
  860TIP3   OH236114   7.141   0.913   6.776
  860TIP3    H136115   7.071   0.951   6.835
  860TIP3    H236116   7.204   0.877   6.841
  861TIP3   OH236117   7.115   0.776   7.692
  861TIP3    H136118   7.129   0.868   7.720
  861TIP3    H236119   7.036   0.789   7.635
  862TIP3   OH236120   6.289   1.006   6.930
  862TIP3    H136121   6.254   0.966   6.848
  862TIP3    H236122   6.327   0.929   6.977
  863TIP3   OH236123   6.393   1.334   7.226
  863TIP3    H136124   6.418   1.319   7.133
  863TIP3    H236125   6.462   1.285   7.275
  864TIP3   OH236126   6.271   0.889   7.323
  864TIP3    H136127   6.308   0.883   7.232
  864TIP3    H236128   6.328   0.957   7.366
  865TIP3   OH236129   6.946   1.465   7.393
  865TIP3    H136130   6.919   1.517   7.469
  865TIP3    H236131   6.936   1.373   7.427
  866TIP3   OH236132   6.397   1.324   7.764
  866TIP3    H136133   6.327   1.380   7.804
  866TIP3    H236134   6.356   1.308   7.676
  867TIP3   OH236135   7.016   0.886   6.541
  867TIP3    H136136   7.052   0.875   6.633
  867TIP3    H236137   7.065   0.965   6.515
  868TIP3   OH236138   6.105   0.949   7.668
  868TIP3    H136139   6.120   1.039   7.700
  868TIP3    H236140   6.025   0.926   7.716
  869TIP3   OH236141   6.789   1.584   6.827
  869TIP3    H136142   6.776   1.598   6.922
  869TIP3    H236143   6.719   1.637   6.786
  870TIP3   OH236144   6.220   1.501   7.873
  870TIP3    H136145   6.208   1.545   7.786
  870TIP3    H236146   6.127   1.475   7.890
  871TIP3   OH236147   7.363   0.103   6.540
  871TIP3    H136148   7.275   0.114   6.582
  871TIP3    H236149   7.357   0.172   6.474
  872TIP3   OH236150   6.156   0.907   6.684
  872TIP3    H136151   6.136   0.991   6.634
  872TIP3    H236152   6.072   0.860   6.676
  873TIP3   OH236153   7.542   1.486   6.403
  873TIP3    H136154   7.553   1.583   6.389
  873TIP3    H236155   7.617   1.448   6.357
  874TIP3   OH236156   5.807   1.155   7.607
  874TIP3    H136157   5.766   1.134   7.521
  874TIP3    H236158   5.826   1.065   7.639
  875TIP3   OH236159   5.776   1.442   7.267
  875TIP3    H136160   5.870   1.416   7.264
  875TIP3    H236161   5.778   1.510   7.336
  876TIP3   OH236162   7.569   1.503   7.853
  876TIP3    H136163   7.562   1.407   7.870
  876TIP3    H236164   7.487   1.534   7.898
  877TIP3   OH236165   6.648   1.442   7.761
  877TIP3    H136166   6.667   1.512   7.826
  877TIP3    H236167   6.556   1.413   7.779
  878TIP3   OH236168   6.704   1.866   6.660
  878TIP3    H136169   6.760   1.933   6.616
  878TIP3    H236170   6.707   1.901   6.752
  879TIP3   OH236171   6.069   1.732   6.914
  879TIP3    H136172   6.104   1.703   7.002
  879TIP3    H236173   6.000   1.663   6.897
  880TIP3   OH236174   6.993   1.751   6.685
  880TIP3    H136175   6.906   1.771   6.723
  880TIP3    H236176   7.013   1.668   6.731
  881TIP3   OH236177   7.262   0.640   7.898
  881TIP3    H136178   7.219   0.689   7.825
  881TIP3    H236179   7.268   0.550   7.860
  882TIP3   OH236180   6.018   1.294   7.697
  882TIP3    H136181   6.019   1.258   7.789
  882TIP3    H236182   5.932   1.258   7.664
  883TIP3   OH236183   6.315   0.157   7.324
  883TIP3    H136184   6.239   0.143   7.263
  883TIP3    H236185   6.267   0.215   7.387
  884TIP3   OH236186   6.738   0.106   7.570
  884TIP3    H136187   6.777   0.078   7.654
  884TIP3    H236188   6.644   0.116   7.592
  885TIP3   OH236189   7.027   0.521   7.715
  885TIP3    H136190   6.964   0.503   7.790
  885TIP3    H236191   7.054   0.613   7.736
  886TIP3   OH236192   6.720   0.359   6.366
  886TIP3    H136193   6.747   0.357   6.459
  886TIP3    H236194   6.695   0.266   6.354
  887TIP3   OH236195   6.289   0.645   7.435
  887TIP3    H136196   6.196   0.638   7.462
  887TIP3    H236197   6.290   0.736   7.399
  888TIP3   OH236198   6.274   0.638   6.897
  888TIP3    H136199   6.178   0.620   6.887
  888TIP3    H236200   6.310   0.619   6.808
  889TIP3   OH236201   6.834   0.693   6.771
  889TIP3    H136202   6.819   0.788   6.750
  889TIP3    H236203   6.903   0.667   6.706
  890TIP3   OH236204   6.737   0.743   7.914
  890TIP3    H136205   6.692   0.663   7.950
  890TIP3    H236206   6.818   0.744   7.969
  891TIP3   OH236207   6.927   0.680   7.098
  891TIP3    H136208   6.917   0.770   7.063
  891TIP3    H236209   6.904   0.630   7.018
  892TIP3   OH236210   6.030   0.651   7.544
  892TIP3    H136211   6.063   0.679   7.632
  892TIP3    H236212   5.985   0.566   7.564
  893TIP3   OH236213   5.722   0.381   6.986
  893TIP3    H136214   5.788   0.380   7.058
  893TIP3    H236215   5.775   0.365   6.906
  894TIP3   OH236216   5.850   0.445   6.519
  894TIP3    H136217   5.923   0.504   6.497
  894TIP3    H236218   5.779   0.510   6.541
  895TIP3   OH236219   6.845   0.813   7.514
  895TIP3    H136220   6.899   0.744   7.468
  895TIP3    H236221   6.785   0.755   7.567
  896TIP3   OH236222   6.569   0.400   7.004
  896TIP3    H136223   6.474   0.374   7.005
  896TIP3    H236224   6.594   0.377   7.096
  897TIP3   OH236225   5.999   0.537   6.923
  897TIP3    H136226   5.937   0.571   6.855
  897TIP3    H236227   6.035   0.456   6.879
  898TIP3   OH236228   6.375   0.609   6.644
  898TIP3    H136229   6.466   0.594   6.679
  898TIP3    H236230   6.369   0.705   6.634
  899TIP3   OH236231   7.013   0.311   7.327
  899TIP3    H136232   6.934   0.324   7.382
  899TIP3    H236233   6.972   0.278   7.244
  900TIP3   OH236234   7.274   1.891   7.995
  900TIP3    H136235   7.291   1.909   7.901
  900TIP3    H236236   7.358   1.921   8.033
  901TIP3   OH236237   6.047   1.141   7.921
  901TIP3    H136238   6.117   1.149   7.989
  901TIP3    H236239   5.967   1.129   7.977
  902TIP3   OH236240   6.604   0.708   7.184
  902TIP3    H136241   6.690   0.668   7.162
  902TIP3    H236242   6.566   0.641   7.244
  903TIP3   OH236243   6.119   0.315   6.831
  903TIP3    H136244   6.059   0.245   6.866
  903TIP3    H236245   6.188   0.261   6.789
  904TIP3   OH236246   6.515   0.500   7.412
  904TIP3    H136247   6.435   0.554   7.433
  904TIP3    H236248   6.580   0.538   7.474
  905TIP3   OH236249   6.617   1.174   6.662
  905TIP3    H136250   6.546   1.139   6.607
  905TIP3    H236251   6.564   1.198   6.742
  906TIP3   OH236252   7.326   1.082   7.497
  906TIP3    H136253   7.375   1.137   7.430
  906TIP3    H236254   7.238   1.079   7.456
  907TIP3   OH236255   6.687   1.173   7.723
  907TIP3    H136256   6.677   1.154   7.817
  907TIP3    H236257   6.673   1.270   7.722
  908TIP3   OH236258   7.028   0.592   6.589
  908TIP3    H136259   7.113   0.577   6.637
  908TIP3    H236260   7.045   0.679   6.550
  909TIP3   OH236261   6.093   1.085   7.146
  909TIP3    H136262   6.135   1.077   7.058
  909TIP3    H236263   6.143   1.020   7.199
  910TIP3   OH236264   5.759   0.907   7.732
  910TIP3    H136265   5.763   0.837   7.800
  910TIP3    H236266   5.727   0.858   7.654
  911TIP3   OH236267   6.491   0.870   7.883
  911TIP3    H136268   6.433   0.816   7.826
  911TIP3    H236269   6.574   0.817   7.881
  912TIP3   OH236270   6.990   1.398   7.763
  912TIP3    H136271   6.916   1.406   7.700
  912TIP3    H236272   6.955   1.451   7.838
  913TIP3   OH236273   7.517   0.629   6.584
  913TIP3    H136274   7.482   0.575   6.511
  913TIP3    H236275   7.534   0.715   6.539
  914TIP3   OH236276   7.553   1.233   7.824
  914TIP3    H136277   7.465   1.238   7.782
  914TIP3    H236278   7.612   1.223   7.745
  915TIP3   OH236279   7.333   1.521   6.580
  915TIP3    H136280   7.322   1.448   6.643
  915TIP3    H236281   7.395   1.486   6.513
  916TIP3   OH236282   7.079   0.999   7.318
  916TIP3    H136283   6.987   0.970   7.302
  916TIP3    H236284   7.128   0.934   7.264
  917TIP3   OH236285   6.315   1.432   6.939
  917TIP3    H136286   6.380   1.503   6.924
  917TIP3    H236287   6.238   1.466   6.892
  918TIP3   OH236288   6.460   1.208   6.880
  918TIP3    H136289   6.398   1.284   6.886
  918TIP3    H236290   6.405   1.135   6.917
  919TIP3   OH236291   6.512   1.612   7.565
  919TIP3    H136292   6.580   1.675   7.534
  919TIP3    H236293   6.563   1.567   7.636
  920TIP3   OH236294   6.330   1.696   6.819
  920TIP3    H136295   6.241   1.716   6.853
  920TIP3    H236296   6.377   1.776   6.853
  921TIP3   OH236297   6.854   1.208   7.486
  921TIP3    H136298   6.808   1.182   7.569
  921TIP3    H236299   6.905   1.128   7.465
  922TIP3   OH236300   7.165   1.681   7.731
  922TIP3    H136301   7.080   1.638   7.713
  922TIP3    H236302   7.175   1.739   7.652
  923TIP3   OH236303   7.579   1.768   6.422
  923TIP3    H136304   7.650   1.822   6.384
  923TIP3    H236305   7.528   1.828   6.480
  924TIP3   OH236306   5.962   0.369   7.627
  924TIP3    H136307   5.914   0.417   7.697
  924TIP3    H236308   5.949   0.277   7.658
  925TIP3   OH236309   7.204   1.139   6.623
  925TIP3    H136310   7.189   1.066   6.686
  925TIP3    H236311   7.301   1.137   6.613
  926TIP3   OH236312   5.914   1.554   7.507
  926TIP3    H136313   5.988   1.493   7.518
  926TIP3    H236314   5.922   1.606   7.588
  927TIP3   OH236315   6.384   1.400   6.486
  927TIP3    H136316   6.480   1.395   6.493
  927TIP3    H236317   6.370   1.496   6.503
  928TIP3   OH236318   6.064   1.118   6.546
  928TIP3    H136319   5.987   1.166   6.583
  928TIP3    H236320   6.105   1.187   6.489
  929TIP3   OH236321   6.807   0.371   7.612
  929TIP3    H136322   6.878   0.383   7.678
  929TIP3    H236323   6.798   0.275   7.608
  930TIP3   OH236324   6.896   0.315   6.677
  930TIP3    H136325   6.915   0.407   6.652
  930TIP3    H236326   6.952   0.312   6.759
  931TIP3   OH236327   6.688   1.579   6.545
  931TIP3    H136328   6.595   1.572   6.573
  931TIP3    H236329   6.698   1.675   6.552
  932TIP3   OH236330   6.614   0.528   6.771
  932TIP3    H136331   6.687   0.593   6.786
  932TIP3    H236332   6.605   0.489   6.861
  933TIP3   OH236333   6.708   0.632   7.664
  933TIP3    H136334   6.714   0.656   7.760
  933TIP3    H236335   6.743   0.540   7.660
  934TIP3   OH236336   6.706   0.201   6.872
  934TIP3    H136337   6.661   0.282   6.899
  934TIP3    H236338   6.777   0.235   6.814
  935TIP3   OH236339   6.413   1.654   6.563
  935TIP3    H136340   6.428   1.739   6.516
  935TIP3    H236341   6.367   1.682   6.646
  936TIP3   OH236342   6.282   0.362   6.476
  936TIP3    H136343   6.268   0.418   6.554
  936TIP3    H236344   6.358   0.310   6.506
  937TIP3   OH236345   7.284   0.407   7.754
  937TIP3    H136346   7.187   0.415   7.749
  937TIP3    H236347   7.306   0.355   7.674
  938TIP3   OH236348   7.184   0.787   7.139
  938TIP3    H136349   7.117   0.716   7.147
  938TIP3    H236350   7.259   0.744   7.187
  939TIP3   OH236351   6.161   1.335   6.358
  939TIP3    H136352   6.245   1.363   6.402
  939TIP3    H236353   6.198   1.319   6.268
  940TIP3   OH236354   7.266   1.703   7.326
  940TIP3    H136355   7.272   1.764   7.250
  940TIP3    H236356   7.362   1.696   7.348
  941TIP3   OH236357   6.065   0.151   7.212
  941TIP3    H136358   6.043   0.160   7.117
  941TIP3    H236359   6.011   0.073   7.238
  942TIP3   OH236360   5.890   1.538   6.834
  942TIP3    H136361   5.814   1.580   6.877
  942TIP3    H236362   5.882   1.564   6.739
  943TIP3   OH236363   5.820   1.796   7.959
  943TIP3    H136364   5.896   1.780   8.020
  943TIP3    H236365   5.782   1.706   7.955
  944TIP3   OH236366   6.328   1.626   8.136
  944TIP3    H136367   6.420   1.599   8.124
  944TIP3    H236368   6.285   1.579   8.063
  945TIP3   OH236369   6.925   1.529   7.989
  945TIP3    H136370   6.911   1.437   8.023
  945TIP3    H236371   7.015   1.543   8.026
  946TIP3   OH236372   5.794   1.128   8.044
  946TIP3    H136373   5.771   1.035   8.033
  946TIP3    H236374   5.755   1.169   7.963
  947TIP3   OH236375   6.479   1.133   7.944
  947TIP3    H136376   6.453   1.195   7.871
  947TIP3    H236377   6.478   1.044   7.901
  948TIP3   OH236378   7.054   1.119   7.758
  948TIP3    H136379   7.145   1.155   7.751
  948TIP3    H236380   7.011   1.207   7.771
  949TIP3   OH236381   5.931   0.837   7.994
  949TIP3    H136382   5.971   0.753   8.023
  949TIP3    H236383   5.961   0.900   8.062
  950TIP3   OH236384   6.302   0.765   7.698
  950TIP3    H136385   6.232   0.834   7.695
  950TIP3    H236386   6.363   0.796   7.629
  951TIP3   OH236387   6.824   1.030   8.071
  951TIP3    H136388   6.885   0.985   8.011
  951TIP3    H236389   6.793   0.957   8.129
  952TIP3   OH236390   6.393   0.533   7.790
  952TIP3    H136391   6.390   0.471   7.714
  952TIP3    H236392   6.378   0.619   7.746
  953TIP3   OH236393   6.411   0.333   7.592
  953TIP3    H136394   6.454   0.375   7.514
  953TIP3    H236395   6.317   0.330   7.563
  954TIP3   OH236396   6.521   0.898   7.569
  954TIP3    H136397   6.608   0.941   7.575
  954TIP3    H236398   6.464   0.974   7.544
  955TIP3   OH236399   6.953   0.653   8.122
  955TIP3    H136400   6.963   0.556   8.129
  955TIP3    H236401   7.044   0.681   8.104
  956TIP3   OH236402   7.110   0.959   7.967
  956TIP3    H136403   7.083   1.016   7.892
  956TIP3    H236404   7.203   0.939   7.947
  957TIP3   OH236405   6.190   0.630   8.024
  957TIP3    H136406   6.129   0.561   7.989
  957TIP3    H236407   6.264   0.624   7.961
  958TIP3   OH236408   6.471   0.082   7.616
  958TIP3    H136409   6.460   0.178   7.638
  958TIP3    H236410   6.420   0.083   7.533
  959TIP3   OH236411   6.599   0.520   7.994
  959TIP3    H136412   6.583   0.470   8.076
  959TIP3    H236413   6.525   0.491   7.937
  960TIP3   OH236414   6.863   0.439   7.899
  960TIP3    H136415   6.772   0.431   7.935
  960TIP3    H236416   6.913   0.384   7.965
  961TIP3   OH236417   7.006   0.293   8.061
  961TIP3    H136418   7.034   0.199   8.055
  961TIP3    H236419   7.000   0.310   8.157
  962TIP3   OH236420   5.998   0.426   8.011
  962TIP3    H136421   5.985   0.348   7.952
  962TIP3    H236422   5.986   0.386   8.100
  963TIP3   OH236423   6.407   9.359   7.875
  963TIP3    H136424   6.493   9.331   7.909
  963TIP3    H236425   6.427   9.372   7.780
  964TIP3   OH236426   6.503   0.204   8.036
  964TIP3    H136427   6.450   0.141   7.984
  964TIP3    H236428   6.435   0.264   8.074
  965TIP3   OH236429   6.467   1.894   6.428
  965TIP3    H136430   6.533   1.926   6.490
  965TIP3    H236431   6.486   1.953   6.354
  966TIP3   OH236432   5.893   1.378   6.389
  966TIP3    H136433   5.988   1.360   6.375
  966TIP3    H236434   5.864   1.397   6.300
  967TIP3   OH236435   5.691   1.850   6.878
  967TIP3    H136436   5.618   1.793   6.848
  967TIP3    H236437   5.718   1.804   6.960
  968TIP3   OH236438   5.783   1.679   7.066
  968TIP3    H136439   5.728   1.607   7.101
  968TIP3    H236440   5.851   1.692   7.135
  969TIP3   OH236441   7.536   1.755   7.326
  969TIP3    H136442   7.572   1.765   7.416
  969TIP3    H236443   7.580   1.825   7.279
  970TIP3   OH236444   7.499   1.691   7.626
  970TIP3    H136445   7.461   1.621   7.569
  970TIP3    H236446   7.519   1.638   7.705
  971TIP3   OH236447   7.366   1.285   8.131
  971TIP3    H136448   7.279   1.296   8.175
  971TIP3    H236449   7.408   1.371   8.156
  972TIP3   OH236450   7.481   1.112   6.623
  972TIP3    H136451   7.572   1.149   6.633
  972TIP3    H236452   7.466   1.074   6.713
  973TIP3   OH236453   7.479   0.980   6.862
  973TIP3    H136454   7.422   0.902   6.882
  973TIP3    H236455   7.551   0.966   6.927
  974TIP3   OH236456   7.484   1.212   7.334
  974TIP3    H136457   7.546   1.143   7.302
  974TIP3    H236458   7.516   1.290   7.283
  975TIP3   OH236459   7.346   1.478   7.564
  975TIP3    H136460   7.280   1.522   7.620
  975TIP3    H236461   7.294   1.456   7.484
  976TIP3   OH236462   7.543   0.862   6.439
  976TIP3    H136463   7.451   0.889   6.451
  976TIP3    H236464   7.590   0.930   6.487
  977TIP3   OH236465   7.335   0.761   6.920
  977TIP3    H136466   7.294   0.681   6.883
  977TIP3    H236467   7.282   0.775   7.002
  978TIP3   OH236468   5.784   1.026   7.309
  978TIP3    H136469   5.772   0.991   7.218
  978TIP3    H236470   5.879   1.004   7.326
  979TIP3   OH236471   7.400   0.971   7.879
  979TIP3    H136472   7.448   0.885   7.886
  979TIP3    H236473   7.469   1.030   7.843
  980TIP3   OH236474   7.506   0.739   7.955
  980TIP3    H136475   7.421   0.694   7.934
  980TIP3    H236476   7.574   0.669   7.938
  981TIP3   OH236477   7.255   0.565   6.746
  981TIP3    H136478   7.275   0.470   6.764
  981TIP3    H236479   7.343   0.598   6.722
  982TIP3   OH236480   7.355   0.631   7.288
  982TIP3    H136481   7.455   0.630   7.289
  982TIP3    H236482   7.342   0.637   7.384
  983TIP3   OH236483   7.340   0.671   7.555
  983TIP3    H136484   7.248   0.692   7.578
  983TIP3    H236485   7.380   0.760   7.550
  984TIP3   OH236486   5.786   0.534   7.900
  984TIP3    H136487   5.868   0.505   7.946
  984TIP3    H236488   5.733   0.451   7.900
  985TIP3   OH236489   7.539   0.124   8.083
  985TIP3    H136490   7.592   0.059   8.032
  985TIP3    H236491   7.529   0.194   8.015
  986TIP3   OH236492   7.301   0.312   6.793
  986TIP3    H136493   7.339   0.255   6.862
  986TIP3    H236494   7.241   0.251   6.744
  987TIP3   OH236495   5.877   0.346   7.217
  987TIP3    H136496   5.934   0.269   7.239
  987TIP3    H236497   5.941   0.418   7.226
  988TIP3   OH236498   5.733   0.637   7.317
  988TIP3    H136499   5.788   0.618   7.239
  988TIP3    H236500   5.767   0.722   7.344
  989TIP3   OH236501   7.513   0.318   7.891
  989TIP3    H136502   7.421   0.348   7.907
  989TIP3    H236503   7.495   0.244   7.828
  990TIP3   OH236504   5.747   0.280   6.730
  990TIP3    H136505   5.652   0.300   6.717
  990TIP3    H236506   5.788   0.325   6.654
  991TIP3   OH236507   7.233   1.738   6.912
  991TIP3    H136508   7.305   1.744   6.847
  991TIP3    H236509   7.254   1.810   6.976
  992TIP3   OH236510   5.766   0.144   7.535
  992TIP3    H136511   5.711   0.142   7.616
  992TIP3    H236512   5.726   0.215   7.482
  993TIP3   OH236513   5.962   1.442   7.949
  993TIP3    H136514   5.876   1.479   7.925
  993TIP3    H236515   5.945   1.404   8.035
  994TIP3   OH236516   6.243   1.593   7.617
  994TIP3    H136517   6.244   1.686   7.586
  994TIP3    H236518   6.338   1.571   7.608
  995TIP3   OH236519   6.653   1.703   7.879
  995TIP3    H136520   6.671   1.686   7.974
  995TIP3    H236521   6.741   1.738   7.852
  996TIP3   OH236522   6.881   1.870   7.831
  996TIP3    H136523   6.964   1.826   7.808
  996TIP3    H236524   6.907   1.925   7.907
  997TIP3   OH236525   7.457   0.100   7.727
  997TIP3    H136526   7.389   0.141   7.670
  997TIP3    H236527   7.476   0.016   7.677
  998TIP3   OH236528   5.989   1.904   7.585
  998TIP3    H136529   5.908   1.945   7.549
  998TIP3    H236530   5.979   1.929   7.678
  999TIP3   OH236531   6.229   1.850   7.480
  999TIP3    H136532   6.139   1.871   7.514
  999TIP3    H236533   6.245   1.925   7.419
 1000TIP3   OH236534   6.684   1.800   7.438
 1000TIP3    H136535   6.615   1.848   7.389
 1000TIP3    H236536   6.725   1.876   7.486
 1001TIP3   OH236537   6.911   1.683   7.563
 1001TIP3    H136538   6.840   1.714   7.503
 1001TIP3    H236539   6.984   1.741   7.534
 1002TIP3   OH236540   7.172   1.852   7.527
 1002TIP3    H136541   7.178   1.946   7.498
 1002TIP3    H236542   7.198   1.807   7.444
 1003TIP3   OH236543   5.945   1.729   7.286
 1003TIP3    H136544   5.930   1.672   7.364
 1003TIP3    H236545   6.039   1.711   7.264
 1004TIP3   OH236546   6.173   1.659   7.156
 1004TIP3    H136547   6.150   1.568   7.178
 1004TIP3    H236548   6.261   1.665   7.200
 1005TIP3   OH236549   6.408   1.648   7.286
 1005TIP3    H136550   6.441   1.556   7.274
 1005TIP3    H236551   6.407   1.653   7.383
 1006TIP3   OH236552   6.775   0.281   7.174
 1006TIP3    H136553   6.711   0.212   7.199
 1006TIP3    H236554   6.780   0.270   7.078
 1007TIP3   OH236555   7.251   0.063   7.124
 1007TIP3    H136556   7.322   0.121   7.086
 1007TIP3    H236557   7.170   0.109   7.094
 1008TIP3   OH236558   7.448   0.175   6.972
 1008TIP3    H136559   7.496   0.118   6.909
 1008TIP3    H236560   7.513   0.248   6.989
 1009TIP3   OH236561   5.980   0.122   6.952
 1009TIP3    H136562   5.889   0.100   6.925
 1009TIP3    H236563   6.024   0.034   6.943
 1010TIP3   OH236564   6.418   0.095   6.963
 1010TIP3    H136565   6.500   0.121   6.918
 1010TIP3    H236566   6.446   0.098   7.057
 1011TIP3   OH236567   7.002   0.127   7.035
 1011TIP3    H136568   6.967   0.117   6.946
 1011TIP3    H236569   6.957   0.058   7.087
 1012TIP3   OH236570   7.126   0.168   6.650
 1012TIP3    H136571   7.037   0.203   6.628
 1012TIP3    H236572   7.099   0.083   6.691
 1013TIP3   OH236573   5.851   1.674   6.602
 1013TIP3    H136574   5.772   1.683   6.546
 1013TIP3    H236575   5.849   1.756   6.653
 1014TIP3   OH236576   6.507   0.300   6.633
 1014TIP3    H136577   6.578   0.244   6.667
 1014TIP3    H236578   6.534   0.388   6.663
 1015TIP3   OH236579   7.405   1.749   6.695
 1015TIP3    H136580   7.378   1.665   6.652
 1015TIP3    H236581   7.335   1.810   6.663
 1016TIP3   OH236582   5.939   0.180   7.864
 1016TIP3    H136583   5.868   0.113   7.858
 1016TIP3    H236584   6.009   0.130   7.911
 1017TIP3   OH236585   6.165   0.093   8.045
 1017TIP3    H136586   6.261   0.099   8.032
 1017TIP3    H236587   6.151  -0.001   8.027
 1018TIP3   OH236588   7.073   9.369   8.034
 1018TIP3    H136589   7.039   9.309   8.102
 1018TIP3    H236590   7.164   9.337   8.026
 1019TIP3   OH236591   7.343   1.616   7.931
 1019TIP3    H136592   7.271   1.614   7.864
 1019TIP3    H236593   7.328   1.702   7.973
 1020TIP3   OH236594   8.795   1.013   6.915
 1020TIP3    H136595   8.796   1.111   6.911
 1020TIP3    H236596   8.718   0.994   6.860
 1021TIP3   OH236597   8.663   0.892   7.255
 1021TIP3    H136598   8.688   0.842   7.334
 1021TIP3    H236599   8.607   0.831   7.203
 1022TIP3   OH236600   7.885   0.890   7.392
 1022TIP3    H136601   7.878   0.812   7.450
 1022TIP3    H236602   7.964   0.933   7.431
 1023TIP3   OH236603   9.039   1.251   7.099
 1023TIP3    H136604   9.070   1.174   7.149
 1023TIP3    H236605   9.021   1.314   7.172
 1024TIP3   OH236606   8.008   1.372   7.232
 1024TIP3    H136607   7.973   1.281   7.220
 1024TIP3    H236608   8.103   1.353   7.223
 1025TIP3   OH236609   7.690   0.694   6.787
 1025TIP3    H136610   7.638   0.745   6.851
 1025TIP3    H236611   7.625   0.676   6.716
 1026TIP3   OH236612   7.675   0.914   7.036
 1026TIP3    H136613   7.713   0.826   7.058
 1026TIP3    H236614   7.755   0.964   7.011
 1027TIP3   OH236615   8.735   1.765   7.103
 1027TIP3    H136616   8.801   1.708   7.056
 1027TIP3    H236617   8.722   1.711   7.183
 1028TIP3   OH236618   8.488   1.150   7.350
 1028TIP3    H136619   8.522   1.112   7.267
 1028TIP3    H236620   8.572   1.182   7.390
 1029TIP3   OH236621   9.315   0.347   7.395
 1029TIP3    H136622   9.350   0.418   7.452
 1029TIP3    H236623   9.390   0.335   7.334
 1030TIP3   OH236624   8.839   0.620   7.364
 1030TIP3    H136625   8.843   0.527   7.390
 1030TIP3    H236626   8.852   0.614   7.268
 1031TIP3   OH236627   8.160   0.404   7.021
 1031TIP3    H136628   8.173   0.493   6.981
 1031TIP3    H236629   8.096   0.366   6.957
 1032TIP3   OH236630   8.919   0.473   6.937
 1032TIP3    H136631   8.960   0.419   7.007
 1032TIP3    H236632   8.998   0.499   6.886
 1033TIP3   OH236633   7.795   0.681   7.114
 1033TIP3    H136634   7.863   0.655   7.178
 1033TIP3    H236635   7.826   0.630   7.036
 1034TIP3   OH236636   8.266   0.816   7.084
 1034TIP3    H136637   8.359   0.787   7.096
 1034TIP3    H236638   8.235   0.752   7.016
 1035TIP3   OH236639   8.066   0.329   7.452
 1035TIP3    H136640   8.030   0.375   7.374
 1035TIP3    H236641   7.997   0.349   7.518
 1036TIP3   OH236642   8.750   1.269   6.836
 1036TIP3    H136643   8.706   1.268   6.748
 1036TIP3    H236644   8.713   1.353   6.871
 1037TIP3   OH236645   8.254   1.081   7.468
 1037TIP3    H136646   8.199   1.159   7.494
 1037TIP3    H236647   8.334   1.123   7.431
 1038TIP3   OH236648   9.070   0.395   7.146
 1038TIP3    H136649   9.036   0.329   7.208
 1038TIP3    H236650   9.116   0.457   7.206
 1039TIP3   OH236651   8.005   0.523   7.242
 1039TIP3    H136652   8.068   0.581   7.289
 1039TIP3    H236653   8.060   0.485   7.171
 1040TIP3   OH236654   8.124   1.299   7.548
 1040TIP3    H136655   8.102   1.372   7.489
 1040TIP3    H236656   8.041   1.293   7.602
 1041TIP3   OH236657   7.719   1.248   6.632
 1041TIP3    H136658   7.688   1.307   6.562
 1041TIP3    H236659   7.732   1.312   6.707
 1042TIP3   OH236660   9.060   1.438   7.291
 1042TIP3    H136661   8.968   1.459   7.318
 1042TIP3    H236662   9.102   1.525   7.295
 1043TIP3   OH236663   9.146   0.197   7.526
 1043TIP3    H136664   9.064   0.232   7.488
 1043TIP3    H236665   9.209   0.241   7.466
 1044TIP3   OH236666   8.418   0.095   7.189
 1044TIP3    H136667   8.478   0.031   7.231
 1044TIP3    H236668   8.342   0.092   7.252
 1045TIP3   OH236669   8.902   1.600   6.977
 1045TIP3    H136670   8.938   1.517   6.940
 1045TIP3    H236671   8.975   1.664   6.956
 1046TIP3   OH236672   9.016   1.378   6.843
 1046TIP3    H136673   8.932   1.327   6.844
 1046TIP3    H236674   9.067   1.335   6.914
 1047TIP3   OH236675   9.163   1.237   7.705
 1047TIP3    H136676   9.158   1.189   7.619
 1047TIP3    H236677   9.206   1.319   7.676
 1048TIP3   OH236678   8.652   0.923   6.655
 1048TIP3    H136679   8.593   1.000   6.641
 1048TIP3    H236680   8.737   0.948   6.609
 1049TIP3   OH236681   9.356   0.890   7.459
 1049TIP3    H136682   9.294   0.966   7.469
 1049TIP3    H236683   9.415   0.927   7.389
 1050TIP3   OH236684   9.004   0.903   6.778
 1050TIP3    H136685   8.946   0.956   6.838
 1050TIP3    H236686   9.071   0.869   6.841
 1051TIP3   OH236687   8.994   0.770   7.666
 1051TIP3    H136688   8.993   0.850   7.721
 1051TIP3    H236689   8.927   0.799   7.601
 1052TIP3   OH236690   8.165   1.021   6.949
 1052TIP3    H136691   8.134   0.994   6.859
 1052TIP3    H236692   8.214   0.941   6.979
 1053TIP3   OH236693   8.303   1.350   7.233
 1053TIP3    H136694   8.316   1.336   7.137
 1053TIP3    H236695   8.366   1.288   7.273
 1054TIP3   OH236696   8.162   0.880   7.327
 1054TIP3    H136697   8.196   0.882   7.234
 1054TIP3    H236698   8.214   0.952   7.371
 1055TIP3   OH236699   8.818   1.459   7.401
 1055TIP3    H136700   8.780   1.508   7.476
 1055TIP3    H236701   8.819   1.367   7.435
 1056TIP3   OH236702   8.294   1.332   7.758
 1056TIP3    H136703   8.223   1.381   7.806
 1056TIP3    H236704   8.246   1.313   7.674
 1057TIP3   OH236705   8.890   0.925   6.543
 1057TIP3    H136706   8.916   0.883   6.629
 1057TIP3    H236707   8.975   0.952   6.512
 1058TIP3   OH236708   7.988   0.950   7.659
 1058TIP3    H136709   8.004   1.034   7.705
 1058TIP3    H236710   7.914   0.917   7.714
 1059TIP3   OH236711   8.644   1.519   6.860
 1059TIP3    H136712   8.687   1.576   6.924
 1059TIP3    H236713   8.596   1.581   6.805
 1060TIP3   OH236714   8.107   1.498   7.874
 1060TIP3    H136715   8.098   1.542   7.787
 1060TIP3    H236716   8.013   1.473   7.889
 1061TIP3   OH236717   9.242   0.033   6.525
 1061TIP3    H136718   9.146   0.042   6.548
 1061TIP3    H236719   9.247   0.078   6.440
 1062TIP3   OH236720   8.055   0.907   6.708
 1062TIP3    H136721   8.008   0.983   6.667
 1062TIP3    H236722   7.983   0.844   6.712
 1063TIP3   OH236723   7.693   1.150   7.616
 1063TIP3    H136724   7.646   1.139   7.532
 1063TIP3    H236725   7.711   1.057   7.639
 1064TIP3   OH236726   7.650   1.432   7.263
 1064TIP3    H136727   7.726   1.384   7.301
 1064TIP3    H236728   7.653   1.511   7.319
 1065TIP3   OH236729   8.541   1.452   7.773
 1065TIP3    H136730   8.543   1.520   7.842
 1065TIP3    H236731   8.449   1.417   7.776
 1066TIP3   OH236732   8.609   1.840   6.712
 1066TIP3    H136733   8.517   1.817   6.698
 1066TIP3    H236734   8.604   1.930   6.752
 1067TIP3   OH236735   7.963   1.699   6.909
 1067TIP3    H136736   7.999   1.673   6.996
 1067TIP3    H236737   7.873   1.664   6.913
 1068TIP3   OH236738   8.862   1.754   6.707
 1068TIP3    H136739   8.766   1.772   6.716
 1068TIP3    H236740   8.873   1.674   6.761
 1069TIP3   OH236741   9.134   0.668   7.897
 1069TIP3    H136742   9.090   0.690   7.813
 1069TIP3    H236743   9.181   0.584   7.881
 1070TIP3   OH236744   7.906   1.293   7.704
 1070TIP3    H136745   7.911   1.252   7.793
 1070TIP3    H236746   7.824   1.252   7.669
 1071TIP3   OH236747   8.196   0.111   7.341
 1071TIP3    H136748   8.126   0.109   7.272
 1071TIP3    H236749   8.156   0.182   7.395
 1072TIP3   OH236750   8.634   0.105   7.594
 1072TIP3    H136751   8.669   0.068   7.675
 1072TIP3    H236752   8.538   0.108   7.608
 1073TIP3   OH236753   8.963   0.479   7.671
 1073TIP3    H136754   8.900   0.473   7.746
 1073TIP3    H236755   8.972   0.575   7.661
 1074TIP3   OH236756   8.186   0.636   7.433
 1074TIP3    H136757   8.096   0.628   7.470
 1074TIP3    H236758   8.184   0.730   7.401
 1075TIP3   OH236759   8.174   0.643   6.894
 1075TIP3    H136760   8.077   0.652   6.883
 1075TIP3    H236761   8.200   0.609   6.806
 1076TIP3   OH236762   8.698   0.704   6.789
 1076TIP3    H136763   8.681   0.789   6.744
 1076TIP3    H236764   8.785   0.681   6.748
 1077TIP3   OH236765   8.621   0.746   7.900
 1077TIP3    H136766   8.580   0.661   7.929
 1077TIP3    H236767   8.703   0.743   7.952
 1078TIP3   OH236768   8.807   0.701   7.082
 1078TIP3    H136769   8.783   0.784   7.036
 1078TIP3    H236770   8.821   0.643   7.004
 1079TIP3   OH236771   7.917   0.638   7.538
 1079TIP3    H136772   7.952   0.669   7.623
 1079TIP3    H236773   7.883   0.549   7.562
 1080TIP3   OH236774   7.616   0.395   6.998
 1080TIP3    H136775   7.675   0.390   7.077
 1080TIP3    H236776   7.676   0.390   6.924
 1081TIP3   OH236777   7.706   0.437   6.574
 1081TIP3    H136778   7.739   0.475   6.492
 1081TIP3    H236779   7.656   0.512   6.612
 1082TIP3   OH236780   8.754   0.847   7.508
 1082TIP3    H136781   8.793   0.768   7.465
 1082TIP3    H236782   8.690   0.805   7.569
 1083TIP3   OH236783   8.448   0.395   6.996
 1083TIP3    H136784   8.355   0.365   6.998
 1083TIP3    H236785   8.476   0.373   7.087
 1084TIP3   OH236786   7.904   0.572   6.883
 1084TIP3    H136787   7.827   0.607   6.831
 1084TIP3    H236788   7.920   0.485   6.842
 1085TIP3   OH236789   8.242   0.567   6.631
 1085TIP3    H136790   8.338   0.561   6.653
 1085TIP3    H236791   8.226   0.662   6.618
 1086TIP3   OH236792   8.887   0.294   7.335
 1086TIP3    H136793   8.812   0.311   7.394
 1086TIP3    H236794   8.840   0.267   7.254
 1087TIP3   OH236795   9.145   1.872   7.999
 1087TIP3    H136796   9.170   1.910   7.911
 1087TIP3    H236797   9.209   1.919   8.056
 1088TIP3   OH236798   7.940   1.117   7.925
 1088TIP3    H136799   8.002   1.121   8.000
 1088TIP3    H236800   7.854   1.118   7.972
 1089TIP3   OH236801   8.506   0.688   7.157
 1089TIP3    H136802   8.582   0.631   7.136
 1089TIP3    H236803   8.455   0.632   7.217
 1090TIP3   OH236804   8.002   0.318   6.820
 1090TIP3    H136805   7.935   0.256   6.854
 1090TIP3    H236806   8.069   0.256   6.789
 1091TIP3   OH236807   8.417   0.498   7.421
 1091TIP3    H136808   8.337   0.555   7.434
 1091TIP3    H236809   8.482   0.543   7.478
 1092TIP3   OH236810   8.459   1.111   6.653
 1092TIP3    H136811   8.382   1.072   6.605
 1092TIP3    H236812   8.417   1.154   6.731
 1093TIP3   OH236813   9.177   1.102   7.485
 1093TIP3    H136814   9.231   1.158   7.425
 1093TIP3    H236815   9.100   1.078   7.427
 1094TIP3   OH236816   8.880   0.389   6.501
 1094TIP3    H136817   8.891   0.312   6.441
 1094TIP3    H236818   8.919   0.461   6.449
 1095TIP3   OH236819   8.607   1.191   7.737
 1095TIP3    H136820   8.560   1.161   7.816
 1095TIP3    H236821   8.586   1.286   7.739
 1096TIP3   OH236822   8.913   0.649   6.637
 1096TIP3    H136823   8.988   0.614   6.689
 1096TIP3    H236824   8.953   0.647   6.550
 1097TIP3   OH236825   7.984   1.092   7.166
 1097TIP3    H136826   8.044   1.080   7.090
 1097TIP3    H236827   8.008   1.017   7.223
 1098TIP3   OH236828   8.645   1.276   6.567
 1098TIP3    H136829   8.589   1.355   6.567
 1098TIP3    H236830   8.580   1.206   6.592
 1099TIP3   OH236831   7.644   0.904   7.737
 1099TIP3    H136832   7.651   0.831   7.802
 1099TIP3    H236833   7.608   0.860   7.659
 1100TIP3   OH236834   8.379   0.873   7.886
 1100TIP3    H136835   8.335   0.826   7.813
 1100TIP3    H236836   8.466   0.829   7.889
 1101TIP3   OH236837   8.868   1.403   7.741
 1101TIP3    H136838   8.780   1.429   7.710
 1101TIP3    H236839   8.856   1.423   7.835
 1102TIP3   OH236840   9.231   1.515   6.590
 1102TIP3    H136841   9.190   1.472   6.667
 1102TIP3    H236842   9.159   1.514   6.526
 1103TIP3   OH236843   8.991   0.999   7.317
 1103TIP3    H136844   8.894   0.987   7.321
 1103TIP3    H236845   9.016   0.928   7.254
 1104TIP3   OH236846   8.213   1.442   6.924
 1104TIP3    H136847   8.241   1.534   6.905
 1104TIP3    H236848   8.121   1.444   6.893
 1105TIP3   OH236849   8.379   1.214   6.896
 1105TIP3    H136850   8.321   1.293   6.888
 1105TIP3    H236851   8.321   1.150   6.942
 1106TIP3   OH236852   8.400   1.622   7.579
 1106TIP3    H136853   8.462   1.690   7.550
 1106TIP3    H236854   8.458   1.575   7.641
 1107TIP3   OH236855   8.214   1.707   6.795
 1107TIP3    H136856   8.122   1.708   6.830
 1107TIP3    H236857   8.246   1.788   6.841
 1108TIP3   OH236858   8.716   1.196   7.481
 1108TIP3    H136859   8.694   1.190   7.577
 1108TIP3    H236860   8.739   1.104   7.462
 1109TIP3   OH236861   9.020   1.652   7.722
 1109TIP3    H136862   8.938   1.608   7.691
 1109TIP3    H236863   9.042   1.714   7.649
 1110TIP3   OH236864   7.853   0.367   7.627
 1110TIP3    H136865   7.803   0.417   7.694
 1110TIP3    H236866   7.830   0.276   7.653
 1111TIP3   OH236867   7.809   1.565   7.486
 1111TIP3    H136868   7.877   1.503   7.518
 1111TIP3    H236869   7.799   1.626   7.559
 1112TIP3   OH236870   8.292   1.378   6.483
 1112TIP3    H136871   8.219   1.337   6.434
 1112TIP3    H236872   8.266   1.472   6.484
 1113TIP3   OH236873   7.922   1.070   6.558
 1113TIP3    H136874   7.864   1.145   6.578
 1113TIP3    H236875   7.978   1.108   6.485
 1114TIP3   OH236876   8.730   0.360   7.574
 1114TIP3    H136877   8.820   0.375   7.608
 1114TIP3    H236878   8.704   0.277   7.617
 1115TIP3   OH236879   8.779   0.333   6.757
 1115TIP3    H136880   8.815   0.361   6.670
 1115TIP3    H236881   8.822   0.399   6.816
 1116TIP3   OH236882   8.552   1.558   6.511
 1116TIP3    H136883   8.467   1.585   6.551
 1116TIP3    H236884   8.521   1.497   6.442
 1117TIP3   OH236885   8.498   0.520   6.750
 1117TIP3    H136886   8.570   0.586   6.765
 1117TIP3    H236887   8.482   0.487   6.842
 1118TIP3   OH236888   8.609   0.630   7.642
 1118TIP3    H136889   8.605   0.660   7.736
 1118TIP3    H236890   8.641   0.538   7.646
 1119TIP3   OH236891   8.578   0.193   6.870
 1119TIP3    H136892   8.539   0.276   6.902
 1119TIP3    H236893   8.657   0.228   6.821
 1120TIP3   OH236894   8.297   1.633   6.549
 1120TIP3    H136895   8.268   1.704   6.490
 1120TIP3    H236896   8.252   1.656   6.633
 1121TIP3   OH236897   9.211   0.423   7.787
 1121TIP3    H136898   9.122   0.458   7.771
 1121TIP3    H236899   9.231   0.392   7.698
 1122TIP3   OH236900   9.046   0.782   7.159
 1122TIP3    H136901   8.964   0.729   7.143
 1122TIP3    H236902   9.099   0.721   7.214
 1123TIP3   OH236903   7.798   0.634   6.296
 1123TIP3    H136904   7.788   0.716   6.346
 1123TIP3    H236905   7.708   0.614   6.268
 1124TIP3   OH236906   9.206   1.681   7.324
 1124TIP3    H136907   9.175   1.751   7.262
 1124TIP3    H236908   9.299   1.704   7.337
 1125TIP3   OH236909   7.950   0.138   7.210
 1125TIP3    H136910   7.917   0.131   7.118
 1125TIP3    H236911   7.905   0.060   7.252
 1126TIP3   OH236912   7.783   1.455   6.792
 1126TIP3    H136913   7.712   1.499   6.838
 1126TIP3    H236914   7.811   1.522   6.727
 1127TIP3   OH236915   7.707   1.799   7.956
 1127TIP3    H136916   7.774   1.791   8.029
 1127TIP3    H236917   7.675   1.708   7.955
 1128TIP3   OH236918   8.196   1.614   8.140
 1128TIP3    H136919   8.290   1.592   8.135
 1128TIP3    H236920   8.163   1.573   8.059
 1129TIP3   OH236921   8.808   1.535   7.995
 1129TIP3    H136922   8.801   1.449   8.042
 1129TIP3    H236923   8.900   1.560   8.020
 1130TIP3   OH236924   9.034   1.583   6.252
 1130TIP3    H136925   8.968   1.526   6.208
 1130TIP3    H236926   9.070   1.635   6.180
 1131TIP3   OH236927   7.684   1.129   8.042
 1131TIP3    H136928   7.656   1.036   8.040
 1131TIP3    H236929   7.640   1.168   7.963
 1132TIP3   OH236930   8.365   1.139   7.934
 1132TIP3    H136931   8.333   1.199   7.863
 1132TIP3    H236932   8.372   1.050   7.891
 1133TIP3   OH236933   8.658   1.269   6.238
 1133TIP3    H136934   8.629   1.251   6.328
 1133TIP3    H236935   8.690   1.185   6.202
 1134TIP3   OH236936   8.922   1.128   7.762
 1134TIP3    H136937   9.010   1.171   7.755
 1134TIP3    H236938   8.866   1.206   7.746
 1135TIP3   OH236939   7.824   0.829   7.988
 1135TIP3    H136940   7.879   0.758   8.024
 1135TIP3    H236941   7.848   0.902   8.047
 1136TIP3   OH236942   8.245   0.988   6.508
 1136TIP3    H136943   8.174   0.953   6.564
 1136TIP3    H236944   8.197   1.062   6.461
 1137TIP3   OH236945   8.189   0.764   7.691
 1137TIP3    H136946   8.118   0.830   7.679
 1137TIP3    H236947   8.255   0.796   7.626
 1138TIP3   OH236948   8.697   1.020   8.089
 1138TIP3    H136949   8.754   0.994   8.016
 1138TIP3    H236950   8.676   0.933   8.129
 1139TIP3   OH236951   8.259   0.530   7.789
 1139TIP3    H136952   8.278   0.468   7.715
 1139TIP3    H236953   8.240   0.615   7.743
 1140TIP3   OH236954   8.296   0.328   7.585
 1140TIP3    H136955   8.346   0.374   7.513
 1140TIP3    H236956   8.206   0.323   7.545
 1141TIP3   OH236957   8.406   0.901   7.585
 1141TIP3    H136958   8.492   0.936   7.557
 1141TIP3    H236959   8.346   0.973   7.557
 1142TIP3   OH236960   8.886   0.620   8.070
 1142TIP3    H136961   8.888   0.549   8.136
 1142TIP3    H236962   8.978   0.621   8.035
 1143TIP3   OH236963   9.005   0.962   7.951
 1143TIP3    H136964   8.970   1.023   7.882
 1143TIP3    H236965   9.101   0.965   7.932
 1144TIP3   OH236966   8.088   0.636   8.024
 1144TIP3    H136967   8.026   0.568   7.988
 1144TIP3    H236968   8.160   0.631   7.959
 1145TIP3   OH236969   8.359   0.082   7.615
 1145TIP3    H136970   8.349   0.178   7.636
 1145TIP3    H236971   8.304   0.082   7.534
 1146TIP3   OH236972   8.477   0.528   7.990
 1146TIP3    H136973   8.445   0.502   8.077
 1146TIP3    H236974   8.410   0.489   7.930
 1147TIP3   OH236975   8.759   0.409   7.907
 1147TIP3    H136976   8.680   0.393   7.960
 1147TIP3    H236977   8.829   0.371   7.964
 1148TIP3   OH236978   8.952   0.285   8.067
 1148TIP3    H136979   8.918   0.193   8.054
 1148TIP3    H236980   8.924   0.310   8.158
 1149TIP3   OH236981   7.885   0.428   8.016
 1149TIP3    H136982   7.874   0.349   7.958
 1149TIP3    H236983   7.877   0.388   8.105
 1150TIP3   OH236984   8.300   9.362   7.890
 1150TIP3    H136985   8.379   9.317   7.923
 1150TIP3    H236986   8.335   9.397   7.806
 1151TIP3   OH236987   8.392   0.211   8.047
 1151TIP3    H136988   8.342   0.144   7.997
 1151TIP3    H236989   8.322   0.271   8.081
 1152TIP3   OH236990   7.581   1.856   6.875
 1152TIP3    H136991   7.515   1.802   6.825
 1152TIP3    H236992   7.618   1.790   6.937
 1153TIP3   OH236993   7.672   1.668   7.052
 1153TIP3    H136994   7.612   1.602   7.090
 1153TIP3    H236995   7.731   1.687   7.129
 1154TIP3   OH236996   9.385   1.695   7.652
 1154TIP3    H136997   9.331   1.640   7.592
 1154TIP3    H236998   9.388   1.635   7.728
 1155TIP3   OH236999   9.235   1.277   8.124
 1155TIP3    H137000   9.153   1.300   8.173
 1155TIP3    H237001   9.279   1.365   8.121
 1156TIP3   OH237002   0.017   1.227   7.348
 1156TIP3    H137003   0.077   1.155   7.318
 1156TIP3    H237004   0.049   1.303   7.295
 1157TIP3   OH237005   9.231   1.492   7.566
 1157TIP3    H137006   9.145   1.523   7.599
 1157TIP3    H237007   9.212   1.473   7.472
 1158TIP3   OH237008   9.086   0.572   6.360
 1158TIP3    H137009   9.158   0.625   6.324
 1158TIP3    H237010   9.118   0.480   6.342
 1159TIP3   OH237011   9.174   0.750   6.914
 1159TIP3    H137012   9.150   0.657   6.892
 1159TIP3    H237013   9.143   0.760   7.006
 1160TIP3   OH237014   7.679   1.021   7.302
 1160TIP3    H137015   7.675   0.988   7.209
 1160TIP3    H237016   7.772   0.995   7.326
 1161TIP3   OH237017   9.274   0.991   7.898
 1161TIP3    H137018   9.300   0.903   7.868
 1161TIP3    H237019   9.311   1.048   7.828
 1162TIP3   OH237020   9.201   0.323   6.324
 1162TIP3    H137021   9.262   0.263   6.279
 1162TIP3    H237022   9.128   0.266   6.353
 1163TIP3   OH237023   9.131   0.531   6.772
 1163TIP3    H137024   9.151   0.434   6.769
 1163TIP3    H237025   9.215   0.569   6.743
 1164TIP3   OH237026   9.187   0.593   7.297
 1164TIP3    H137027   9.285   0.585   7.289
 1164TIP3    H237028   9.182   0.602   7.394
 1165TIP3   OH237029   9.232   0.668   7.556
 1165TIP3    H137030   9.155   0.710   7.600
 1165TIP3    H237031   9.284   0.747   7.530
 1166TIP3   OH237032   7.672   0.539   7.896
 1166TIP3    H137033   7.750   0.516   7.951
 1166TIP3    H237034   7.621   0.455   7.897
 1167TIP3   OH237035   9.166   0.269   6.776
 1167TIP3    H137036   9.182   0.212   6.853
 1167TIP3    H237037   9.105   0.212   6.723
 1168TIP3   OH237038   7.773   0.340   7.211
 1168TIP3    H137039   7.833   0.263   7.220
 1168TIP3    H237040   7.836   0.412   7.228
 1169TIP3   OH237041   7.615   0.640   7.310
 1169TIP3    H137042   7.668   0.620   7.231
 1169TIP3    H237043   7.658   0.722   7.340
 1170TIP3   OH237044   7.598   0.250   6.737
 1170TIP3    H137045   7.512   0.296   6.737
 1170TIP3    H237046   7.645   0.300   6.667
 1171TIP3   OH237047   9.090   1.775   6.931
 1171TIP3    H137048   9.150   1.764   6.854
 1171TIP3    H237049   9.150   1.808   7.000
 1172TIP3   OH237050   7.649   0.154   7.537
 1172TIP3    H137051   7.605   0.166   7.623
 1172TIP3    H237052   7.611   0.225   7.483
 1173TIP3   OH237053   7.847   1.441   7.944
 1173TIP3    H137054   7.764   1.478   7.911
 1173TIP3    H237055   7.825   1.414   8.033
 1174TIP3   OH237056   8.125   1.590   7.606
 1174TIP3    H137057   8.120   1.685   7.581
 1174TIP3    H237058   8.223   1.580   7.606
 1175TIP3   OH237059   8.561   1.741   7.867
 1175TIP3    H137060   8.557   1.710   7.958
 1175TIP3    H237061   8.657   1.760   7.858
 1176TIP3   OH237062   8.786   1.887   7.822
 1176TIP3    H137063   8.866   1.853   7.777
 1176TIP3    H237064   8.819   1.923   7.906
 1177TIP3   OH237065   9.220   0.068   7.762
 1177TIP3    H137066   9.179   0.139   7.709
 1177TIP3    H237067   9.255   0.009   7.693
 1178TIP3   OH237068   7.866   1.896   7.575
 1178TIP3    H137069   7.784   1.939   7.543
 1178TIP3    H237070   7.862   1.926   7.667
 1179TIP3   OH237071   8.109   1.844   7.481
 1179TIP3    H137072   8.017   1.864   7.514
 1179TIP3    H237073   8.118   1.905   7.406
 1180TIP3   OH237074   8.612   1.815   7.406
 1180TIP3    H137075   8.545   1.847   7.344
 1180TIP3    H237076   8.615   1.889   7.471
 1181TIP3   OH237077   8.786   1.677   7.560
 1181TIP3    H137078   8.720   1.716   7.500
 1181TIP3    H237079   8.861   1.734   7.538
 1182TIP3   OH237080   9.083   1.811   7.519
 1182TIP3    H137081   9.100   1.902   7.487
 1182TIP3    H237082   9.136   1.759   7.454
 1183TIP3   OH237083   7.841   1.736   7.263
 1183TIP3    H137084   7.819   1.679   7.340
 1183TIP3    H237085   7.932   1.705   7.240
 1184TIP3   OH237086   8.066   1.641   7.153
 1184TIP3    H137087   8.049   1.548   7.179
 1184TIP3    H237088   8.151   1.656   7.201
 1185TIP3   OH237089   8.289   1.646   7.299
 1185TIP3    H137090   8.324   1.556   7.285
 1185TIP3    H237091   8.292   1.652   7.396
 1186TIP3   OH237092   8.641   0.268   7.162
 1186TIP3    H137093   8.584   0.189   7.166
 1186TIP3    H237094   8.668   0.266   7.069
 1187TIP3   OH237095   9.116   0.071   7.171
 1187TIP3    H137096   9.176   0.119   7.109
 1187TIP3    H237097   9.030   0.088   7.130
 1188TIP3   OH237098   9.313   0.140   7.001
 1188TIP3    H137099   9.392   0.090   6.972
 1188TIP3    H237100   9.345   0.231   7.014
 1189TIP3   OH237101   7.861   0.111   6.934
 1189TIP3    H137102   7.768   0.098   6.911
 1189TIP3    H237103   7.904   0.031   6.897
 1190TIP3   OH237104   7.778   0.084   6.513
 1190TIP3    H137105   7.771   0.149   6.443
 1190TIP3    H237106   7.692   0.090   6.559
 1191TIP3   OH237107   8.281   0.067   6.961
 1191TIP3    H137108   8.360   0.106   6.921
 1191TIP3    H237109   8.304   0.076   7.056
 1192TIP3   OH237110   8.868   0.118   7.038
 1192TIP3    H137111   8.841   0.107   6.946
 1192TIP3    H237112   8.814   0.053   7.088
 1193TIP3   OH237113   9.005   0.104   6.626
 1193TIP3    H137114   8.953   0.137   6.550
 1193TIP3    H237115   8.939   0.042   6.667
 1194TIP3   OH237116   7.761   1.685   6.628
 1194TIP3    H137117   7.675   1.686   6.584
 1194TIP3    H237118   7.815   1.739   6.567
 1195TIP3   OH237119   8.450   0.268   6.620
 1195TIP3    H137120   8.503   0.221   6.686
 1195TIP3    H237121   8.469   0.360   6.643
 1196TIP3   OH237122   9.263   1.743   6.731
 1196TIP3    H137123   9.267   1.661   6.679
 1196TIP3    H237124   9.272   1.810   6.659
 1197TIP3   OH237125   7.822   0.174   7.864
 1197TIP3    H137126   7.755   0.103   7.870
 1197TIP3    H237127   7.897   0.133   7.911
 1198TIP3   OH237128   8.049   0.092   8.032
 1198TIP3    H137129   8.146   0.100   8.030
 1198TIP3    H237130   8.038  -0.004   8.014
 1199TIP3   OH237131   8.917   9.366   8.038
 1199TIP3    H137132   8.911   9.332   8.129
 1199TIP3    H237133   9.012   9.357   8.020
 1200TIP3   OH237134   9.205   1.622   7.919
 1200TIP3    H137135   9.134   1.608   7.853
 1200TIP3    H237136   9.190   1.717   7.938
 1201TIP3   OH237137   1.276   2.905   6.914
 1201TIP3    H137138   1.287   2.995   6.949
 1201TIP3    H237139   1.192   2.915   6.866
 1202TIP3   OH237140   1.146   2.776   7.249
 1202TIP3    H137141   1.144   2.735   7.339
 1202TIP3    H237142   1.080   2.725   7.199
 1203TIP3   OH237143   0.391   2.790   7.383
 1203TIP3    H137144   0.383   2.711   7.437
 1203TIP3    H237145   0.447   2.847   7.439
 1204TIP3   OH237146   1.450   3.110   7.127
 1204TIP3    H137147   1.449   3.036   7.189
 1204TIP3    H237148   1.481   3.182   7.186
 1205TIP3   OH237149   0.410   3.227   7.227
 1205TIP3    H137150   0.409   3.136   7.190
 1205TIP3    H237151   0.498   3.226   7.267
 1206TIP3   OH237152   0.150   2.571   6.790
 1206TIP3    H137153   0.131   2.663   6.816
 1206TIP3    H237154   0.071   2.527   6.821
 1207TIP3   OH237155   0.158   2.769   7.042
 1207TIP3    H137156   0.218   2.698   7.076
 1207TIP3    H237157   0.221   2.829   7.000
 1208TIP3   OH237158   1.205   3.641   7.075
 1208TIP3    H137159   1.283   3.584   7.049
 1208TIP3    H237160   1.176   3.592   7.153
 1209TIP3   OH237161   0.962   3.031   7.329
 1209TIP3    H137162   1.006   2.986   7.255
 1209TIP3    H237163   1.040   3.070   7.375
 1210TIP3   OH237164   1.811   2.206   7.334
 1210TIP3    H137165   1.828   2.255   7.417
 1210TIP3    H237166   1.895   2.224   7.287
 1211TIP3   OH237167   1.323   2.501   7.351
 1211TIP3    H137168   1.326   2.407   7.374
 1211TIP3    H237169   1.329   2.495   7.253
 1212TIP3   OH237170   0.582   2.283   7.050
 1212TIP3    H137171   0.610   2.359   6.994
 1212TIP3    H237172   0.555   2.221   6.981
 1213TIP3   OH237173   1.385   2.350   6.895
 1213TIP3    H137174   1.421   2.304   6.974
 1213TIP3    H237175   1.468   2.387   6.858
 1214TIP3   OH237176   0.290   2.548   7.135
 1214TIP3    H137177   0.359   2.503   7.187
 1214TIP3    H237178   0.306   2.505   7.047
 1215TIP3   OH237179   0.741   2.677   7.071
 1215TIP3    H137180   0.825   2.633   7.098
 1215TIP3    H237181   0.701   2.610   7.011
 1216TIP3   OH237182   1.839   2.341   7.589
 1216TIP3    H137183   1.805   2.422   7.545
 1216TIP3    H237184   1.854   2.377   7.678
 1217TIP3   OH237185   0.503   2.208   7.477
 1217TIP3    H137186   0.455   2.250   7.402
 1217TIP3    H237187   0.441   2.230   7.550
 1218TIP3   OH237188   1.196   3.177   6.827
 1218TIP3    H137189   1.163   3.195   6.738
 1218TIP3    H237190   1.172   3.260   6.872
 1219TIP3   OH237191   0.725   2.978   7.450
 1219TIP3    H137192   0.670   3.058   7.468
 1219TIP3    H237193   0.801   3.019   7.401
 1220TIP3   OH237194   1.531   2.259   7.104
 1220TIP3    H137195   1.546   2.186   7.165
 1220TIP3    H237196   1.623   2.288   7.089
 1221TIP3   OH237197   0.464   2.392   7.269
 1221TIP3    H137198   0.529   2.451   7.314
 1221TIP3    H237199   0.517   2.355   7.195
 1222TIP3   OH237200   0.582   3.194   7.540
 1222TIP3    H137201   0.583   3.288   7.517
 1222TIP3    H237202   0.491   3.184   7.574
 1223TIP3   OH237203   0.188   3.146   6.647
 1223TIP3    H137204   0.189   3.199   6.565
 1223TIP3    H237205   0.213   3.210   6.717
 1224TIP3   OH237206   1.546   3.304   7.306
 1224TIP3    H137207   1.455   3.329   7.334
 1224TIP3    H237208   1.580   3.392   7.280
 1225TIP3   OH237209   1.538   2.136   7.434
 1225TIP3    H137210   1.468   2.173   7.376
 1225TIP3    H237211   1.620   2.167   7.391
 1226TIP3   OH237212   0.842   1.938   7.213
 1226TIP3    H137213   0.818   1.845   7.209
 1226TIP3    H237214   0.757   1.979   7.245
 1227TIP3   OH237215   1.395   3.477   6.990
 1227TIP3    H137216   1.405   3.398   6.935
 1227TIP3    H237217   1.474   3.530   6.965
 1228TIP3   OH237218   1.523   3.261   6.826
 1228TIP3    H137219   1.500   3.196   6.756
 1228TIP3    H237220   1.500   3.209   6.906
 1229TIP3   OH237221   1.638   3.123   7.701
 1229TIP3    H137222   1.644   3.048   7.636
 1229TIP3    H237223   1.666   3.197   7.644
 1230TIP3   OH237224   1.124   2.842   6.657
 1230TIP3    H137225   1.052   2.902   6.625
 1230TIP3    H237226   1.205   2.893   6.641
 1231TIP3   OH237227   1.865   2.780   7.488
 1231TIP3    H137228   1.797   2.850   7.486
 1231TIP3    H237229   1.927   2.815   7.421
 1232TIP3   OH237230   1.457   2.790   6.743
 1232TIP3    H137231   1.395   2.830   6.806
 1232TIP3    H237232   1.534   2.769   6.801
 1233TIP3   OH237233   1.450   2.670   7.692
 1233TIP3    H137234   1.445   2.765   7.709
 1233TIP3    H237235   1.381   2.663   7.624
 1234TIP3   OH237236   0.640   2.884   6.942
 1234TIP3    H137237   0.589   2.846   6.867
 1234TIP3    H237238   0.698   2.808   6.964
 1235TIP3   OH237239   0.762   3.237   7.231
 1235TIP3    H137240   0.758   3.227   7.135
 1235TIP3    H237241   0.837   3.180   7.257
 1236TIP3   OH237242   0.648   2.764   7.310
 1236TIP3    H137243   0.686   2.765   7.220
 1236TIP3    H237244   0.695   2.836   7.356
 1237TIP3   OH237245   1.293   3.349   7.392
 1237TIP3    H137246   1.253   3.400   7.464
 1237TIP3    H237247   1.282   3.257   7.423
 1238TIP3   OH237248   0.726   3.217   7.772
 1238TIP3    H137249   0.655   3.265   7.822
 1238TIP3    H237250   0.679   3.198   7.688
 1239TIP3   OH237251   0.440   2.835   7.682
 1239TIP3    H137252   0.452   2.891   7.761
 1239TIP3    H237253   0.348   2.808   7.697
 1240TIP3   OH237254   1.115   3.494   6.842
 1240TIP3    H137255   1.149   3.530   6.925
 1240TIP3    H237256   1.047   3.560   6.822
 1241TIP3   OH237257   0.552   3.388   7.887
 1241TIP3    H137258   0.534   3.414   7.794
 1241TIP3    H237259   0.459   3.378   7.918
 1242TIP3   OH237260   0.506   2.786   6.729
 1242TIP3    H137261   0.485   2.864   6.673
 1242TIP3    H237262   0.496   2.716   6.664
 1243TIP3   OH237263   0.147   3.041   7.634
 1243TIP3    H137264   0.100   3.048   7.550
 1243TIP3    H237265   0.134   2.946   7.657
 1244TIP3   OH237266   0.149   3.324   7.253
 1244TIP3    H137267   0.232   3.273   7.240
 1244TIP3    H237268   0.176   3.382   7.327
 1245TIP3   OH237269   1.906   3.389   7.855
 1245TIP3    H137270   1.896   3.293   7.842
 1245TIP3    H237271   1.821   3.411   7.900
 1246TIP3   OH237272   0.980   3.328   7.784
 1246TIP3    H137273   0.997   3.406   7.839
 1246TIP3    H237274   0.885   3.308   7.799
 1247TIP3   OH237275   1.080   3.723   6.671
 1247TIP3    H137276   1.088   3.769   6.585
 1247TIP3    H237277   1.071   3.798   6.733
 1248TIP3   OH237278   0.432   3.578   6.905
 1248TIP3    H137279   0.439   3.546   6.998
 1248TIP3    H237280   0.347   3.538   6.878
 1249TIP3   OH237281   1.339   3.632   6.720
 1249TIP3    H137282   1.243   3.649   6.708
 1249TIP3    H237283   1.334   3.541   6.753
 1250TIP3   OH237284   1.622   2.517   7.894
 1250TIP3    H137285   1.570   2.557   7.821
 1250TIP3    H237286   1.622   2.422   7.870
 1251TIP3   OH237287   0.339   3.210   7.715
 1251TIP3    H137288   0.368   3.148   7.786
 1251TIP3    H237289   0.263   3.157   7.680
 1252TIP3   OH237290   0.623   2.054   7.297
 1252TIP3    H137291   0.532   2.042   7.262
 1252TIP3    H237292   0.603   2.108   7.376
 1253TIP3   OH237293   1.123   1.986   7.624
 1253TIP3    H137294   1.152   1.939   7.705
 1253TIP3    H237295   1.027   1.996   7.638
 1254TIP3   OH237296   1.383   2.391   7.721
 1254TIP3    H137297   1.321   2.353   7.789
 1254TIP3    H237298   1.388   2.482   7.754
 1255TIP3   OH237299   0.627   2.528   7.425
 1255TIP3    H137300   0.556   2.547   7.489
 1255TIP3    H237301   0.636   2.615   7.379
 1256TIP3   OH237302   0.619   2.501   6.894
 1256TIP3    H137303   0.522   2.500   6.887
 1256TIP3    H237304   0.650   2.477   6.803
 1257TIP3   OH237305   1.159   2.597   6.755
 1257TIP3    H137306   1.115   2.678   6.721
 1257TIP3    H237307   1.248   2.632   6.767
 1258TIP3   OH237308   1.083   2.633   7.929
 1258TIP3    H137309   1.041   2.551   7.963
 1258TIP3    H237310   1.165   2.631   7.982
 1259TIP3   OH237311   1.323   2.566   7.089
 1259TIP3    H137312   1.274   2.645   7.062
 1259TIP3    H237313   1.307   2.507   7.013
 1260TIP3   OH237314   0.361   2.530   7.551
 1260TIP3    H137315   0.398   2.552   7.638
 1260TIP3    H237316   0.336   2.436   7.561
 1261TIP3   OH237317   0.688   2.360   6.289
 1261TIP3    H137318   0.658   2.297   6.358
 1261TIP3    H237319   0.772   2.318   6.265
 1262TIP3   OH237320   0.105   2.245   7.000
 1262TIP3    H137321   0.191   2.240   7.042
 1262TIP3    H237322   0.125   2.250   6.905
 1263TIP3   OH237323   0.148   2.359   6.526
 1263TIP3    H137324   0.165   2.326   6.434
 1263TIP3    H237325   0.092   2.434   6.506
 1264TIP3   OH237326   1.200   2.689   7.503
 1264TIP3    H137327   1.245   2.617   7.454
 1264TIP3    H237328   1.142   2.639   7.566
 1265TIP3   OH237329   0.865   2.304   7.017
 1265TIP3    H137330   0.777   2.289   7.058
 1265TIP3    H237331   0.922   2.237   7.061
 1266TIP3   OH237332   0.343   2.418   6.902
 1266TIP3    H137333   0.286   2.451   6.829
 1266TIP3    H237334   0.370   2.329   6.869
 1267TIP3   OH237335   0.716   2.453   6.647
 1267TIP3    H137336   0.811   2.463   6.637
 1267TIP3    H237337   0.684   2.526   6.590
 1268TIP3   OH237338   1.317   2.220   7.318
 1268TIP3    H137339   1.249   2.188   7.380
 1268TIP3    H237340   1.304   2.166   7.238
 1269TIP3   OH237341   0.628   2.593   6.427
 1269TIP3    H137342   0.538   2.557   6.431
 1269TIP3    H237343   0.665   2.535   6.357
 1270TIP3   OH237344   1.614   3.784   7.987
 1270TIP3    H137345   1.644   3.818   7.901
 1270TIP3    H237346   1.694   3.802   8.039
 1271TIP3   OH237347   0.417   3.034   7.897
 1271TIP3    H137348   0.477   3.038   7.974
 1271TIP3    H237349   0.330   3.030   7.942
 1272TIP3   OH237350   0.963   2.566   7.166
 1272TIP3    H137351   1.044   2.522   7.138
 1272TIP3    H237352   0.917   2.494   7.213
 1273TIP3   OH237353   0.455   2.178   6.822
 1273TIP3    H137354   0.414   2.103   6.871
 1273TIP3    H237355   0.509   2.130   6.758
 1274TIP3   OH237356   0.850   2.388   7.428
 1274TIP3    H137357   0.767   2.442   7.422
 1274TIP3    H237358   0.910   2.444   7.478
 1275TIP3   OH237359   0.918   3.017   6.609
 1275TIP3    H137360   0.845   2.992   6.551
 1275TIP3    H237361   0.874   3.048   6.691
 1276TIP3   OH237362   1.672   2.969   7.493
 1276TIP3    H137363   1.722   3.029   7.430
 1276TIP3    H237364   1.590   2.955   7.441
 1277TIP3   OH237365   1.042   3.065   7.733
 1277TIP3    H137366   1.023   3.034   7.823
 1277TIP3    H237367   1.017   3.159   7.742
 1278TIP3   OH237368   0.457   2.966   7.150
 1278TIP3    H137369   0.502   2.950   7.064
 1278TIP3    H237370   0.480   2.886   7.200
 1279TIP3   OH237371   0.148   2.788   7.716
 1279TIP3    H137372   0.166   2.733   7.795
 1279TIP3    H237373   0.117   2.724   7.651
 1280TIP3   OH237374   0.793   2.769   7.892
 1280TIP3    H137375   0.765   2.711   7.819
 1280TIP3    H237376   0.889   2.761   7.887
 1281TIP3   OH237377   1.322   3.297   7.740
 1281TIP3    H137378   1.236   3.309   7.697
 1281TIP3    H237379   1.304   3.340   7.825
 1282TIP3   OH237380   1.900   2.600   6.528
 1282TIP3    H137381   1.833   2.584   6.461
 1282TIP3    H237382   1.909   2.698   6.517
 1283TIP3   OH237383   1.889   3.111   7.821
 1283TIP3    H137384   1.795   3.113   7.792
 1283TIP3    H237385   1.936   3.102   7.734
 1284TIP3   OH237386   1.672   3.390   6.568
 1284TIP3    H137387   1.673   3.329   6.643
 1284TIP3    H237388   1.742   3.356   6.511
 1285TIP3   OH237389   1.429   2.897   7.306
 1285TIP3    H137390   1.339   2.863   7.294
 1285TIP3    H237391   1.481   2.822   7.272
 1286TIP3   OH237392   0.672   3.315   6.959
 1286TIP3    H137393   0.712   3.402   6.939
 1286TIP3    H237394   0.580   3.326   6.930
 1287TIP3   OH237395   0.812   3.092   6.867
 1287TIP3    H137396   0.763   3.171   6.897
 1287TIP3    H237397   0.770   3.021   6.918
 1288TIP3   OH237398   0.855   3.508   7.565
 1288TIP3    H137399   0.927   3.565   7.534
 1288TIP3    H237400   0.901   3.458   7.635
 1289TIP3   OH237401   0.699   3.564   6.843
 1289TIP3    H137402   0.603   3.566   6.862
 1289TIP3    H237403   0.720   3.658   6.863
 1290TIP3   OH237404   1.182   3.086   7.478
 1290TIP3    H137405   1.147   3.065   7.567
 1290TIP3    H237406   1.223   3.002   7.452
 1291TIP3   OH237407   1.503   3.547   7.725
 1291TIP3    H137408   1.416   3.507   7.705
 1291TIP3    H237409   1.513   3.610   7.649
 1292TIP3   OH237410   1.932   3.675   6.466
 1292TIP3    H137411   1.970   3.703   6.382
 1292TIP3    H237412   1.860   3.741   6.481
 1293TIP3   OH237413   0.315   2.266   7.664
 1293TIP3    H137414   0.281   2.301   7.748
 1293TIP3    H237415   0.294   2.171   7.675
 1294TIP3   OH237416   1.521   3.053   6.636
 1294TIP3    H137417   1.502   2.960   6.663
 1294TIP3    H237418   1.612   3.044   6.605
 1295TIP3   OH237419   0.263   3.455   7.479
 1295TIP3    H137420   0.348   3.417   7.504
 1295TIP3    H237421   0.230   3.486   7.564
 1296TIP3   OH237422   0.743   3.267   6.472
 1296TIP3    H137423   0.809   3.212   6.517
 1296TIP3    H237424   0.754   3.354   6.518
 1297TIP3   OH237425   0.418   2.984   6.530
 1297TIP3    H137426   0.325   3.005   6.549
 1297TIP3    H237427   0.453   3.069   6.499
 1298TIP3   OH237428   1.173   2.269   7.589
 1298TIP3    H137429   1.261   2.291   7.625
 1298TIP3    H237430   1.157   2.178   7.622
 1299TIP3   OH237431   1.254   2.206   6.713
 1299TIP3    H137432   1.185   2.269   6.688
 1299TIP3    H237433   1.306   2.262   6.774
 1300TIP3   OH237434   1.039   3.472   6.508
 1300TIP3    H137435   0.947   3.457   6.539
 1300TIP3    H237436   1.062   3.550   6.562
 1301TIP3   OH237437   1.019   2.379   6.785
 1301TIP3    H137438   1.059   2.469   6.784
 1301TIP3    H237439   0.965   2.375   6.867
 1302TIP3   OH237440   1.065   2.528   7.670
 1302TIP3    H137441   1.067   2.548   7.766
 1302TIP3    H237442   1.098   2.436   7.661
 1303TIP3   OH237443   1.043   2.072   6.836
 1303TIP3    H137444   1.025   2.113   6.923
 1303TIP3    H237445   1.125   2.117   6.807
 1304TIP3   OH237446   0.772   3.517   6.574
 1304TIP3    H137447   0.756   3.596   6.520
 1304TIP3    H237448   0.730   3.544   6.659
 1305TIP3   OH237449   0.646   2.219   6.505
 1305TIP3    H137450   0.614   2.289   6.564
 1305TIP3    H237451   0.730   2.192   6.549
 1306TIP3   OH237452   1.633   2.275   7.760
 1306TIP3    H137453   1.538   2.288   7.742
 1306TIP3    H237454   1.672   2.279   7.671
 1307TIP3   OH237455   1.560   2.685   7.181
 1307TIP3    H137456   1.481   2.632   7.161
 1307TIP3    H237457   1.620   2.617   7.218
 1308TIP3   OH237458   0.483   3.251   6.404
 1308TIP3    H137459   0.497   3.343   6.427
 1308TIP3    H237460   0.577   3.222   6.412
 1309TIP3   OH237461   0.297   2.558   6.305
 1309TIP3    H137462   0.256   2.562   6.391
 1309TIP3    H237463   0.263   2.472   6.272
 1310TIP3   OH237464   1.617   3.578   7.316
 1310TIP3    H137465   1.615   3.646   7.246
 1310TIP3    H237466   1.713   3.574   7.334
 1311TIP3   OH237467   0.380   1.992   7.221
 1311TIP3    H137468   0.364   1.975   7.126
 1311TIP3    H237469   0.342   1.909   7.259
 1312TIP3   OH237470   0.264   3.365   6.815
 1312TIP3    H137471   0.177   3.402   6.826
 1312TIP3    H237472   0.289   3.409   6.731
 1313TIP3   OH237473   0.176   3.689   7.989
 1313TIP3    H137474   0.233   3.673   8.068
 1313TIP3    H237475   0.163   3.598   7.961
 1314TIP3   OH237476   0.672   3.522   8.138
 1314TIP3    H137477   0.762   3.486   8.141
 1314TIP3    H237478   0.639   3.483   8.056
 1315TIP3   OH237479   1.266   3.405   7.980
 1315TIP3    H137480   1.240   3.317   8.018
 1315TIP3    H237481   1.355   3.413   8.021
 1316TIP3   OH237482   0.165   3.057   8.005
 1316TIP3    H137483   0.150   2.968   8.042
 1316TIP3    H237484   0.073   3.084   7.986
 1317TIP3   OH237485   0.822   3.028   7.945
 1317TIP3    H137486   0.795   3.088   7.872
 1317TIP3    H237487   0.791   2.939   7.915
 1318TIP3   OH237488   1.394   3.018   7.739
 1318TIP3    H137489   1.481   3.066   7.738
 1318TIP3    H237490   1.335   3.095   7.747
 1319TIP3   OH237491   0.278   2.718   7.974
 1319TIP3    H137492   0.310   2.642   8.025
 1319TIP3    H237493   0.297   2.790   8.036
 1320TIP3   OH237494   0.631   2.645   7.675
 1320TIP3    H137495   0.573   2.723   7.687
 1320TIP3    H237496   0.704   2.684   7.623
 1321TIP3   OH237497   1.180   2.923   8.056
 1321TIP3    H137498   1.237   2.871   7.997
 1321TIP3    H237499   1.152   2.858   8.123
 1322TIP3   OH237500   0.748   2.424   7.794
 1322TIP3    H137501   0.752   2.359   7.721
 1322TIP3    H237502   0.730   2.506   7.744
 1323TIP3   OH237503   0.747   2.216   7.603
 1323TIP3    H137504   0.787   2.257   7.523
 1323TIP3    H237505   0.652   2.219   7.579
 1324TIP3   OH237506   0.863   2.789   7.579
 1324TIP3    H137507   0.951   2.818   7.554
 1324TIP3    H237508   0.810   2.863   7.544
 1325TIP3   OH237509   1.276   2.569   8.110
 1325TIP3    H137510   1.288   2.477   8.145
 1325TIP3    H237511   1.366   2.603   8.109
 1326TIP3   OH237512   1.467   2.872   7.961
 1326TIP3    H137513   1.430   2.918   7.882
 1326TIP3    H237514   1.557   2.853   7.929
 1327TIP3   OH237515   0.585   2.471   8.021
 1327TIP3    H137516   0.495   2.436   8.006
 1327TIP3    H237517   0.622   2.475   7.931
 1328TIP3   OH237518   0.836   1.970   7.609
 1328TIP3    H137519   0.801   2.061   7.619
 1328TIP3    H237520   0.756   1.923   7.580
 1329TIP3   OH237521   0.937   2.401   8.016
 1329TIP3    H137522   0.872   2.388   8.087
 1329TIP3    H237523   0.879   2.387   7.939
 1330TIP3   OH237524   1.204   2.335   7.908
 1330TIP3    H137525   1.110   2.330   7.930
 1330TIP3    H237526   1.239   2.276   7.978
 1331TIP3   OH237527   1.296   2.152   8.075
 1331TIP3    H137528   1.339   2.065   8.091
 1331TIP3    H237529   1.322   2.206   8.153
 1332TIP3   OH237530   0.348   2.306   7.985
 1332TIP3    H137531   0.346   2.217   7.947
 1332TIP3    H237532   0.338   2.287   8.082
 1333TIP3   OH237533   0.799   1.898   7.872
 1333TIP3    H137534   0.881   1.848   7.887
 1333TIP3    H237535   0.808   1.911   7.775
 1334TIP3   OH237536   0.814   2.014   8.155
 1334TIP3    H137537   0.804   1.974   8.066
 1334TIP3    H237538   0.792   2.107   8.135
 1335TIP3   OH237539   0.214   3.221   6.375
 1335TIP3    H137540   0.313   3.221   6.374
 1335TIP3    H237541   0.190   3.161   6.301
 1336TIP3   OH237542   0.087   3.752   6.845
 1336TIP3    H137543   0.011   3.716   6.793
 1336TIP3    H237544   0.088   3.697   6.926
 1337TIP3   OH237545   0.141   3.576   7.062
 1337TIP3    H137546   0.108   3.487   7.085
 1337TIP3    H237547   0.195   3.597   7.141
 1338TIP3   OH237548   1.885   3.632   7.321
 1338TIP3    H137549   1.907   3.635   7.415
 1338TIP3    H237550   1.934   3.710   7.290
 1339TIP3   OH237551   1.835   3.590   7.628
 1339TIP3    H137552   1.803   3.510   7.580
 1339TIP3    H237553   1.857   3.551   7.715
 1340TIP3   OH237554   1.721   3.165   8.126
 1340TIP3    H137555   1.634   3.177   8.170
 1340TIP3    H237556   1.758   3.256   8.138
 1341TIP3   OH237557   1.862   2.805   6.828
 1341TIP3    H137558   1.776   2.777   6.867
 1341TIP3    H237559   1.902   2.860   6.897
 1342TIP3   OH237560   1.827   3.088   7.316
 1342TIP3    H137561   1.897   3.023   7.292
 1342TIP3    H237562   1.856   3.169   7.268
 1343TIP3   OH237563   1.699   3.368   7.562
 1343TIP3    H137564   1.636   3.415   7.620
 1343TIP3    H237565   1.643   3.348   7.483
 1344TIP3   OH237566   1.638   2.682   6.920
 1344TIP3    H137567   1.632   2.584   6.919
 1344TIP3    H237568   1.628   2.697   7.017
 1345TIP3   OH237569   0.166   2.893   7.291
 1345TIP3    H137570   0.155   2.858   7.200
 1345TIP3    H237571   0.259   2.866   7.312
 1346TIP3   OH237572   1.747   2.855   7.875
 1346TIP3    H137573   1.789   2.766   7.882
 1346TIP3    H237574   1.821   2.910   7.842
 1347TIP3   OH237575   1.858   2.611   7.944
 1347TIP3    H137576   1.771   2.568   7.923
 1347TIP3    H237577   1.919   2.534   7.936
 1348TIP3   OH237578   1.616   2.315   6.329
 1348TIP3    H137579   1.682   2.246   6.353
 1348TIP3    H237580   1.578   2.282   6.246
 1349TIP3   OH237581   1.632   2.419   6.829
 1349TIP3    H137582   1.656   2.325   6.816
 1349TIP3    H237583   1.673   2.458   6.750
 1350TIP3   OH237584   1.704   2.488   7.296
 1350TIP3    H137585   1.802   2.496   7.306
 1350TIP3    H237586   1.676   2.499   7.388
 1351TIP3   OH237587   1.698   2.563   7.560
 1351TIP3    H137588   1.605   2.586   7.577
 1351TIP3    H237589   1.741   2.650   7.548
 1352TIP3   OH237590   0.114   2.427   7.965
 1352TIP3    H137591   0.206   2.394   7.971
 1352TIP3    H237592   0.064   2.345   7.959
 1353TIP3   OH237593   1.891   1.991   8.073
 1353TIP3    H137594   1.940   1.917   8.031
 1353TIP3    H237595   1.900   2.059   8.003
 1354TIP3   OH237596   1.690   2.143   6.747
 1354TIP3    H137597   1.713   2.107   6.835
 1354TIP3    H237598   1.612   2.091   6.720
 1355TIP3   OH237599   0.261   2.225   7.283
 1355TIP3    H137600   0.294   2.135   7.263
 1355TIP3    H237601   0.339   2.283   7.264
 1356TIP3   OH237602   0.101   2.514   7.327
 1356TIP3    H137603   0.166   2.501   7.255
 1356TIP3    H237604   0.114   2.607   7.348
 1357TIP3   OH237605   1.845   2.202   7.921
 1357TIP3    H137606   1.776   2.221   7.988
 1357TIP3    H237607   1.791   2.171   7.845
 1358TIP3   OH237608   1.839   2.142   6.395
 1358TIP3    H137609   1.910   2.087   6.358
 1358TIP3    H237610   1.892   2.195   6.457
 1359TIP3   OH237611   0.090   2.171   6.713
 1359TIP3    H137612  -0.007   2.174   6.701
 1359TIP3    H237613   0.122   2.223   6.636
 1360TIP3   OH237614   1.564   3.665   6.928
 1360TIP3    H137615   1.634   3.644   6.863
 1360TIP3    H237616   1.608   3.719   6.995
 1361TIP3   OH237617   0.078   2.006   7.543
 1361TIP3    H137618   0.044   2.021   7.632
 1361TIP3    H237619   0.038   2.078   7.492
 1362TIP3   OH237620   0.297   3.318   7.970
 1362TIP3    H137621   0.277   3.294   7.877
 1362TIP3    H237622   0.279   3.231   8.009
 1363TIP3   OH237623   0.593   3.479   7.609
 1363TIP3    H137624   0.591   3.573   7.581
 1363TIP3    H237625   0.690   3.466   7.612
 1364TIP3   OH237626   1.013   3.595   7.862
 1364TIP3    H137627   1.020   3.585   7.959
 1364TIP3    H237628   1.103   3.627   7.840
 1365TIP3   OH237629   1.225   3.770   7.821
 1365TIP3    H137630   1.309   3.741   7.782
 1365TIP3    H237631   1.254   3.812   7.904
 1366TIP3   OH237632   1.746   1.955   7.731
 1366TIP3    H137633   1.665   1.982   7.686
 1366TIP3    H237634   1.760   1.864   7.694
 1367TIP3   OH237635   0.323   3.784   7.594
 1367TIP3    H137636   0.243   3.824   7.553
 1367TIP3    H237637   0.287   3.761   7.681
 1368TIP3   OH237638   0.585   3.739   7.488
 1368TIP3    H137639   0.498   3.763   7.527
 1368TIP3    H237640   0.593   3.803   7.415
 1369TIP3   OH237641   1.048   3.707   7.399
 1369TIP3    H137642   1.000   3.761   7.335
 1369TIP3    H237643   1.072   3.773   7.468
 1370TIP3   OH237644   1.246   3.574   7.550
 1370TIP3    H137645   1.184   3.612   7.484
 1370TIP3    H237646   1.323   3.630   7.531
 1371TIP3   OH237647   1.518   3.722   7.523
 1371TIP3    H137648   1.539   3.811   7.491
 1371TIP3    H237649   1.545   3.669   7.445
 1372TIP3   OH237650   0.290   3.636   7.278
 1372TIP3    H137651   0.263   3.583   7.356
 1372TIP3    H237652   0.376   3.594   7.254
 1373TIP3   OH237653   0.485   3.500   7.162
 1373TIP3    H137654   0.473   3.406   7.184
 1373TIP3    H237655   0.573   3.516   7.202
 1374TIP3   OH237656   0.719   3.507   7.292
 1374TIP3    H137657   0.760   3.419   7.280
 1374TIP3    H237658   0.754   3.535   7.377
 1375TIP3   OH237659   1.014   2.101   7.104
 1375TIP3    H137660   0.943   2.049   7.149
 1375TIP3    H237661   1.092   2.047   7.123
 1376TIP3   OH237662   1.618   1.912   7.149
 1376TIP3    H137663   1.684   1.970   7.104
 1376TIP3    H237664   1.533   1.950   7.117
 1377TIP3   OH237665   1.773   2.055   6.989
 1377TIP3    H137666   1.837   1.991   6.951
 1377TIP3    H237667   1.835   2.128   7.014
 1378TIP3   OH237668   0.351   1.963   6.949
 1378TIP3    H137669   0.262   1.952   6.908
 1378TIP3    H237670   0.389   1.871   6.939
 1379TIP3   OH237671   0.255   1.981   6.483
 1379TIP3    H137672   0.206   2.026   6.412
 1379TIP3    H237673   0.195   1.993   6.558
 1380TIP3   OH237674   0.772   1.925   6.930
 1380TIP3    H137675   0.837   1.966   6.871
 1380TIP3    H237676   0.808   1.939   7.018
 1381TIP3   OH237677   1.354   1.971   7.068
 1381TIP3    H137678   1.335   1.977   6.973
 1381TIP3    H237679   1.319   1.882   7.089
 1382TIP3   OH237680   1.445   2.006   6.605
 1382TIP3    H137681   1.372   2.071   6.606
 1382TIP3    H237682   1.406   1.928   6.651
 1383TIP3   OH237683   0.220   3.546   6.605
 1383TIP3    H137684   0.140   3.564   6.553
 1383TIP3    H237685   0.264   3.633   6.592
 1384TIP3   OH237686   0.882   2.175   6.632
 1384TIP3    H137687   0.938   2.125   6.694
 1384TIP3    H237688   0.920   2.263   6.646
 1385TIP3   OH237689   1.115   3.770   6.409
 1385TIP3    H137690   1.165   3.815   6.338
 1385TIP3    H237691   1.086   3.691   6.364
 1386TIP3   OH237692   1.740   3.603   6.729
 1386TIP3    H137693   1.718   3.531   6.666
 1386TIP3    H237694   1.744   3.680   6.669
 1387TIP3   OH237695   0.297   2.024   7.866
 1387TIP3    H137696   0.236   1.950   7.889
 1387TIP3    H237697   0.377   1.996   7.915
 1388TIP3   OH237698   0.507   1.984   8.048
 1388TIP3    H137699   0.580   1.932   8.010
 1388TIP3    H237700   0.468   1.920   8.110
 1389TIP3   OH237701   1.361   1.895   8.104
 1389TIP3    H137702   1.374   1.854   8.192
 1389TIP3    H237703   1.446   1.876   8.059
 1390TIP3   OH237704   1.675   3.515   7.925
 1390TIP3    H137705   1.598   3.504   7.864
 1390TIP3    H237706   1.663   3.608   7.951
 1391TIP3   OH237707   3.152   2.907   6.907
 1391TIP3    H137708   3.149   3.005   6.900
 1391TIP3    H237709   3.073   2.887   6.855
 1392TIP3   OH237710   3.031   2.783   7.255
 1392TIP3    H137711   3.031   2.734   7.339
 1392TIP3    H237712   2.959   2.739   7.205
 1393TIP3   OH237713   2.235   2.782   7.407
 1393TIP3    H137714   2.221   2.698   7.453
 1393TIP3    H237715   2.321   2.808   7.444
 1394TIP3   OH237716   3.331   3.115   7.146
 1394TIP3    H137717   3.324   3.034   7.200
 1394TIP3    H237718   3.371   3.178   7.207
 1395TIP3   OH237719   2.340   3.251   7.234
 1395TIP3    H137720   2.304   3.162   7.215
 1395TIP3    H237721   2.434   3.226   7.229
 1396TIP3   OH237722   2.002   2.558   6.795
 1396TIP3    H137723   1.980   2.645   6.833
 1396TIP3    H237724   1.967   2.573   6.704
 1397TIP3   OH237725   2.053   2.816   7.056
 1397TIP3    H137726   2.093   2.727   7.068
 1397TIP3    H237727   2.125   2.869   7.018
 1398TIP3   OH237728   3.094   3.646   7.104
 1398TIP3    H137729   3.154   3.589   7.049
 1398TIP3    H237730   3.060   3.576   7.163
 1399TIP3   OH237731   2.829   3.072   7.354
 1399TIP3    H137732   2.850   3.018   7.277
 1399TIP3    H237733   2.919   3.095   7.386
 1400TIP3   OH237734   3.705   2.218   7.335
 1400TIP3    H137735   3.721   2.257   7.424
 1400TIP3    H237736   3.792   2.234   7.294
 1401TIP3   OH237737   3.202   2.507   7.372
 1401TIP3    H137738   3.230   2.416   7.392
 1401TIP3    H237739   3.192   2.500   7.274
 1402TIP3   OH237740   2.479   2.281   7.042
 1402TIP3    H137741   2.497   2.366   6.997
 1402TIP3    H237742   2.440   2.231   6.967
 1403TIP3   OH237743   3.243   2.330   6.935
 1403TIP3    H137744   3.309   2.297   7.000
 1403TIP3    H237745   3.296   2.390   6.882
 1404TIP3   OH237746   2.147   2.570   7.132
 1404TIP3    H137747   2.205   2.520   7.191
 1404TIP3    H237748   2.172   2.534   7.044
 1405TIP3   OH237749   2.615   2.703   7.091
 1405TIP3    H137750   2.703   2.662   7.108
 1405TIP3    H237751   2.569   2.627   7.048
 1406TIP3   OH237752   3.728   2.345   7.594
 1406TIP3    H137753   3.689   2.428   7.558
 1406TIP3    H237754   3.742   2.372   7.687
 1407TIP3   OH237755   2.401   2.213   7.472
 1407TIP3    H137756   2.360   2.255   7.394
 1407TIP3    H237757   2.335   2.235   7.541
 1408TIP3   OH237758   3.062   3.156   6.829
 1408TIP3    H137759   3.023   3.149   6.741
 1408TIP3    H237760   3.040   3.249   6.851
 1409TIP3   OH237761   2.604   2.969   7.452
 1409TIP3    H137762   2.543   3.040   7.483
 1409TIP3    H237763   2.680   3.022   7.418
 1410TIP3   OH237764   3.457   2.292   7.134
 1410TIP3    H137765   3.469   2.200   7.160
 1410TIP3    H237766   3.517   2.339   7.196
 1411TIP3   OH237767   2.338   2.393   7.257
 1411TIP3    H137768   2.402   2.455   7.298
 1411TIP3    H237769   2.389   2.361   7.179
 1412TIP3   OH237770   2.465   3.181   7.544
 1412TIP3    H137771   2.440   3.258   7.491
 1412TIP3    H237772   2.384   3.174   7.602
 1413TIP3   OH237773   2.077   3.121   6.644
 1413TIP3    H137774   2.012   3.144   6.575
 1413TIP3    H237775   2.086   3.203   6.697
 1414TIP3   OH237776   3.446   3.305   7.338
 1414TIP3    H137777   3.351   3.324   7.356
 1414TIP3    H237778   3.469   3.387   7.292
 1415TIP3   OH237779   3.424   2.131   7.447
 1415TIP3    H137780   3.345   2.160   7.396
 1415TIP3    H237781   3.497   2.169   7.395
 1416TIP3   OH237782   2.734   1.942   7.197
 1416TIP3    H137783   2.710   1.849   7.204
 1416TIP3    H237784   2.650   1.984   7.232
 1417TIP3   OH237785   3.248   3.490   6.956
 1417TIP3    H137786   3.279   3.400   6.934
 1417TIP3    H237787   3.333   3.539   6.948
 1418TIP3   OH237788   3.397   3.260   6.834
 1418TIP3    H137789   3.391   3.192   6.763
 1418TIP3    H237790   3.368   3.209   6.912
 1419TIP3   OH237791   3.535   3.130   7.706
 1419TIP3    H137792   3.555   3.060   7.640
 1419TIP3    H237793   3.551   3.209   7.651
 1420TIP3   OH237794   3.008   2.837   6.657
 1420TIP3    H137795   2.951   2.903   6.616
 1420TIP3    H237796   3.072   2.812   6.586
 1421TIP3   OH237797   3.737   2.775   7.491
 1421TIP3    H137798   3.670   2.847   7.487
 1421TIP3    H237799   3.801   2.809   7.425
 1422TIP3   OH237800   3.367   2.814   6.759
 1422TIP3    H137801   3.299   2.856   6.816
 1422TIP3    H237802   3.430   2.781   6.827
 1423TIP3   OH237803   3.334   2.677   7.687
 1423TIP3    H137804   3.337   2.772   7.709
 1423TIP3    H237805   3.269   2.679   7.615
 1424TIP3   OH237806   2.494   2.873   6.931
 1424TIP3    H137807   2.482   2.838   6.841
 1424TIP3    H237808   2.549   2.804   6.974
 1425TIP3   OH237809   2.623   3.219   7.232
 1425TIP3    H137810   2.637   3.209   7.137
 1425TIP3    H237811   2.702   3.177   7.271
 1426TIP3   OH237812   2.505   2.759   7.329
 1426TIP3    H137813   2.544   2.759   7.238
 1426TIP3    H237814   2.552   2.836   7.370
 1427TIP3   OH237815   3.188   3.345   7.390
 1427TIP3    H137816   3.154   3.404   7.460
 1427TIP3    H237817   3.166   3.257   7.425
 1428TIP3   OH237818   2.623   3.213   7.761
 1428TIP3    H137819   2.550   3.264   7.803
 1428TIP3    H237820   2.585   3.196   7.673
 1429TIP3   OH237821   3.239   2.761   6.534
 1429TIP3    H137822   3.278   2.764   6.624
 1429TIP3    H237823   3.294   2.829   6.492
 1430TIP3   OH237824   2.343   2.835   7.667
 1430TIP3    H137825   2.357   2.919   7.712
 1430TIP3    H237826   2.262   2.806   7.712
 1431TIP3   OH237827   2.988   3.440   6.828
 1431TIP3    H137828   3.022   3.470   6.914
 1431TIP3    H237829   2.941   3.519   6.796
 1432TIP3   OH237830   2.453   3.392   7.873
 1432TIP3    H137831   2.438   3.431   7.784
 1432TIP3    H237832   2.361   3.366   7.894
 1433TIP3   OH237833   3.620   1.930   6.578
 1433TIP3    H137834   3.524   1.940   6.566
 1433TIP3    H237835   3.652   2.017   6.552
 1434TIP3   OH237836   2.411   2.779   6.687
 1434TIP3    H137837   2.368   2.861   6.653
 1434TIP3    H237838   2.334   2.722   6.699
 1435TIP3   OH237839   2.033   3.058   7.605
 1435TIP3    H137840   1.998   3.050   7.515
 1435TIP3    H237841   2.060   2.966   7.621
 1436TIP3   OH237842   1.995   3.321   7.266
 1436TIP3    H137843   2.072   3.273   7.299
 1436TIP3    H237844   1.998   3.399   7.324
 1437TIP3   OH237845   3.799   3.391   7.856
 1437TIP3    H137846   3.787   3.295   7.852
 1437TIP3    H237847   3.713   3.417   7.899
 1438TIP3   OH237848   2.880   3.330   7.764
 1438TIP3    H137849   2.898   3.400   7.829
 1438TIP3    H237850   2.788   3.304   7.781
 1439TIP3   OH237851   2.945   3.708   6.710
 1439TIP3    H137852   2.975   3.736   6.621
 1439TIP3    H237853   2.934   3.794   6.755
 1440TIP3   OH237854   2.320   3.593   6.913
 1440TIP3    H137855   2.341   3.566   7.006
 1440TIP3    H237856   2.228   3.562   6.903
 1441TIP3   OH237857   3.283   3.661   6.450
 1441TIP3    H137858   3.248   3.573   6.430
 1441TIP3    H237859   3.259   3.669   6.545
 1442TIP3   OH237860   3.212   3.634   6.711
 1442TIP3    H137861   3.115   3.639   6.729
 1442TIP3    H237862   3.231   3.551   6.759
 1443TIP3   OH237863   3.501   2.520   7.891
 1443TIP3    H137864   3.450   2.567   7.823
 1443TIP3    H237865   3.496   2.428   7.857
 1444TIP3   OH237866   2.257   3.176   7.708
 1444TIP3    H137867   2.258   3.136   7.798
 1444TIP3    H237868   2.170   3.149   7.673
 1445TIP3   OH237869   2.524   2.051   7.309
 1445TIP3    H137870   2.439   2.052   7.260
 1445TIP3    H237871   2.497   2.102   7.388
 1446TIP3   OH237872   3.018   1.989   7.615
 1446TIP3    H137873   3.054   1.945   7.695
 1446TIP3    H237874   2.922   1.994   7.638
 1447TIP3   OH237875   3.268   2.412   7.698
 1447TIP3    H137876   3.219   2.380   7.778
 1447TIP3    H237877   3.259   2.509   7.709
 1448TIP3   OH237878   2.953   2.188   6.410
 1448TIP3    H137879   2.870   2.183   6.460
 1448TIP3    H237880   2.920   2.196   6.317
 1449TIP3   OH237881   2.518   2.513   7.413
 1449TIP3    H137882   2.438   2.508   7.469
 1449TIP3    H237883   2.514   2.608   7.385
 1450TIP3   OH237884   2.496   2.511   6.925
 1450TIP3    H137885   2.405   2.506   6.892
 1450TIP3    H237886   2.547   2.509   6.840
 1451TIP3   OH237887   3.067   2.618   6.832
 1451TIP3    H137888   3.051   2.700   6.780
 1451TIP3    H237889   3.123   2.569   6.768
 1452TIP3   OH237890   2.960   2.630   7.938
 1452TIP3    H137891   2.927   2.546   7.975
 1452TIP3    H237892   3.048   2.632   7.980
 1453TIP3   OH237893   3.187   2.562   7.100
 1453TIP3    H137894   3.167   2.643   7.049
 1453TIP3    H237895   3.164   2.494   7.035
 1454TIP3   OH237896   2.269   2.530   7.546
 1454TIP3    H137897   2.302   2.565   7.630
 1454TIP3    H237898   2.237   2.442   7.577
 1455TIP3   OH237899   2.571   2.317   6.297
 1455TIP3    H137900   2.524   2.236   6.321
 1455TIP3    H237901   2.663   2.291   6.278
 1456TIP3   OH237902   1.963   2.244   7.014
 1456TIP3    H137903   2.040   2.227   7.071
 1456TIP3    H237904   1.998   2.290   6.937
 1457TIP3   OH237905   2.020   2.327   6.534
 1457TIP3    H137906   2.095   2.347   6.476
 1457TIP3    H237907   1.983   2.415   6.548
 1458TIP3   OH237908   3.074   2.697   7.510
 1458TIP3    H137909   3.129   2.628   7.467
 1458TIP3    H237910   3.016   2.641   7.567
 1459TIP3   OH237911   2.771   2.302   7.007
 1459TIP3    H137912   2.679   2.293   7.037
 1459TIP3    H237913   2.820   2.237   7.061
 1460TIP3   OH237914   2.225   2.459   6.891
 1460TIP3    H137915   2.141   2.484   6.847
 1460TIP3    H237916   2.244   2.372   6.852
 1461TIP3   OH237917   2.605   2.488   6.682
 1461TIP3    H137918   2.701   2.473   6.680
 1461TIP3    H237919   2.583   2.512   6.591
 1462TIP3   OH237920   3.211   2.214   7.319
 1462TIP3    H137921   3.132   2.194   7.372
 1462TIP3    H237922   3.202   2.159   7.239
 1463TIP3   OH237923   2.515   2.600   6.348
 1463TIP3    H137924   2.457   2.529   6.375
 1463TIP3    H237925   2.587   2.545   6.309
 1464TIP3   OH237926   3.496   3.768   7.998
 1464TIP3    H137927   3.530   3.794   7.911
 1464TIP3    H237928   3.576   3.782   8.052
 1465TIP3   OH237929   2.287   3.001   7.929
 1465TIP3    H137930   2.346   3.018   8.005
 1465TIP3    H237931   2.199   3.002   7.973
 1466TIP3   OH237932   2.845   2.582   7.164
 1466TIP3    H137933   2.923   2.545   7.120
 1466TIP3    H237934   2.814   2.509   7.220
 1467TIP3   OH237935   2.331   2.190   6.831
 1467TIP3    H137936   2.285   2.120   6.882
 1467TIP3    H237937   2.353   2.141   6.750
 1468TIP3   OH237938   2.762   2.388   7.431
 1468TIP3    H137939   2.682   2.445   7.424
 1468TIP3    H237940   2.821   2.442   7.487
 1469TIP3   OH237941   2.817   3.049   6.644
 1469TIP3    H137942   2.752   2.986   6.606
 1469TIP3    H237943   2.782   3.065   6.735
 1470TIP3   OH237944   3.555   2.975   7.496
 1470TIP3    H137945   3.602   3.032   7.430
 1470TIP3    H237946   3.469   2.968   7.453
 1471TIP3   OH237947   3.185   2.313   6.420
 1471TIP3    H137948   3.098   2.270   6.399
 1471TIP3    H237949   3.155   2.399   6.454
 1472TIP3   OH237950   2.924   3.063   7.729
 1472TIP3    H137951   2.897   3.043   7.819
 1472TIP3    H237952   2.907   3.159   7.727
 1473TIP3   OH237953   3.214   2.512   6.631
 1473TIP3    H137954   3.308   2.497   6.656
 1473TIP3    H237955   3.222   2.590   6.572
 1474TIP3   OH237956   2.334   2.981   7.166
 1474TIP3    H137957   2.390   2.964   7.088
 1474TIP3    H237958   2.351   2.903   7.221
 1475TIP3   OH237959   2.982   3.189   6.491
 1475TIP3    H137960   2.960   3.280   6.521
 1475TIP3    H237961   2.918   3.133   6.539
 1476TIP3   OH237962   2.014   2.799   7.733
 1476TIP3    H137963   2.013   2.734   7.805
 1476TIP3    H237964   1.966   2.753   7.661
 1477TIP3   OH237965   2.711   2.760   7.893
 1477TIP3    H137966   2.666   2.685   7.851
 1477TIP3    H237967   2.804   2.728   7.891
 1478TIP3   OH237968   3.216   3.286   7.759
 1478TIP3    H137969   3.142   3.310   7.701
 1478TIP3    H237970   3.188   3.335   7.839
 1479TIP3   OH237971   3.716   2.513   6.614
 1479TIP3    H137972   3.763   2.463   6.543
 1479TIP3    H237973   3.721   2.602   6.570
 1480TIP3   OH237974   3.782   3.116   7.822
 1480TIP3    H137975   3.687   3.117   7.795
 1480TIP3    H237976   3.826   3.103   7.735
 1481TIP3   OH237977   3.314   2.889   7.306
 1481TIP3    H137978   3.222   2.869   7.283
 1481TIP3    H237979   3.361   2.817   7.259
 1482TIP3   OH237980   2.554   3.306   6.957
 1482TIP3    H137981   2.596   3.394   6.948
 1482TIP3    H237982   2.477   3.321   6.900
 1483TIP3   OH237983   2.693   3.082   6.882
 1483TIP3    H137984   2.641   3.159   6.914
 1483TIP3    H237985   2.644   3.005   6.916
 1484TIP3   OH237986   2.742   3.501   7.569
 1484TIP3    H137987   2.808   3.566   7.537
 1484TIP3    H237988   2.792   3.460   7.641
 1485TIP3   OH237989   2.583   3.567   6.835
 1485TIP3    H137990   2.487   3.581   6.852
 1485TIP3    H237991   2.619   3.653   6.866
 1486TIP3   OH237992   3.067   3.091   7.476
 1486TIP3    H137993   3.032   3.064   7.565
 1486TIP3    H237994   3.104   3.008   7.443
 1487TIP3   OH237995   3.394   3.564   7.728
 1487TIP3    H137996   3.310   3.520   7.705
 1487TIP3    H237997   3.405   3.625   7.651
 1488TIP3   OH237998   2.223   2.298   7.680
 1488TIP3    H137999   2.150   2.338   7.732
 1488TIP3    H238000   2.206   2.205   7.702
 1489TIP3   OH238001   3.417   3.061   6.637
 1489TIP3    H138002   3.403   2.969   6.667
 1489TIP3    H238003   3.515   3.063   6.636
 1490TIP3   OH238004   2.133   3.439   7.499
 1490TIP3    H138005   2.218   3.395   7.521
 1490TIP3    H238006   2.125   3.506   7.568
 1491TIP3   OH238007   2.620   3.257   6.476
 1491TIP3    H138008   2.652   3.224   6.560
 1491TIP3    H238009   2.615   3.354   6.491
 1492TIP3   OH238010   2.308   2.992   6.543
 1492TIP3    H138011   2.216   3.022   6.561
 1492TIP3    H238012   2.350   3.070   6.505
 1493TIP3   OH238013   3.056   2.266   7.586
 1493TIP3    H138014   3.146   2.293   7.614
 1493TIP3    H238015   3.048   2.174   7.616
 1494TIP3   OH238016   3.171   2.182   6.677
 1494TIP3    H138017   3.167   2.203   6.581
 1494TIP3    H238018   3.212   2.264   6.709
 1495TIP3   OH238019   2.925   3.457   6.527
 1495TIP3    H138020   2.833   3.473   6.554
 1495TIP3    H238021   2.956   3.548   6.518
 1496TIP3   OH238022   2.864   2.399   6.769
 1496TIP3    H138023   2.927   2.466   6.802
 1496TIP3    H238024   2.834   2.356   6.852
 1497TIP3   OH238025   2.943   2.529   7.676
 1497TIP3    H138026   2.945   2.550   7.772
 1497TIP3    H238027   2.977   2.437   7.669
 1498TIP3   OH238028   2.927   2.104   6.808
 1498TIP3    H138029   2.903   2.141   6.895
 1498TIP3    H238030   3.010   2.155   6.787
 1499TIP3   OH238031   2.645   3.515   6.561
 1499TIP3    H138032   2.652   3.593   6.502
 1499TIP3    H238033   2.607   3.551   6.644
 1500TIP3   OH238034   3.513   2.280   7.760
 1500TIP3    H138035   3.417   2.285   7.744
 1500TIP3    H238036   3.549   2.283   7.670
 1501TIP3   OH238037   3.430   2.668   7.169
 1501TIP3    H138038   3.348   2.615   7.164
 1501TIP3    H238039   3.491   2.605   7.214
 1502TIP3   OH238040   2.162   2.563   6.303
 1502TIP3    H138041   2.208   2.617   6.368
 1502TIP3    H238042   2.080   2.612   6.288
 1503TIP3   OH238043   3.490   3.583   7.318
 1503TIP3    H138044   3.492   3.645   7.243
 1503TIP3    H238045   3.586   3.575   7.335
 1504TIP3   OH238046   2.260   1.994   7.239
 1504TIP3    H138047   2.252   1.983   7.142
 1504TIP3    H238048   2.230   1.906   7.269
 1505TIP3   OH238049   2.115   3.353   6.789
 1505TIP3    H138050   2.050   3.419   6.815
 1505TIP3    H238051   2.162   3.405   6.722
 1506TIP3   OH238052   2.039   3.679   7.959
 1506TIP3    H138053   2.103   3.669   8.034
 1506TIP3    H238054   2.009   3.587   7.951
 1507TIP3   OH238055   2.539   3.511   8.130
 1507TIP3    H138056   2.631   3.480   8.132
 1507TIP3    H238057   2.506   3.464   8.052
 1508TIP3   OH238058   3.152   3.414   7.985
 1508TIP3    H138059   3.132   3.324   8.021
 1508TIP3    H238060   3.241   3.425   8.026
 1509TIP3   OH238061   2.030   3.026   8.042
 1509TIP3    H138062   1.988   2.939   8.044
 1509TIP3    H238063   1.986   3.067   7.964
 1510TIP3   OH238064   2.708   3.023   7.940
 1510TIP3    H138065   2.682   3.081   7.865
 1510TIP3    H238066   2.705   2.931   7.900
 1511TIP3   OH238067   2.984   3.181   6.220
 1511TIP3    H138068   2.986   3.190   6.318
 1511TIP3    H238069   3.046   3.107   6.205
 1512TIP3   OH238070   3.288   3.015   7.736
 1512TIP3    H138071   3.373   3.066   7.737
 1512TIP3    H238072   3.228   3.091   7.752
 1513TIP3   OH238073   2.176   2.723   7.998
 1513TIP3    H138074   2.265   2.686   7.995
 1513TIP3    H238075   2.190   2.793   8.065
 1514TIP3   OH238076   2.634   2.865   6.515
 1514TIP3    H138077   2.552   2.836   6.561
 1514TIP3    H238078   2.660   2.781   6.475
 1515TIP3   OH238079   2.523   2.636   7.697
 1515TIP3    H138080   2.461   2.711   7.699
 1515TIP3    H238081   2.589   2.670   7.634
 1516TIP3   OH238082   3.069   2.925   8.064
 1516TIP3    H138083   3.126   2.875   8.005
 1516TIP3    H238084   3.033   2.857   8.123
 1517TIP3   OH238085   2.654   2.419   7.804
 1517TIP3    H138086   2.657   2.357   7.728
 1517TIP3    H238087   2.624   2.500   7.758
 1518TIP3   OH238088   2.643   2.212   7.589
 1518TIP3    H138089   2.691   2.257   7.515
 1518TIP3    H238090   2.551   2.221   7.555
 1519TIP3   OH238091   2.752   2.783   7.579
 1519TIP3    H138092   2.840   2.817   7.556
 1519TIP3    H238093   2.695   2.856   7.548
 1520TIP3   OH238094   3.164   2.571   8.115
 1520TIP3    H138095   3.171   2.485   8.163
 1520TIP3    H238096   3.256   2.590   8.095
 1521TIP3   OH238097   3.348   2.869   7.958
 1521TIP3    H138098   3.311   2.910   7.876
 1521TIP3    H238099   3.438   2.846   7.926
 1522TIP3   OH238100   2.446   2.488   8.009
 1522TIP3    H138101   2.367   2.437   7.978
 1522TIP3    H238102   2.499   2.493   7.929
 1523TIP3   OH238103   2.729   1.964   7.613
 1523TIP3    H138104   2.697   2.057   7.616
 1523TIP3    H238105   2.650   1.919   7.583
 1524TIP3   OH238106   2.835   2.388   8.024
 1524TIP3    H138107   2.766   2.370   8.091
 1524TIP3    H238108   2.781   2.376   7.943
 1525TIP3   OH238109   3.098   2.337   7.904
 1525TIP3    H138110   3.005   2.331   7.931
 1525TIP3    H238111   3.135   2.276   7.973
 1526TIP3   OH238112   3.197   2.160   8.074
 1526TIP3    H138113   3.250   2.081   8.094
 1526TIP3    H238114   3.213   2.220   8.152
 1527TIP3   OH238115   2.240   2.317   8.000
 1527TIP3    H138116   2.238   2.228   7.960
 1527TIP3    H238117   2.226   2.293   8.096
 1528TIP3   OH238118   2.690   1.900   7.887
 1528TIP3    H138119   2.772   1.847   7.892
 1528TIP3    H238120   2.692   1.919   7.791
 1529TIP3   OH238121   2.688   2.018   8.154
 1529TIP3    H138122   2.687   1.976   8.066
 1529TIP3    H238123   2.670   2.111   8.131
 1530TIP3   OH238124   2.721   3.759   6.420
 1530TIP3    H138125   2.795   3.794   6.472
 1530TIP3    H238126   2.697   3.834   6.364
 1531TIP3   OH238127   1.926   3.753   6.866
 1531TIP3    H138128   1.867   3.684   6.829
 1531TIP3    H238129   1.972   3.702   6.936
 1532TIP3   OH238130   2.020   3.565   7.045
 1532TIP3    H138131   1.954   3.495   7.055
 1532TIP3    H238132   2.040   3.582   7.139
 1533TIP3   OH238133   3.763   3.625   7.314
 1533TIP3    H138134   3.794   3.636   7.405
 1533TIP3    H238135   3.803   3.702   7.271
 1534TIP3   OH238136   3.728   3.585   7.629
 1534TIP3    H138137   3.693   3.505   7.584
 1534TIP3    H238138   3.751   3.547   7.716
 1535TIP3   OH238139   3.603   3.161   8.119
 1535TIP3    H138140   3.515   3.175   8.162
 1535TIP3    H238141   3.641   3.251   8.133
 1536TIP3   OH238142   3.690   3.019   6.674
 1536TIP3    H138143   3.781   3.055   6.664
 1536TIP3    H238144   3.705   2.937   6.726
 1537TIP3   OH238145   3.744   2.812   6.845
 1537TIP3    H138146   3.663   2.764   6.875
 1537TIP3    H238147   3.797   2.812   6.927
 1538TIP3   OH238148   3.710   3.088   7.314
 1538TIP3    H138149   3.782   3.025   7.293
 1538TIP3    H238150   3.739   3.170   7.271
 1539TIP3   OH238151   3.583   3.366   7.561
 1539TIP3    H138152   3.511   3.409   7.610
 1539TIP3    H238153   3.537   3.342   7.478
 1540TIP3   OH238154   3.762   2.734   6.480
 1540TIP3    H138155   3.815   2.704   6.403
 1540TIP3    H238156   3.806   2.818   6.500
 1541TIP3   OH238157   3.536   2.668   6.919
 1541TIP3    H138158   3.508   2.578   6.900
 1541TIP3    H238159   3.516   2.675   7.016
 1542TIP3   OH238160   2.028   2.903   7.309
 1542TIP3    H138161   2.031   2.870   7.216
 1542TIP3    H238162   2.120   2.879   7.338
 1543TIP3   OH238163   3.635   2.855   7.877
 1543TIP3    H138164   3.675   2.765   7.872
 1543TIP3    H238165   3.708   2.909   7.840
 1544TIP3   OH238166   3.747   2.599   7.908
 1544TIP3    H138167   3.658   2.557   7.907
 1544TIP3    H238168   3.807   2.521   7.917
 1545TIP3   OH238169   3.458   2.445   6.723
 1545TIP3    H138170   3.478   2.352   6.748
 1545TIP3    H238171   3.547   2.472   6.692
 1546TIP3   OH238172   3.585   2.492   7.291
 1546TIP3    H138173   3.684   2.503   7.296
 1546TIP3    H238174   3.563   2.503   7.385
 1547TIP3   OH238175   3.580   2.557   7.554
 1547TIP3    H138176   3.488   2.584   7.570
 1547TIP3    H238177   3.625   2.642   7.531
 1548TIP3   OH238178   2.015   2.396   7.894
 1548TIP3    H138179   2.097   2.377   7.944
 1548TIP3    H238180   1.964   2.313   7.908
 1549TIP3   OH238181   3.775   1.989   8.074
 1549TIP3    H138182   3.821   1.917   8.026
 1549TIP3    H238183   3.775   2.058   8.003
 1550TIP3   OH238184   3.505   2.174   6.771
 1550TIP3    H138185   3.566   2.136   6.836
 1550TIP3    H238186   3.469   2.096   6.725
 1551TIP3   OH238187   2.105   2.221   7.275
 1551TIP3    H138188   2.153   2.136   7.263
 1551TIP3    H238189   2.174   2.287   7.257
 1552TIP3   OH238190   1.958   2.538   7.317
 1552TIP3    H138191   2.012   2.512   7.241
 1552TIP3    H238192   1.994   2.627   7.332
 1553TIP3   OH238193   3.729   2.198   7.918
 1553TIP3    H138194   3.655   2.213   7.979
 1553TIP3    H238195   3.681   2.165   7.840
 1554TIP3   OH238196   1.977   2.161   6.738
 1554TIP3    H138197   1.881   2.152   6.725
 1554TIP3    H238198   2.003   2.208   6.655
 1555TIP3   OH238199   3.452   3.649   6.929
 1555TIP3    H138200   3.523   3.632   6.864
 1555TIP3    H238201   3.485   3.725   6.981
 1556TIP3   OH238202   1.975   2.017   7.552
 1556TIP3    H138203   1.901   1.982   7.604
 1556TIP3    H238204   1.937   2.093   7.505
 1557TIP3   OH238205   2.193   3.330   7.947
 1557TIP3    H138206   2.108   3.364   7.913
 1557TIP3    H238207   2.168   3.294   8.032
 1558TIP3   OH238208   2.470   3.476   7.614
 1558TIP3    H138209   2.471   3.570   7.586
 1558TIP3    H238210   2.566   3.457   7.610
 1559TIP3   OH238211   2.890   3.591   7.869
 1559TIP3    H138212   2.902   3.584   7.966
 1559TIP3    H238213   2.977   3.624   7.840
 1560TIP3   OH238214   3.113   3.753   7.825
 1560TIP3    H138215   3.196   3.707   7.807
 1560TIP3    H238216   3.136   3.806   7.905
 1561TIP3   OH238217   3.632   1.957   7.734
 1561TIP3    H138218   3.552   1.989   7.690
 1561TIP3    H238219   3.644   1.869   7.691
 1562TIP3   OH238220   2.212   3.780   7.576
 1562TIP3    H138221   2.137   3.819   7.526
 1562TIP3    H238222   2.198   3.818   7.665
 1563TIP3   OH238223   2.455   3.729   7.482
 1563TIP3    H138224   2.363   3.752   7.509
 1563TIP3    H238225   2.473   3.796   7.413
 1564TIP3   OH238226   2.918   3.687   7.426
 1564TIP3    H138227   2.840   3.731   7.389
 1564TIP3    H238228   2.962   3.763   7.471
 1565TIP3   OH238229   3.149   3.565   7.550
 1565TIP3    H138230   3.078   3.605   7.494
 1565TIP3    H238231   3.222   3.627   7.530
 1566TIP3   OH238232   3.397   3.731   7.521
 1566TIP3    H138233   3.415   3.823   7.492
 1566TIP3    H238234   3.430   3.683   7.441
 1567TIP3   OH238235   2.179   3.619   7.281
 1567TIP3    H138236   2.158   3.551   7.348
 1567TIP3    H238237   2.266   3.589   7.247
 1568TIP3   OH238238   2.403   3.532   7.160
 1568TIP3    H138239   2.385   3.439   7.185
 1568TIP3    H238240   2.491   3.545   7.200
 1569TIP3   OH238241   2.635   3.519   7.297
 1569TIP3    H138242   2.661   3.427   7.281
 1569TIP3    H238243   2.647   3.525   7.394
 1570TIP3   OH238244   2.931   2.090   7.082
 1570TIP3    H138245   2.858   2.068   7.143
 1570TIP3    H238246   2.992   2.019   7.101
 1571TIP3   OH238247   3.503   1.919   7.149
 1571TIP3    H138248   3.572   1.973   7.103
 1571TIP3    H238249   3.421   1.957   7.113
 1572TIP3   OH238250   3.671   2.039   6.975
 1572TIP3    H138251   3.731   1.971   6.937
 1572TIP3    H238252   3.733   2.112   6.998
 1573TIP3   OH238253   2.220   1.972   6.970
 1573TIP3    H138254   2.136   1.971   6.921
 1573TIP3    H238255   2.261   1.890   6.935
 1574TIP3   OH238256   2.672   1.932   6.896
 1574TIP3    H138257   2.729   1.987   6.841
 1574TIP3    H238258   2.698   1.957   6.986
 1575TIP3   OH238259   3.249   1.984   7.047
 1575TIP3    H138260   3.209   2.000   6.960
 1575TIP3    H238261   3.213   1.895   7.069
 1576TIP3   OH238262   3.351   1.976   6.619
 1576TIP3    H138263   3.272   2.024   6.651
 1576TIP3    H238264   3.322   1.883   6.636
 1577TIP3   OH238265   2.148   3.572   6.615
 1577TIP3    H138266   2.066   3.592   6.565
 1577TIP3    H238267   2.208   3.547   6.542
 1578TIP3   OH238268   2.776   2.158   6.599
 1578TIP3    H138269   2.834   2.137   6.675
 1578TIP3    H238270   2.775   2.255   6.610
 1579TIP3   OH238271   3.007   3.736   6.447
 1579TIP3    H138272   3.095   3.754   6.407
 1579TIP3    H238273   2.956   3.721   6.366
 1580TIP3   OH238274   3.629   3.613   6.735
 1580TIP3    H138275   3.628   3.529   6.687
 1580TIP3    H238276   3.628   3.681   6.665
 1581TIP3   OH238277   2.192   2.038   7.870
 1581TIP3    H138278   2.138   1.958   7.880
 1581TIP3    H238279   2.265   2.021   7.935
 1582TIP3   OH238280   2.387   1.978   8.052
 1582TIP3    H138281   2.467   1.929   8.026
 1582TIP3    H238282   2.345   1.912   8.109
 1583TIP3   OH238283   3.246   1.895   8.102
 1583TIP3    H138284   3.259   1.851   8.188
 1583TIP3    H238285   3.333   1.879   8.059
 1584TIP3   OH238286   3.571   3.509   7.925
 1584TIP3    H138287   3.496   3.501   7.862
 1584TIP3    H238288   3.558   3.601   7.956
 1585TIP3   OH238289   5.047   2.904   6.902
 1585TIP3    H138290   5.064   2.988   6.949
 1585TIP3    H238291   4.954   2.917   6.877
 1586TIP3   OH238292   4.912   2.782   7.248
 1586TIP3    H138293   4.919   2.739   7.336
 1586TIP3    H238294   4.848   2.726   7.201
 1587TIP3   OH238295   4.116   2.777   7.400
 1587TIP3    H138296   4.114   2.698   7.457
 1587TIP3    H238297   4.192   2.823   7.438
 1588TIP3   OH238298   5.232   3.096   7.101
 1588TIP3    H138299   5.241   3.035   7.177
 1588TIP3    H238300   5.245   3.181   7.144
 1589TIP3   OH238301   4.225   3.250   7.239
 1589TIP3    H138302   4.195   3.159   7.218
 1589TIP3    H238303   4.321   3.235   7.231
 1590TIP3   OH238304   3.905   2.560   6.817
 1590TIP3    H138305   3.895   2.655   6.802
 1590TIP3    H238306   3.819   2.531   6.780
 1591TIP3   OH238307   3.923   2.796   7.058
 1591TIP3    H138308   3.961   2.707   7.076
 1591TIP3    H238309   3.998   2.845   7.020
 1592TIP3   OH238310   4.987   3.644   7.110
 1592TIP3    H138311   5.058   3.591   7.066
 1592TIP3    H238312   4.952   3.572   7.165
 1593TIP3   OH238313   4.719   3.063   7.357
 1593TIP3    H138314   4.746   3.002   7.287
 1593TIP3    H238315   4.806   3.085   7.396
 1594TIP3   OH238316   5.591   2.202   7.352
 1594TIP3    H138317   5.612   2.251   7.434
 1594TIP3    H238318   5.668   2.222   7.297
 1595TIP3   OH238319   5.078   2.513   7.366
 1595TIP3    H138320   5.100   2.418   7.373
 1595TIP3    H238321   5.048   2.514   7.273
 1596TIP3   OH238322   4.390   2.280   7.032
 1596TIP3    H138323   4.395   2.368   6.989
 1596TIP3    H238324   4.339   2.230   6.965
 1597TIP3   OH238325   5.147   2.314   6.927
 1597TIP3    H138326   5.195   2.279   7.004
 1597TIP3    H238327   5.216   2.370   6.889
 1598TIP3   OH238328   4.037   2.567   7.135
 1598TIP3    H138329   4.104   2.526   7.192
 1598TIP3    H238330   4.064   2.532   7.048
 1599TIP3   OH238331   4.514   2.699   7.092
 1599TIP3    H138332   4.604   2.661   7.094
 1599TIP3    H238333   4.464   2.622   7.059
 1600TIP3   OH238334   5.605   2.343   7.590
 1600TIP3    H138335   5.576   2.424   7.542
 1600TIP3    H238336   5.620   2.381   7.679
 1601TIP3   OH238337   4.293   2.212   7.470
 1601TIP3    H138338   4.240   2.251   7.397
 1601TIP3    H238339   4.236   2.237   7.545
 1602TIP3   OH238340   4.947   3.171   6.813
 1602TIP3    H138341   4.886   3.164   6.739
 1602TIP3    H238342   4.949   3.268   6.828
 1603TIP3   OH238343   4.486   2.966   7.443
 1603TIP3    H138344   4.427   3.036   7.479
 1603TIP3    H238345   4.563   3.019   7.413
 1604TIP3   OH238346   5.330   2.304   7.152
 1604TIP3    H138347   5.350   2.220   7.194
 1604TIP3    H238348   5.395   2.364   7.196
 1605TIP3   OH238349   4.228   2.391   7.256
 1605TIP3    H138350   4.290   2.451   7.306
 1605TIP3    H238351   4.286   2.363   7.182
 1606TIP3   OH238352   4.353   3.181   7.547
 1606TIP3    H138353   4.334   3.260   7.494
 1606TIP3    H238354   4.269   3.175   7.599
 1607TIP3   OH238355   3.949   3.121   6.610
 1607TIP3    H138356   3.934   3.173   6.529
 1607TIP3    H238357   3.974   3.191   6.675
 1608TIP3   OH238358   5.331   3.295   7.340
 1608TIP3    H138359   5.237   3.321   7.355
 1608TIP3    H238360   5.357   3.371   7.286
 1609TIP3   OH238361   5.313   2.122   7.449
 1609TIP3    H138362   5.235   2.152   7.397
 1609TIP3    H238363   5.390   2.159   7.403
 1610TIP3   OH238364   4.608   1.928   7.230
 1610TIP3    H138365   4.572   1.838   7.225
 1610TIP3    H238366   4.526   1.979   7.250
 1611TIP3   OH238367   5.169   3.486   6.985
 1611TIP3    H138368   5.174   3.408   6.927
 1611TIP3    H238369   5.243   3.540   6.949
 1612TIP3   OH238370   5.257   3.267   6.827
 1612TIP3    H138371   5.251   3.194   6.763
 1612TIP3    H238372   5.248   3.216   6.909
 1613TIP3   OH238373   5.416   3.129   7.699
 1613TIP3    H138374   5.428   3.058   7.632
 1613TIP3    H238375   5.440   3.207   7.645
 1614TIP3   OH238376   4.900   2.822   6.646
 1614TIP3    H138377   4.817   2.874   6.638
 1614TIP3    H238378   4.963   2.891   6.673
 1615TIP3   OH238379   5.623   2.779   7.492
 1615TIP3    H138380   5.557   2.851   7.492
 1615TIP3    H238381   5.684   2.813   7.423
 1616TIP3   OH238382   5.262   2.808   6.763
 1616TIP3    H138383   5.192   2.849   6.819
 1616TIP3    H238384   5.324   2.777   6.834
 1617TIP3   OH238385   5.229   2.687   7.681
 1617TIP3    H138386   5.232   2.776   7.718
 1617TIP3    H238387   5.157   2.698   7.617
 1618TIP3   OH238388   4.386   2.876   6.944
 1618TIP3    H138389   4.347   2.826   6.869
 1618TIP3    H238390   4.443   2.808   6.987
 1619TIP3   OH238391   4.514   3.227   7.227
 1619TIP3    H138392   4.530   3.211   7.133
 1619TIP3    H238393   4.585   3.176   7.271
 1620TIP3   OH238394   4.396   2.753   7.325
 1620TIP3    H138395   4.437   2.753   7.235
 1620TIP3    H238396   4.440   2.831   7.367
 1621TIP3   OH238397   5.077   3.349   7.393
 1621TIP3    H138398   5.040   3.403   7.466
 1621TIP3    H238399   5.057   3.259   7.422
 1622TIP3   OH238400   4.515   3.218   7.763
 1622TIP3    H138401   4.443   3.268   7.809
 1622TIP3    H238402   4.470   3.202   7.677
 1623TIP3   OH238403   4.221   2.837   7.666
 1623TIP3    H138404   4.234   2.921   7.712
 1623TIP3    H238405   4.144   2.805   7.716
 1624TIP3   OH238406   4.900   3.461   6.827
 1624TIP3    H138407   4.896   3.516   6.906
 1624TIP3    H238408   4.856   3.518   6.762
 1625TIP3   OH238409   4.337   3.389   7.873
 1625TIP3    H138410   4.327   3.428   7.783
 1625TIP3    H238411   4.244   3.368   7.893
 1626TIP3   OH238412   4.243   2.779   6.721
 1626TIP3    H138413   4.226   2.869   6.685
 1626TIP3    H238414   4.192   2.724   6.661
 1627TIP3   OH238415   3.921   3.053   7.605
 1627TIP3    H138416   3.875   3.039   7.520
 1627TIP3    H238417   3.952   2.963   7.621
 1628TIP3   OH238418   3.889   3.316   7.267
 1628TIP3    H138419   3.982   3.290   7.266
 1628TIP3    H238420   3.891   3.388   7.332
 1629TIP3   OH238421   5.681   3.392   7.859
 1629TIP3    H138422   5.670   3.295   7.858
 1629TIP3    H238423   5.596   3.420   7.900
 1630TIP3   OH238424   4.770   3.329   7.760
 1630TIP3    H138425   4.785   3.402   7.824
 1630TIP3    H238426   4.677   3.303   7.775
 1631TIP3   OH238427   4.821   3.719   6.704
 1631TIP3    H138428   4.772   3.753   6.627
 1631TIP3    H238429   4.827   3.800   6.759
 1632TIP3   OH238430   4.203   3.591   6.907
 1632TIP3    H138431   4.226   3.568   6.999
 1632TIP3    H238432   4.110   3.564   6.901
 1633TIP3   OH238433   5.137   3.589   6.426
 1633TIP3    H138434   5.221   3.540   6.412
 1633TIP3    H238435   5.135   3.608   6.522
 1634TIP3   OH238436   5.099   3.643   6.701
 1634TIP3    H138437   5.012   3.677   6.728
 1634TIP3    H238438   5.103   3.558   6.747
 1635TIP3   OH238439   5.384   2.518   7.894
 1635TIP3    H138440   5.329   2.561   7.826
 1635TIP3    H238441   5.385   2.426   7.861
 1636TIP3   OH238442   4.135   3.177   7.703
 1636TIP3    H138443   4.135   3.142   7.794
 1636TIP3    H238444   4.048   3.148   7.669
 1637TIP3   OH238445   4.393   2.049   7.296
 1637TIP3    H138446   4.302   2.043   7.260
 1637TIP3    H238447   4.377   2.108   7.373
 1638TIP3   OH238448   4.895   1.990   7.617
 1638TIP3    H138449   4.931   1.946   7.697
 1638TIP3    H238450   4.800   1.994   7.636
 1639TIP3   OH238451   5.168   2.409   7.690
 1639TIP3    H138452   5.121   2.387   7.774
 1639TIP3    H238453   5.122   2.490   7.663
 1640TIP3   OH238454   4.406   2.507   7.418
 1640TIP3    H138455   4.328   2.518   7.475
 1640TIP3    H238456   4.413   2.601   7.386
 1641TIP3   OH238457   4.386   2.527   6.931
 1641TIP3    H138458   4.293   2.516   6.902
 1641TIP3    H238459   4.425   2.557   6.847
 1642TIP3   OH238460   4.952   2.586   6.782
 1642TIP3    H138461   4.934   2.673   6.739
 1642TIP3    H238462   5.034   2.558   6.740
 1643TIP3   OH238463   4.843   2.627   7.953
 1643TIP3    H138464   4.812   2.539   7.984
 1643TIP3    H238465   4.932   2.628   7.995
 1644TIP3   OH238466   5.045   2.563   7.095
 1644TIP3    H138467   5.039   2.642   7.038
 1644TIP3    H238468   5.048   2.491   7.028
 1645TIP3   OH238469   4.156   2.533   7.544
 1645TIP3    H138470   4.193   2.567   7.627
 1645TIP3    H238471   4.118   2.448   7.575
 1646TIP3   OH238472   3.844   2.244   7.004
 1646TIP3    H138473   3.915   2.245   7.070
 1646TIP3    H238474   3.885   2.283   6.925
 1647TIP3   OH238475   4.960   2.701   7.512
 1647TIP3    H138476   5.012   2.632   7.464
 1647TIP3    H238477   4.903   2.646   7.570
 1648TIP3   OH238478   4.691   2.277   6.997
 1648TIP3    H138479   4.596   2.272   7.021
 1648TIP3    H238480   4.732   2.228   7.071
 1649TIP3   OH238481   4.141   2.441   6.884
 1649TIP3    H138482   4.065   2.478   6.834
 1649TIP3    H238483   4.171   2.369   6.825
 1650TIP3   OH238484   4.455   2.466   6.664
 1650TIP3    H138485   4.552   2.456   6.666
 1650TIP3    H238486   4.441   2.526   6.589
 1651TIP3   OH238487   5.085   2.211   7.316
 1651TIP3    H138488   5.007   2.181   7.365
 1651TIP3    H238489   5.082   2.156   7.235
 1652TIP3   OH238490   4.408   2.571   6.409
 1652TIP3    H138491   4.358   2.488   6.405
 1652TIP3    H238492   4.432   2.581   6.316
 1653TIP3   OH238493   5.382   3.775   7.994
 1653TIP3    H138494   5.417   3.807   7.908
 1653TIP3    H238495   5.460   3.791   8.050
 1654TIP3   OH238496   4.172   3.001   7.930
 1654TIP3    H138497   4.232   3.014   8.007
 1654TIP3    H238498   4.085   3.002   7.975
 1655TIP3   OH238499   4.749   2.567   7.156
 1655TIP3    H138500   4.837   2.531   7.137
 1655TIP3    H238501   4.708   2.496   7.209
 1656TIP3   OH238502   4.237   2.170   6.823
 1656TIP3    H138503   4.173   2.113   6.871
 1656TIP3    H238504   4.289   2.102   6.778
 1657TIP3   OH238505   4.647   2.381   7.428
 1657TIP3    H138506   4.570   2.437   7.410
 1657TIP3    H238507   4.700   2.438   7.486
 1658TIP3   OH238508   4.703   3.014   6.637
 1658TIP3    H138509   4.628   2.959   6.607
 1658TIP3    H238510   4.664   3.059   6.716
 1659TIP3   OH238511   5.440   2.975   7.486
 1659TIP3    H138512   5.485   3.027   7.414
 1659TIP3    H238513   5.350   2.971   7.450
 1660TIP3   OH238514   5.055   2.314   6.439
 1660TIP3    H138515   4.990   2.311   6.510
 1660TIP3    H238516   5.119   2.378   6.477
 1661TIP3   OH238517   4.818   3.062   7.727
 1661TIP3    H138518   4.793   3.041   7.818
 1661TIP3    H238519   4.794   3.157   7.725
 1662TIP3   OH238520   5.181   2.506   6.608
 1662TIP3    H138521   5.258   2.467   6.656
 1662TIP3    H238522   5.207   2.599   6.617
 1663TIP3   OH238523   4.210   2.977   7.150
 1663TIP3    H138524   4.255   2.954   7.067
 1663TIP3    H238525   4.238   2.905   7.210
 1664TIP3   OH238526   3.897   2.801   7.736
 1664TIP3    H138527   3.894   2.734   7.806
 1664TIP3    H238528   3.851   2.755   7.663
 1665TIP3   OH238529   4.600   2.757   7.892
 1665TIP3    H138530   4.563   2.674   7.859
 1665TIP3    H238531   4.694   2.732   7.900
 1666TIP3   OH238532   5.100   3.292   7.759
 1666TIP3    H138533   5.023   3.309   7.704
 1666TIP3    H238534   5.073   3.342   7.840
 1667TIP3   OH238535   5.628   2.531   6.594
 1667TIP3    H138536   5.587   2.490   6.517
 1667TIP3    H238537   5.643   2.621   6.557
 1668TIP3   OH238538   5.666   3.116   7.823
 1668TIP3    H138539   5.571   3.117   7.797
 1668TIP3    H238540   5.709   3.102   7.735
 1669TIP3   OH238541   5.202   2.896   7.296
 1669TIP3    H138542   5.111   2.883   7.264
 1669TIP3    H238543   5.247   2.821   7.254
 1670TIP3   OH238544   4.429   3.301   6.950
 1670TIP3    H138545   4.488   3.374   6.925
 1670TIP3    H238546   4.344   3.331   6.915
 1671TIP3   OH238547   4.573   3.091   6.862
 1671TIP3    H138548   4.519   3.165   6.896
 1671TIP3    H238549   4.541   3.017   6.918
 1672TIP3   OH238550   4.625   3.501   7.566
 1672TIP3    H138551   4.691   3.564   7.532
 1672TIP3    H238552   4.678   3.457   7.635
 1673TIP3   OH238553   4.475   3.583   6.830
 1673TIP3    H138554   4.381   3.582   6.854
 1673TIP3    H238555   4.500   3.672   6.862
 1674TIP3   OH238556   4.957   3.090   7.484
 1674TIP3    H138557   4.922   3.064   7.573
 1674TIP3    H238558   5.004   3.009   7.457
 1675TIP3   OH238559   5.220   3.188   6.387
 1675TIP3    H138560   5.217   3.171   6.483
 1675TIP3    H238561   5.248   3.102   6.350
 1676TIP3   OH238562   5.274   3.559   7.728
 1676TIP3    H138563   5.187   3.517   7.711
 1676TIP3    H238564   5.280   3.619   7.649
 1677TIP3   OH238565   4.106   2.295   7.676
 1677TIP3    H138566   4.033   2.331   7.731
 1677TIP3    H238567   4.101   2.201   7.703
 1678TIP3   OH238568   5.300   3.048   6.628
 1678TIP3    H138569   5.273   2.958   6.658
 1678TIP3    H238570   5.394   3.032   6.607
 1679TIP3   OH238571   4.031   3.451   7.499
 1679TIP3    H138572   4.105   3.391   7.518
 1679TIP3    H238573   4.026   3.501   7.581
 1680TIP3   OH238574   4.478   3.270   6.468
 1680TIP3    H138575   4.510   3.225   6.547
 1680TIP3    H238576   4.495   3.365   6.490
 1681TIP3   OH238577   4.214   3.009   6.580
 1681TIP3    H138578   4.122   3.031   6.608
 1681TIP3    H238579   4.214   3.066   6.501
 1682TIP3   OH238580   4.938   2.266   7.604
 1682TIP3    H138581   5.033   2.273   7.623
 1682TIP3    H238582   4.922   2.170   7.618
 1683TIP3   OH238583   5.009   2.235   6.704
 1683TIP3    H138584   5.088   2.211   6.656
 1683TIP3    H238585   5.048   2.279   6.782
 1684TIP3   OH238586   4.726   2.430   6.718
 1684TIP3    H138587   4.810   2.477   6.735
 1684TIP3    H238588   4.699   2.400   6.807
 1685TIP3   OH238589   4.824   2.530   7.679
 1685TIP3    H138590   4.825   2.549   7.775
 1685TIP3    H238591   4.861   2.439   7.671
 1686TIP3   OH238592   4.826   2.064   6.851
 1686TIP3    H138593   4.780   2.118   6.918
 1686TIP3    H238594   4.890   2.130   6.816
 1687TIP3   OH238595   4.529   3.520   6.562
 1687TIP3    H138596   4.556   3.606   6.523
 1687TIP3    H238597   4.504   3.548   6.652
 1688TIP3   OH238598   4.434   2.259   6.485
 1688TIP3    H138599   4.398   2.298   6.568
 1688TIP3    H238600   4.512   2.207   6.515
 1689TIP3   OH238601   5.401   2.276   7.760
 1689TIP3    H138602   5.307   2.289   7.735
 1689TIP3    H238603   5.442   2.279   7.672
 1690TIP3   OH238604   5.299   2.655   7.161
 1690TIP3    H138605   5.216   2.603   7.168
 1690TIP3    H238606   5.363   2.601   7.212
 1691TIP3   OH238607   4.190   3.244   6.426
 1691TIP3    H138608   4.282   3.272   6.445
 1691TIP3    H238609   4.196   3.211   6.335
 1692TIP3   OH238610   5.375   3.579   7.310
 1692TIP3    H138611   5.386   3.643   7.236
 1692TIP3    H238612   5.468   3.570   7.335
 1693TIP3   OH238613   4.135   2.000   7.233
 1693TIP3    H138614   4.127   1.991   7.135
 1693TIP3    H238615   4.105   1.912   7.262
 1694TIP3   OH238616   3.996   3.323   6.782
 1694TIP3    H138617   3.954   3.338   6.867
 1694TIP3    H238618   4.008   3.413   6.746
 1695TIP3   OH238619   3.931   3.684   7.958
 1695TIP3    H138620   3.996   3.671   8.031
 1695TIP3    H238621   3.897   3.594   7.949
 1696TIP3   OH238622   4.433   3.508   8.134
 1696TIP3    H138623   4.526   3.479   8.138
 1696TIP3    H238624   4.402   3.457   8.058
 1697TIP3   OH238625   5.036   3.414   7.988
 1697TIP3    H138626   5.016   3.324   8.022
 1697TIP3    H238627   5.127   3.424   8.024
 1698TIP3   OH238628   5.338   3.426   6.327
 1698TIP3    H138629   5.295   3.338   6.337
 1698TIP3    H238630   5.338   3.439   6.231
 1699TIP3   OH238631   3.918   3.023   8.041
 1699TIP3    H138632   3.874   2.936   8.044
 1699TIP3    H238633   3.875   3.064   7.963
 1700TIP3   OH238634   4.592   3.021   7.942
 1700TIP3    H138635   4.568   3.081   7.868
 1700TIP3    H238636   4.589   2.930   7.901
 1701TIP3   OH238637   5.171   3.015   7.738
 1701TIP3    H138638   5.257   3.063   7.739
 1701TIP3    H238639   5.114   3.094   7.751
 1702TIP3   OH238640   4.059   2.724   7.995
 1702TIP3    H138641   4.147   2.687   7.991
 1702TIP3    H238642   4.072   2.792   8.064
 1703TIP3   OH238643   4.479   2.857   6.530
 1703TIP3    H138644   4.419   2.912   6.581
 1703TIP3    H238645   4.410   2.809   6.481
 1704TIP3   OH238646   4.400   2.636   7.677
 1704TIP3    H138647   4.345   2.715   7.695
 1704TIP3    H238648   4.478   2.678   7.636
 1705TIP3   OH238649   4.628   2.719   6.317
 1705TIP3    H138650   4.548   2.737   6.267
 1705TIP3    H238651   4.600   2.755   6.404
 1706TIP3   OH238652   4.959   2.930   8.063
 1706TIP3    H138653   5.015   2.880   8.002
 1706TIP3    H238654   4.931   2.862   8.126
 1707TIP3   OH238655   4.527   2.422   7.801
 1707TIP3    H138656   4.530   2.355   7.729
 1707TIP3    H238657   4.499   2.501   7.748
 1708TIP3   OH238658   4.531   2.221   7.598
 1708TIP3    H138659   4.580   2.263   7.524
 1708TIP3    H238660   4.440   2.225   7.561
 1709TIP3   OH238661   4.639   2.786   7.580
 1709TIP3    H138662   4.727   2.819   7.559
 1709TIP3    H238663   4.584   2.861   7.551
 1710TIP3   OH238664   5.058   2.564   8.118
 1710TIP3    H138665   5.066   2.478   8.164
 1710TIP3    H238666   5.151   2.586   8.099
 1711TIP3   OH238667   5.236   2.864   7.960
 1711TIP3    H138668   5.200   2.907   7.880
 1711TIP3    H238669   5.325   2.840   7.928
 1712TIP3   OH238670   4.327   2.488   8.012
 1712TIP3    H138671   4.248   2.436   7.980
 1712TIP3    H238672   4.383   2.488   7.933
 1713TIP3   OH238673   4.608   1.969   7.602
 1713TIP3    H138674   4.575   2.061   7.607
 1713TIP3    H238675   4.529   1.922   7.572
 1714TIP3   OH238676   4.719   2.385   8.021
 1714TIP3    H138677   4.650   2.374   8.089
 1714TIP3    H238678   4.663   2.376   7.941
 1715TIP3   OH238679   5.009   2.344   7.900
 1715TIP3    H138680   4.913   2.336   7.913
 1715TIP3    H238681   5.036   2.280   7.969
 1716TIP3   OH238682   5.078   2.160   8.077
 1716TIP3    H138683   5.131   2.080   8.094
 1716TIP3    H238684   5.097   2.218   8.155
 1717TIP3   OH238685   4.124   2.310   7.995
 1717TIP3    H138686   4.114   2.224   7.950
 1717TIP3    H238687   4.108   2.284   8.089
 1718TIP3   OH238688   4.573   1.916   7.863
 1718TIP3    H138689   4.657   1.870   7.877
 1718TIP3    H238690   4.575   1.918   7.765
 1719TIP3   OH238691   4.586   2.023   8.148
 1719TIP3    H138692   4.566   1.989   8.059
 1719TIP3    H238693   4.585   2.119   8.130
 1720TIP3   OH238694   4.606   3.773   6.446
 1720TIP3    H138695   4.676   3.782   6.379
 1720TIP3    H238696   4.530   3.810   6.398
 1721TIP3   OH238697   3.915   3.255   6.364
 1721TIP3    H138698   4.012   3.255   6.362
 1721TIP3    H238699   3.896   3.203   6.282
 1722TIP3   OH238700   3.819   3.740   6.878
 1722TIP3    H138701   3.746   3.685   6.841
 1722TIP3    H238702   3.852   3.681   6.949
 1723TIP3   OH238703   3.922   3.545   7.062
 1723TIP3    H138704   3.856   3.492   7.110
 1723TIP3    H238705   3.972   3.580   7.139
 1724TIP3   OH238706   5.652   3.638   7.324
 1724TIP3    H138707   5.686   3.657   7.413
 1724TIP3    H238708   5.727   3.666   7.270
 1725TIP3   OH238709   5.614   3.584   7.636
 1725TIP3    H138710   5.580   3.505   7.588
 1725TIP3    H238711   5.635   3.545   7.723
 1726TIP3   OH238712   5.494   3.164   8.120
 1726TIP3    H138713   5.404   3.176   8.158
 1726TIP3    H238714   5.527   3.256   8.132
 1727TIP3   OH238715   5.625   3.010   6.656
 1727TIP3    H138716   5.615   3.077   6.724
 1727TIP3    H238717   5.626   2.930   6.713
 1728TIP3   OH238718   5.639   2.820   6.856
 1728TIP3    H138719   5.556   2.771   6.876
 1728TIP3    H238720   5.683   2.818   6.944
 1729TIP3   OH238721   5.591   3.091   7.305
 1729TIP3    H138722   5.662   3.023   7.298
 1729TIP3    H238723   5.636   3.175   7.284
 1730TIP3   OH238724   5.472   3.369   7.561
 1730TIP3    H138725   5.406   3.417   7.614
 1730TIP3    H238726   5.422   3.349   7.478
 1731TIP3   OH238727   5.644   2.790   6.496
 1731TIP3    H138728   5.601   2.812   6.412
 1731TIP3    H238729   5.660   2.877   6.537
 1732TIP3   OH238730   5.443   2.562   6.345
 1732TIP3    H138731   5.449   2.642   6.291
 1732TIP3    H238732   5.411   2.502   6.276
 1733TIP3   OH238733   5.429   2.676   6.926
 1733TIP3    H138734   5.404   2.586   6.899
 1733TIP3    H238735   5.403   2.678   7.021
 1734TIP3   OH238736   3.904   2.894   7.314
 1734TIP3    H138737   3.900   2.861   7.221
 1734TIP3    H238738   3.994   2.864   7.341
 1735TIP3   OH238739   5.524   2.855   7.876
 1735TIP3    H138740   5.559   2.763   7.875
 1735TIP3    H238741   5.599   2.904   7.838
 1736TIP3   OH238742   5.628   2.600   7.908
 1736TIP3    H138743   5.539   2.558   7.909
 1736TIP3    H238744   5.688   2.522   7.916
 1737TIP3   OH238745   5.399   2.303   6.246
 1737TIP3    H138746   5.476   2.265   6.291
 1737TIP3    H238747   5.329   2.283   6.308
 1738TIP3   OH238748   5.381   2.425   6.767
 1738TIP3    H138749   5.391   2.328   6.782
 1738TIP3    H238750   5.470   2.447   6.734
 1739TIP3   OH238751   5.464   2.491   7.297
 1739TIP3    H138752   5.562   2.507   7.300
 1739TIP3    H238753   5.443   2.498   7.392
 1740TIP3   OH238754   5.463   2.563   7.558
 1740TIP3    H138755   5.378   2.584   7.599
 1740TIP3    H238756   5.503   2.651   7.542
 1741TIP3   OH238757   3.901   2.388   7.889
 1741TIP3    H138758   3.983   2.365   7.939
 1741TIP3    H238759   3.848   2.306   7.902
 1742TIP3   OH238760   5.663   1.989   8.069
 1742TIP3    H138761   5.710   1.918   8.022
 1742TIP3    H238762   5.661   2.060   8.000
 1743TIP3   OH238763   5.398   2.150   6.794
 1743TIP3    H138764   5.454   2.115   6.867
 1743TIP3    H238765   5.371   2.069   6.745
 1744TIP3   OH238766   3.993   2.229   7.266
 1744TIP3    H138767   4.038   2.142   7.257
 1744TIP3    H238768   4.065   2.292   7.248
 1745TIP3   OH238769   3.841   2.534   7.315
 1745TIP3    H138770   3.904   2.499   7.250
 1745TIP3    H238771   3.880   2.621   7.329
 1746TIP3   OH238772   5.610   2.203   7.925
 1746TIP3    H138773   5.541   2.228   7.989
 1746TIP3    H238774   5.556   2.175   7.848
 1747TIP3   OH238775   5.650   2.200   6.394
 1747TIP3    H138776   5.645   2.112   6.354
 1747TIP3    H238777   5.693   2.258   6.330
 1748TIP3   OH238778   3.882   2.191   6.723
 1748TIP3    H138779   3.795   2.188   6.766
 1748TIP3    H238780   3.861   2.217   6.631
 1749TIP3   OH238781   5.362   3.641   6.887
 1749TIP3    H138782   5.419   3.648   6.809
 1749TIP3    H238783   5.403   3.703   6.951
 1750TIP3   OH238784   3.849   2.018   7.547
 1750TIP3    H138785   3.780   2.001   7.614
 1750TIP3    H238786   3.808   2.080   7.484
 1751TIP3   OH238787   4.080   3.333   7.947
 1751TIP3    H138788   3.994   3.368   7.920
 1751TIP3    H238789   4.059   3.289   8.030
 1752TIP3   OH238790   4.360   3.471   7.613
 1752TIP3    H138791   4.357   3.565   7.585
 1752TIP3    H238792   4.458   3.457   7.608
 1753TIP3   OH238793   4.771   3.593   7.868
 1753TIP3    H138794   4.781   3.583   7.965
 1753TIP3    H238795   4.856   3.634   7.845
 1754TIP3   OH238796   4.994   3.757   7.834
 1754TIP3    H138797   5.077   3.715   7.806
 1754TIP3    H238798   5.023   3.810   7.911
 1755TIP3   OH238799   5.520   1.954   7.729
 1755TIP3    H138800   5.442   1.989   7.686
 1755TIP3    H238801   5.527   1.864   7.689
 1756TIP3   OH238802   4.096   3.784   7.580
 1756TIP3    H138803   4.013   3.824   7.548
 1756TIP3    H238804   4.098   3.819   7.671
 1757TIP3   OH238805   4.338   3.730   7.475
 1757TIP3    H138806   4.245   3.750   7.502
 1757TIP3    H238807   4.357   3.804   7.414
 1758TIP3   OH238808   4.798   3.694   7.430
 1758TIP3    H138809   4.722   3.747   7.399
 1758TIP3    H238810   4.849   3.764   7.475
 1759TIP3   OH238811   5.026   3.571   7.556
 1759TIP3    H138812   4.958   3.606   7.495
 1759TIP3    H238813   5.101   3.627   7.526
 1760TIP3   OH238814   5.289   3.727   7.521
 1760TIP3    H138815   5.304   3.821   7.499
 1760TIP3    H238816   5.318   3.685   7.437
 1761TIP3   OH238817   4.060   3.622   7.287
 1761TIP3    H138818   4.041   3.563   7.364
 1761TIP3    H238819   4.151   3.594   7.263
 1762TIP3   OH238820   4.281   3.530   7.158
 1762TIP3    H138821   4.260   3.438   7.187
 1762TIP3    H238822   4.371   3.537   7.197
 1763TIP3   OH238823   4.513   3.515   7.283
 1763TIP3    H138824   4.537   3.421   7.269
 1763TIP3    H238825   4.531   3.525   7.378
 1764TIP3   OH238826   4.801   2.071   7.141
 1764TIP3    H138827   4.733   2.008   7.175
 1764TIP3    H238828   4.871   2.015   7.106
 1765TIP3   OH238829   5.391   1.902   7.134
 1765TIP3    H138830   5.445   1.976   7.097
 1765TIP3    H238831   5.300   1.926   7.107
 1766TIP3   OH238832   5.561   2.058   6.984
 1766TIP3    H138833   5.622   1.997   6.939
 1766TIP3    H238834   5.622   2.131   7.011
 1767TIP3   OH238835   4.097   1.976   6.955
 1767TIP3    H138836   4.006   1.961   6.924
 1767TIP3    H238837   4.140   1.892   6.927
 1768TIP3   OH238838   3.943   1.949   6.532
 1768TIP3    H138839   3.997   1.956   6.451
 1768TIP3    H238840   3.962   2.031   6.580
 1769TIP3   OH238841   4.540   1.934   6.928
 1769TIP3    H138842   4.627   1.945   6.886
 1769TIP3    H238843   4.555   1.970   7.017
 1770TIP3   OH238844   5.125   1.979   7.078
 1770TIP3    H138845   5.108   1.990   6.985
 1770TIP3    H238846   5.077   1.896   7.098
 1771TIP3   OH238847   5.261   1.944   6.677
 1771TIP3    H138848   5.184   1.999   6.663
 1771TIP3    H238849   5.217   1.858   6.693
 1772TIP3   OH238850   3.979   3.553   6.637
 1772TIP3    H138851   4.012   3.519   6.552
 1772TIP3    H238852   3.969   3.647   6.622
 1773TIP3   OH238853   4.175   2.110   6.410
 1773TIP3    H138854   4.197   2.057   6.333
 1773TIP3    H238855   4.240   2.182   6.406
 1774TIP3   OH238856   4.677   2.172   6.603
 1774TIP3    H138857   4.718   2.122   6.677
 1774TIP3    H238858   4.699   2.264   6.626
 1775TIP3   OH238859   5.551   3.583   6.682
 1775TIP3    H138860   5.474   3.527   6.664
 1775TIP3    H238861   5.537   3.661   6.624
 1776TIP3   OH238862   4.071   2.037   7.865
 1776TIP3    H138863   4.018   1.955   7.879
 1776TIP3    H238864   4.147   2.018   7.925
 1777TIP3   OH238865   4.269   1.972   8.050
 1777TIP3    H138866   4.352   1.926   8.026
 1777TIP3    H238867   4.230   1.907   8.112
 1778TIP3   OH238868   5.125   1.896   8.097
 1778TIP3    H138869   5.137   1.854   8.184
 1778TIP3    H238870   5.212   1.878   8.056
 1779TIP3   OH238871   5.452   3.511   7.924
 1779TIP3    H138872   5.380   3.501   7.858
 1779TIP3    H238873   5.436   3.602   7.955
 1780TIP3   OH238874   6.911   2.899   6.910
 1780TIP3    H138875   6.902   2.994   6.932
 1780TIP3    H238876   6.838   2.887   6.847
 1781TIP3   OH238877   6.788   2.790   7.269
 1781TIP3    H138878   6.809   2.753   7.357
 1781TIP3    H238879   6.727   2.723   7.234
 1782TIP3   OH238880   6.000   2.777   7.399
 1782TIP3    H138881   5.990   2.697   7.455
 1782TIP3    H238882   6.074   2.821   7.443
 1783TIP3   OH238883   7.112   3.115   7.134
 1783TIP3    H138884   7.116   3.033   7.185
 1783TIP3    H238885   7.122   3.181   7.203
 1784TIP3   OH238886   6.112   3.250   7.234
 1784TIP3    H138887   6.077   3.159   7.229
 1784TIP3    H238888   6.206   3.226   7.224
 1785TIP3   OH238889   5.791   2.588   6.804
 1785TIP3    H138890   5.749   2.674   6.818
 1785TIP3    H238891   5.732   2.552   6.734
 1786TIP3   OH238892   5.833   2.818   7.058
 1786TIP3    H138893   5.877   2.731   7.076
 1786TIP3    H238894   5.895   2.862   6.999
 1787TIP3   OH238895   6.867   3.644   7.099
 1787TIP3    H138896   6.937   3.592   7.052
 1787TIP3    H238897   6.845   3.576   7.165
 1788TIP3   OH238898   6.598   3.084   7.350
 1788TIP3    H138899   6.629   3.045   7.267
 1788TIP3    H238900   6.681   3.085   7.400
 1789TIP3   OH238901   7.481   2.198   7.358
 1789TIP3    H138902   7.488   2.251   7.440
 1789TIP3    H238903   7.569   2.216   7.319
 1790TIP3   OH238904   6.981   2.513   7.361
 1790TIP3    H138905   7.004   2.419   7.376
 1790TIP3    H238906   6.929   2.508   7.279
 1791TIP3   OH238907   6.258   2.292   7.037
 1791TIP3    H138908   6.273   2.374   6.987
 1791TIP3    H238909   6.212   2.239   6.968
 1792TIP3   OH238910   7.018   2.298   6.931
 1792TIP3    H138911   7.076   2.280   7.009
 1792TIP3    H238912   7.066   2.370   6.887
 1793TIP3   OH238913   5.920   2.574   7.142
 1793TIP3    H138914   5.979   2.521   7.198
 1793TIP3    H238915   5.942   2.540   7.053
 1794TIP3   OH238916   6.406   2.712   7.083
 1794TIP3    H138917   6.484   2.667   7.121
 1794TIP3    H238918   6.377   2.643   7.020
 1795TIP3   OH238919   7.495   2.349   7.592
 1795TIP3    H138920   7.456   2.433   7.557
 1795TIP3    H238921   7.520   2.378   7.681
 1796TIP3   OH238922   6.173   2.208   7.473
 1796TIP3    H138923   6.133   2.251   7.395
 1796TIP3    H238924   6.112   2.239   7.542
 1797TIP3   OH238925   6.866   3.175   6.821
 1797TIP3    H138926   6.829   3.172   6.730
 1797TIP3    H238927   6.830   3.260   6.853
 1798TIP3   OH238928   6.370   2.968   7.442
 1798TIP3    H138929   6.310   3.040   7.470
 1798TIP3    H238930   6.445   3.020   7.406
 1799TIP3   OH238931   7.210   2.307   7.128
 1799TIP3    H138932   7.251   2.221   7.149
 1799TIP3    H238933   7.257   2.366   7.191
 1800TIP3   OH238934   6.104   2.394   7.256
 1800TIP3    H138935   6.164   2.454   7.306
 1800TIP3    H238936   6.163   2.360   7.186
 1801TIP3   OH238937   6.237   3.181   7.546
 1801TIP3    H138938   6.215   3.258   7.493
 1801TIP3    H238939   6.155   3.174   7.602
 1802TIP3   OH238940   7.212   3.299   7.347
 1802TIP3    H138941   7.120   3.328   7.365
 1802TIP3    H238942   7.236   3.373   7.287
 1803TIP3   OH238943   7.190   2.119   7.447
 1803TIP3    H138944   7.112   2.144   7.394
 1803TIP3    H238945   7.263   2.156   7.395
 1804TIP3   OH238946   6.502   1.940   7.211
 1804TIP3    H138947   6.475   1.847   7.212
 1804TIP3    H238948   6.417   1.984   7.237
 1805TIP3   OH238949   7.053   3.474   6.991
 1805TIP3    H138950   7.059   3.399   6.930
 1805TIP3    H238951   7.124   3.533   6.956
 1806TIP3   OH238952   7.180   3.243   6.813
 1806TIP3    H138953   7.143   3.186   6.745
 1806TIP3    H238954   7.149   3.199   6.895
 1807TIP3   OH238955   7.307   3.129   7.702
 1807TIP3    H138956   7.317   3.056   7.636
 1807TIP3    H238957   7.330   3.206   7.645
 1808TIP3   OH238958   6.786   2.833   6.670
 1808TIP3    H138959   6.696   2.869   6.658
 1808TIP3    H238960   6.835   2.901   6.621
 1809TIP3   OH238961   6.777   2.612   6.355
 1809TIP3    H138962   6.837   2.664   6.410
 1809TIP3    H238963   6.811   2.522   6.372
 1810TIP3   OH238964   7.513   2.781   7.492
 1810TIP3    H138965   7.445   2.849   7.482
 1810TIP3    H238966   7.582   2.814   7.430
 1811TIP3   OH238967   7.143   2.818   6.785
 1811TIP3    H138968   7.069   2.854   6.839
 1811TIP3    H238969   7.196   2.771   6.852
 1812TIP3   OH238970   7.107   2.690   7.677
 1812TIP3    H138971   7.112   2.782   7.706
 1812TIP3    H238972   7.034   2.699   7.612
 1813TIP3   OH238973   6.261   2.887   6.953
 1813TIP3    H138974   6.239   2.844   6.868
 1813TIP3    H238975   6.330   2.827   6.989
 1814TIP3   OH238976   6.405   3.231   7.216
 1814TIP3    H138977   6.423   3.218   7.122
 1814TIP3    H238978   6.481   3.187   7.260
 1815TIP3   OH238979   6.282   2.749   7.322
 1815TIP3    H138980   6.309   2.759   7.228
 1815TIP3    H238981   6.323   2.828   7.365
 1816TIP3   OH238982   6.959   3.353   7.390
 1816TIP3    H138983   6.902   3.408   7.446
 1816TIP3    H238984   6.940   3.263   7.424
 1817TIP3   OH238985   6.394   3.213   7.761
 1817TIP3    H138986   6.322   3.261   7.808
 1817TIP3    H238987   6.351   3.198   7.674
 1818TIP3   OH238988   7.061   2.752   6.540
 1818TIP3    H138989   7.086   2.767   6.634
 1818TIP3    H238990   7.079   2.842   6.509
 1819TIP3   OH238991   6.102   2.839   7.666
 1819TIP3    H138992   6.117   2.920   7.717
 1819TIP3    H238993   6.030   2.802   7.719
 1820TIP3   OH238994   6.739   3.461   6.884
 1820TIP3    H138995   6.785   3.526   6.939
 1820TIP3    H238996   6.703   3.519   6.815
 1821TIP3   OH238997   6.224   3.388   7.874
 1821TIP3    H138998   6.214   3.427   7.785
 1821TIP3    H238999   6.131   3.363   7.891
 1822TIP3   OH239000   6.188   2.773   6.689
 1822TIP3    H139001   6.150   2.860   6.658
 1822TIP3    H239002   6.117   2.713   6.663
 1823TIP3   OH239003   5.809   3.052   7.610
 1823TIP3    H139004   5.765   3.041   7.524
 1823TIP3    H239005   5.834   2.959   7.626
 1824TIP3   OH239006   5.762   3.322   7.268
 1824TIP3    H139007   5.852   3.298   7.239
 1824TIP3    H239008   5.782   3.389   7.335
 1825TIP3   OH239009   7.567   3.395   7.856
 1825TIP3    H139010   7.560   3.298   7.860
 1825TIP3    H239011   7.483   3.420   7.903
 1826TIP3   OH239012   6.648   3.328   7.758
 1826TIP3    H139013   6.668   3.400   7.822
 1826TIP3    H239014   6.554   3.305   7.777
 1827TIP3   OH239015   6.721   3.720   6.713
 1827TIP3    H139016   6.730   3.737   6.617
 1827TIP3    H239017   6.714   3.810   6.750
 1828TIP3   OH239018   6.083   3.609   6.916
 1828TIP3    H139019   6.115   3.568   7.000
 1828TIP3    H239020   6.003   3.555   6.900
 1829TIP3   OH239021   6.989   3.611   6.436
 1829TIP3    H139022   7.013   3.643   6.347
 1829TIP3    H239023   6.962   3.520   6.412
 1830TIP3   OH239024   6.979   3.637   6.754
 1830TIP3    H139025   6.885   3.659   6.741
 1830TIP3    H239026   6.982   3.546   6.722
 1831TIP3   OH239027   7.261   2.523   7.892
 1831TIP3    H139028   7.209   2.563   7.819
 1831TIP3    H239029   7.266   2.430   7.860
 1832TIP3   OH239030   6.026   3.183   7.706
 1832TIP3    H139031   6.027   3.141   7.794
 1832TIP3    H239032   5.938   3.156   7.672
 1833TIP3   OH239033   6.282   2.058   7.291
 1833TIP3    H139034   6.196   2.032   7.251
 1833TIP3    H239035   6.253   2.109   7.369
 1834TIP3   OH239036   6.775   2.002   7.608
 1834TIP3    H139037   6.816   1.958   7.686
 1834TIP3    H239038   6.680   2.001   7.635
 1835TIP3   OH239039   7.041   2.414   7.693
 1835TIP3    H139040   7.002   2.376   7.776
 1835TIP3    H239041   6.995   2.499   7.687
 1836TIP3   OH239042   6.285   2.503   7.419
 1836TIP3    H139043   6.212   2.517   7.483
 1836TIP3    H239044   6.290   2.595   7.381
 1837TIP3   OH239045   6.265   2.531   6.908
 1837TIP3    H139046   6.171   2.510   6.889
 1837TIP3    H239047   6.292   2.569   6.823
 1838TIP3   OH239048   6.818   2.587   6.774
 1838TIP3    H139049   6.810   2.681   6.745
 1838TIP3    H239050   6.882   2.549   6.709
 1839TIP3   OH239051   6.731   2.629   7.933
 1839TIP3    H139052   6.693   2.548   7.972
 1839TIP3    H239053   6.815   2.632   7.984
 1840TIP3   OH239054   6.905   2.555   7.085
 1840TIP3    H139055   6.912   2.637   7.033
 1840TIP3    H239056   6.913   2.488   7.014
 1841TIP3   OH239057   6.032   2.536   7.545
 1841TIP3    H139058   6.075   2.579   7.621
 1841TIP3    H239059   6.005   2.450   7.584
 1842TIP3   OH239060   5.741   2.251   7.019
 1842TIP3    H139061   5.812   2.249   7.085
 1842TIP3    H239062   5.783   2.272   6.934
 1843TIP3   OH239063   6.848   2.693   7.511
 1843TIP3    H139064   6.903   2.622   7.469
 1843TIP3    H239065   6.788   2.641   7.570
 1844TIP3   OH239066   6.562   2.286   7.017
 1844TIP3    H139067   6.467   2.284   7.037
 1844TIP3    H239068   6.602   2.255   7.098
 1845TIP3   OH239069   6.012   2.453   6.888
 1845TIP3    H139070   5.936   2.480   6.831
 1845TIP3    H239071   6.035   2.362   6.861
 1846TIP3   OH239072   6.354   2.459   6.640
 1846TIP3    H139073   6.447   2.451   6.671
 1846TIP3    H239074   6.365   2.509   6.558
 1847TIP3   OH239075   6.974   2.225   7.322
 1847TIP3    H139076   6.899   2.210   7.382
 1847TIP3    H239077   6.947   2.172   7.244
 1848TIP3   OH239078   7.270   3.776   7.989
 1848TIP3    H139079   7.302   3.811   7.904
 1848TIP3    H239080   7.349   3.793   8.045
 1849TIP3   OH239081   6.063   3.003   7.926
 1849TIP3    H139082   6.120   3.016   8.006
 1849TIP3    H239083   5.975   3.002   7.968
 1850TIP3   OH239084   6.610   2.567   7.171
 1850TIP3    H139085   6.699   2.537   7.145
 1850TIP3    H239086   6.575   2.488   7.216
 1851TIP3   OH239087   6.128   2.170   6.835
 1851TIP3    H139088   6.059   2.118   6.882
 1851TIP3    H239089   6.186   2.098   6.805
 1852TIP3   OH239090   6.523   2.378   7.429
 1852TIP3    H139091   6.443   2.432   7.412
 1852TIP3    H239092   6.578   2.440   7.479
 1853TIP3   OH239093   6.575   2.989   6.627
 1853TIP3    H139094   6.497   2.937   6.596
 1853TIP3    H239095   6.537   3.041   6.702
 1854TIP3   OH239096   7.325   2.975   7.489
 1854TIP3    H139097   7.372   3.024   7.416
 1854TIP3    H239098   7.237   2.969   7.449
 1855TIP3   OH239099   6.697   3.059   7.709
 1855TIP3    H139100   6.683   3.023   7.797
 1855TIP3    H239101   6.671   3.152   7.722
 1856TIP3   OH239102   6.993   2.494   6.592
 1856TIP3    H139103   7.070   2.483   6.652
 1856TIP3    H239104   7.012   2.582   6.553
 1857TIP3   OH239105   6.111   2.975   7.194
 1857TIP3    H139106   6.168   2.954   7.118
 1857TIP3    H239107   6.100   2.890   7.239
 1858TIP3   OH239108   6.771   3.161   6.564
 1858TIP3    H139109   6.733   3.249   6.542
 1858TIP3    H239110   6.695   3.101   6.574
 1859TIP3   OH239111   5.783   2.799   7.727
 1859TIP3    H139112   5.775   2.736   7.802
 1859TIP3    H239113   5.733   2.754   7.657
 1860TIP3   OH239114   6.483   2.758   7.896
 1860TIP3    H139115   6.456   2.692   7.833
 1860TIP3    H239116   6.578   2.737   7.905
 1861TIP3   OH239117   6.989   3.282   7.759
 1861TIP3    H139118   6.920   3.303   7.696
 1861TIP3    H239119   6.961   3.338   7.834
 1862TIP3   OH239120   7.458   2.559   6.623
 1862TIP3    H139121   7.464   2.567   6.527
 1862TIP3    H239122   7.499   2.642   6.657
 1863TIP3   OH239123   7.559   3.120   7.825
 1863TIP3    H139124   7.468   3.121   7.787
 1863TIP3    H239125   7.611   3.103   7.743
 1864TIP3   OH239126   7.417   3.357   6.568
 1864TIP3    H139127   7.380   3.302   6.640
 1864TIP3    H239128   7.338   3.388   6.522
 1865TIP3   OH239129   7.098   2.886   7.295
 1865TIP3    H139130   7.003   2.874   7.279
 1865TIP3    H239131   7.137   2.811   7.247
 1866TIP3   OH239132   6.313   3.313   6.919
 1866TIP3    H139133   6.344   3.399   6.881
 1866TIP3    H239134   6.218   3.323   6.907
 1867TIP3   OH239135   6.465   3.087   6.862
 1867TIP3    H139136   6.424   3.175   6.876
 1867TIP3    H239137   6.411   3.030   6.918
 1868TIP3   OH239138   6.517   3.505   7.566
 1868TIP3    H139139   6.582   3.571   7.537
 1868TIP3    H239140   6.569   3.461   7.637
 1869TIP3   OH239141   6.339   3.565   6.821
 1869TIP3    H139142   6.248   3.587   6.846
 1869TIP3    H239143   6.383   3.650   6.841
 1870TIP3   OH239144   6.839   3.086   7.476
 1870TIP3    H139145   6.802   3.065   7.566
 1870TIP3    H239146   6.868   3.000   7.444
 1871TIP3   OH239147   7.164   3.561   7.728
 1871TIP3    H139148   7.080   3.516   7.705
 1871TIP3    H239149   7.176   3.623   7.653
 1872TIP3   OH239150   5.986   2.295   7.677
 1872TIP3    H139151   5.913   2.334   7.729
 1872TIP3    H239152   5.966   2.201   7.692
 1873TIP3   OH239153   5.923   3.452   7.495
 1873TIP3    H139154   5.996   3.391   7.515
 1873TIP3    H239155   5.922   3.506   7.575
 1874TIP3   OH239156   6.075   2.984   6.557
 1874TIP3    H139157   6.005   3.046   6.581
 1874TIP3    H239158   6.111   3.024   6.476
 1875TIP3   OH239159   6.818   2.277   7.577
 1875TIP3    H139160   6.907   2.299   7.611
 1875TIP3    H239161   6.805   2.184   7.601
 1876TIP3   OH239162   6.901   2.187   6.720
 1876TIP3    H139163   6.903   2.268   6.665
 1876TIP3    H239164   6.960   2.214   6.795
 1877TIP3   OH239165   6.696   3.427   6.510
 1877TIP3    H139166   6.606   3.451   6.539
 1877TIP3    H239167   6.715   3.487   6.436
 1878TIP3   OH239168   6.613   2.405   6.735
 1878TIP3    H139169   6.687   2.468   6.750
 1878TIP3    H239170   6.598   2.367   6.823
 1879TIP3   OH239171   6.713   2.531   7.679
 1879TIP3    H139172   6.715   2.550   7.776
 1879TIP3    H239173   6.744   2.439   7.669
 1880TIP3   OH239174   6.723   2.053   6.885
 1880TIP3    H139175   6.666   2.132   6.894
 1880TIP3    H239176   6.802   2.094   6.842
 1881TIP3   OH239177   6.430   3.494   6.563
 1881TIP3    H139178   6.443   3.585   6.526
 1881TIP3    H239179   6.388   3.517   6.649
 1882TIP3   OH239180   6.295   2.237   6.507
 1882TIP3    H139181   6.295   2.304   6.579
 1882TIP3    H239182   6.363   2.176   6.542
 1883TIP3   OH239183   7.276   2.294   7.757
 1883TIP3    H139184   7.186   2.325   7.733
 1883TIP3    H239185   7.320   2.290   7.670
 1884TIP3   OH239186   7.180   2.627   7.148
 1884TIP3    H139187   7.107   2.571   7.179
 1884TIP3    H239188   7.253   2.598   7.206
 1885TIP3   OH239189   7.248   3.573   7.310
 1885TIP3    H139190   7.258   3.635   7.235
 1885TIP3    H239191   7.340   3.568   7.339
 1886TIP3   OH239192   6.026   1.988   7.222
 1886TIP3    H139193   6.023   1.978   7.125
 1886TIP3    H239194   5.990   1.901   7.250
 1887TIP3   OH239195   5.907   3.413   6.842
 1887TIP3    H139196   5.815   3.437   6.857
 1887TIP3    H239197   5.922   3.432   6.748
 1888TIP3   OH239198   5.813   3.682   7.954
 1888TIP3    H139199   5.880   3.666   8.026
 1888TIP3    H239200   5.781   3.591   7.944
 1889TIP3   OH239201   6.317   3.507   8.132
 1889TIP3    H139202   6.410   3.477   8.127
 1889TIP3    H239203   6.279   3.459   8.057
 1890TIP3   OH239204   6.927   3.413   7.985
 1890TIP3    H139205   6.906   3.323   8.020
 1890TIP3    H239206   7.017   3.423   8.025
 1891TIP3   OH239207   5.809   3.026   8.038
 1891TIP3    H139208   5.765   2.939   8.044
 1891TIP3    H239209   5.768   3.064   7.957
 1892TIP3   OH239210   6.477   3.022   7.937
 1892TIP3    H139211   6.451   3.082   7.864
 1892TIP3    H239212   6.473   2.932   7.897
 1893TIP3   OH239213   7.062   3.015   7.742
 1893TIP3    H139214   7.149   3.062   7.740
 1893TIP3    H239215   7.008   3.095   7.759
 1894TIP3   OH239216   5.944   2.730   7.997
 1894TIP3    H139217   6.030   2.687   8.000
 1894TIP3    H239218   5.953   2.794   8.071
 1895TIP3   OH239219   6.385   2.846   6.499
 1895TIP3    H139220   6.325   2.802   6.563
 1895TIP3    H239221   6.404   2.776   6.434
 1896TIP3   OH239222   6.273   2.640   7.663
 1896TIP3    H139223   6.216   2.719   7.669
 1896TIP3    H239224   6.350   2.679   7.618
 1897TIP3   OH239225   6.517   2.694   6.286
 1897TIP3    H139226   6.487   2.606   6.261
 1897TIP3    H239227   6.608   2.675   6.316
 1898TIP3   OH239228   6.839   2.927   8.063
 1898TIP3    H139229   6.900   2.882   8.002
 1898TIP3    H239230   6.813   2.856   8.124
 1899TIP3   OH239231   6.400   2.432   7.795
 1899TIP3    H139232   6.412   2.359   7.730
 1899TIP3    H239233   6.374   2.507   7.737
 1900TIP3   OH239234   6.406   2.218   7.605
 1900TIP3    H139235   6.445   2.258   7.524
 1900TIP3    H239236   6.312   2.213   7.577
 1901TIP3   OH239237   6.522   2.799   7.595
 1901TIP3    H139238   6.608   2.826   7.561
 1901TIP3    H239239   6.465   2.870   7.559
 1902TIP3   OH239240   6.934   2.567   8.114
 1902TIP3    H139241   6.945   2.481   8.162
 1902TIP3    H239242   7.026   2.592   8.098
 1903TIP3   OH239243   7.121   2.868   7.961
 1903TIP3    H139244   7.084   2.910   7.880
 1903TIP3    H239245   7.210   2.845   7.930
 1904TIP3   OH239246   6.213   2.488   8.008
 1904TIP3    H139247   6.137   2.434   7.975
 1904TIP3    H239248   6.271   2.489   7.930
 1905TIP3   OH239249   6.496   1.970   7.620
 1905TIP3    H139250   6.464   2.063   7.625
 1905TIP3    H239251   6.419   1.928   7.579
 1906TIP3   OH239252   6.604   2.390   8.024
 1906TIP3    H139253   6.535   2.377   8.092
 1906TIP3    H239254   6.548   2.383   7.944
 1907TIP3   OH239255   6.885   2.339   7.903
 1907TIP3    H139256   6.792   2.332   7.926
 1907TIP3    H239257   6.920   2.280   7.974
 1908TIP3   OH239258   6.973   2.163   8.078
 1908TIP3    H139259   7.022   2.081   8.095
 1908TIP3    H239260   6.987   2.217   8.159
 1909TIP3   OH239261   6.009   2.315   8.004
 1909TIP3    H139262   6.002   2.229   7.960
 1909TIP3    H239263   6.001   2.288   8.099
 1910TIP3   OH239264   6.468   1.904   7.890
 1910TIP3    H139265   6.526   1.825   7.898
 1910TIP3    H239266   6.476   1.919   7.793
 1911TIP3   OH239267   6.463   2.017   8.155
 1911TIP3    H139268   6.463   1.971   8.068
 1911TIP3    H239269   6.464   2.109   8.124
 1912TIP3   OH239270   6.461   3.744   6.459
 1912TIP3    H139271   6.556   3.762   6.444
 1912TIP3    H239272   6.433   3.722   6.369
 1913TIP3   OH239273   5.703   3.731   6.867
 1913TIP3    H139274   5.641   3.669   6.824
 1913TIP3    H239275   5.740   3.675   6.939
 1914TIP3   OH239276   5.787   3.565   7.062
 1914TIP3    H139277   5.722   3.532   7.126
 1914TIP3    H239278   5.862   3.583   7.123
 1915TIP3   OH239279   7.539   3.647   7.322
 1915TIP3    H139280   7.564   3.648   7.416
 1915TIP3    H239281   7.618   3.686   7.283
 1916TIP3   OH239282   7.497   3.585   7.637
 1916TIP3    H139283   7.463   3.505   7.591
 1916TIP3    H239284   7.520   3.547   7.723
 1917TIP3   OH239285   7.371   3.165   8.122
 1917TIP3    H139286   7.280   3.174   8.159
 1917TIP3    H239287   7.409   3.251   8.152
 1918TIP3   OH239288   7.453   3.001   6.657
 1918TIP3    H139289   7.540   3.045   6.665
 1918TIP3    H239290   7.450   2.946   6.739
 1919TIP3   OH239291   7.503   2.819   6.857
 1919TIP3    H139292   7.429   2.755   6.874
 1919TIP3    H239293   7.536   2.833   6.948
 1920TIP3   OH239294   7.477   3.087   7.304
 1920TIP3    H139295   7.553   3.024   7.297
 1920TIP3    H239296   7.514   3.172   7.274
 1921TIP3   OH239297   7.362   3.369   7.557
 1921TIP3    H139298   7.284   3.403   7.604
 1921TIP3    H239299   7.321   3.335   7.474
 1922TIP3   OH239300   7.369   2.521   6.306
 1922TIP3    H139301   7.450   2.556   6.266
 1922TIP3    H239302   7.395   2.432   6.330
 1923TIP3   OH239303   7.316   2.636   6.911
 1923TIP3    H139304   7.284   2.552   6.871
 1923TIP3    H239305   7.274   2.635   6.999
 1924TIP3   OH239306   5.787   2.896   7.319
 1924TIP3    H139307   5.789   2.867   7.224
 1924TIP3    H239308   5.876   2.864   7.346
 1925TIP3   OH239309   7.403   2.857   7.874
 1925TIP3    H139310   7.442   2.766   7.873
 1925TIP3    H239311   7.477   2.908   7.836
 1926TIP3   OH239312   7.507   2.597   7.909
 1926TIP3    H139313   7.416   2.560   7.905
 1926TIP3    H239314   7.565   2.517   7.919
 1927TIP3   OH239315   7.226   2.431   6.737
 1927TIP3    H139316   7.260   2.342   6.761
 1927TIP3    H239317   7.308   2.471   6.700
 1928TIP3   OH239318   7.349   2.476   7.293
 1928TIP3    H139319   7.448   2.487   7.294
 1928TIP3    H239320   7.331   2.487   7.388
 1929TIP3   OH239321   7.347   2.561   7.551
 1929TIP3    H139322   7.260   2.586   7.586
 1929TIP3    H239323   7.389   2.648   7.532
 1930TIP3   OH239324   5.786   2.392   7.893
 1930TIP3    H139325   5.867   2.373   7.945
 1930TIP3    H239326   5.735   2.308   7.907
 1931TIP3   OH239327   7.554   1.987   8.070
 1931TIP3    H139328   7.603   1.916   8.023
 1931TIP3    H239329   7.552   2.057   8.001
 1932TIP3   OH239330   7.320   2.180   6.773
 1932TIP3    H139331   7.367   2.134   6.847
 1932TIP3    H239332   7.283   2.104   6.727
 1933TIP3   OH239333   5.884   2.225   7.259
 1933TIP3    H139334   5.928   2.137   7.254
 1933TIP3    H239335   5.959   2.287   7.250
 1934TIP3   OH239336   5.721   2.536   7.315
 1934TIP3    H139337   5.786   2.501   7.251
 1934TIP3    H239338   5.758   2.626   7.326
 1935TIP3   OH239339   7.490   2.198   7.924
 1935TIP3    H139340   7.422   2.220   7.990
 1935TIP3    H239341   7.435   2.170   7.848
 1936TIP3   OH239342   5.738   2.205   6.731
 1936TIP3    H139343   5.641   2.206   6.736
 1936TIP3    H239344   5.750   2.193   6.636
 1937TIP3   OH239345   7.225   3.667   6.927
 1937TIP3    H139346   7.298   3.642   6.867
 1937TIP3    H239347   7.267   3.711   7.003
 1938TIP3   OH239348   5.746   2.017   7.554
 1938TIP3    H139349   5.677   1.979   7.611
 1938TIP3    H239350   5.700   2.086   7.504
 1939TIP3   OH239351   5.962   3.329   7.950
 1939TIP3    H139352   5.879   3.370   7.922
 1939TIP3    H239353   5.938   3.292   8.036
 1940TIP3   OH239354   6.242   3.474   7.612
 1940TIP3    H139355   6.248   3.567   7.580
 1940TIP3    H239356   6.338   3.453   7.609
 1941TIP3   OH239357   6.668   3.588   7.864
 1941TIP3    H139358   6.675   3.586   7.961
 1941TIP3    H239359   6.758   3.617   7.839
 1942TIP3   OH239360   6.886   3.765   7.821
 1942TIP3    H139361   6.969   3.723   7.793
 1942TIP3    H239362   6.912   3.808   7.905
 1943TIP3   OH239363   7.398   1.950   7.723
 1943TIP3    H139364   7.319   1.989   7.683
 1943TIP3    H239365   7.400   1.860   7.687
 1944TIP3   OH239366   5.991   3.787   7.571
 1944TIP3    H139367   5.911   3.817   7.524
 1944TIP3    H239368   5.976   3.824   7.659
 1945TIP3   OH239369   6.242   3.732   7.480
 1945TIP3    H139370   6.150   3.752   7.509
 1945TIP3    H239371   6.253   3.795   7.405
 1946TIP3   OH239372   6.697   3.689   7.438
 1946TIP3    H139373   6.635   3.729   7.375
 1946TIP3    H239374   6.728   3.769   7.486
 1947TIP3   OH239375   6.909   3.567   7.558
 1947TIP3    H139376   6.841   3.611   7.502
 1947TIP3    H239377   6.986   3.621   7.533
 1948TIP3   OH239378   7.163   3.732   7.521
 1948TIP3    H139379   7.174   3.822   7.482
 1948TIP3    H239380   7.192   3.680   7.444
 1949TIP3   OH239381   5.950   3.616   7.280
 1949TIP3    H139382   5.931   3.553   7.354
 1949TIP3    H239383   6.041   3.589   7.255
 1950TIP3   OH239384   6.177   3.514   7.161
 1950TIP3    H139385   6.170   3.419   7.185
 1950TIP3    H239386   6.267   3.533   7.196
 1951TIP3   OH239387   6.415   3.526   7.275
 1951TIP3    H139388   6.437   3.431   7.271
 1951TIP3    H239389   6.422   3.543   7.370
 1952TIP3   OH239390   6.785   2.095   7.153
 1952TIP3    H139391   6.701   2.090   7.200
 1952TIP3    H239392   6.763   2.047   7.072
 1953TIP3   OH239393   7.275   1.900   7.138
 1953TIP3    H139394   7.334   1.966   7.093
 1953TIP3    H239395   7.185   1.934   7.114
 1954TIP3   OH239396   7.434   2.052   6.979
 1954TIP3    H139397   7.496   1.986   6.938
 1954TIP3    H239398   7.497   2.124   7.002
 1955TIP3   OH239399   5.980   1.985   6.951
 1955TIP3    H139400   5.886   1.973   6.926
 1955TIP3    H239401   6.015   1.894   6.933
 1956TIP3   OH239402   6.417   1.931   6.917
 1956TIP3    H139403   6.458   1.986   6.849
 1956TIP3    H239404   6.469   1.951   6.996
 1957TIP3   OH239405   7.020   1.964   7.058
 1957TIP3    H139406   6.964   1.993   6.985
 1957TIP3    H239407   6.963   1.894   7.098
 1958TIP3   OH239408   7.209   1.931   6.659
 1958TIP3    H139409   7.151   2.005   6.679
 1958TIP3    H239410   7.142   1.859   6.667
 1959TIP3   OH239411   5.861   3.561   6.575
 1959TIP3    H139412   5.776   3.561   6.622
 1959TIP3    H239413   5.867   3.657   6.554
 1960TIP3   OH239414   6.520   2.131   6.643
 1960TIP3    H139415   6.605   2.093   6.668
 1960TIP3    H239416   6.552   2.220   6.616
 1961TIP3   OH239417   6.740   3.728   6.400
 1961TIP3    H139418   6.836   3.706   6.409
 1961TIP3    H239419   6.726   3.704   6.306
 1962TIP3   OH239420   7.403   3.583   6.731
 1962TIP3    H139421   7.404   3.519   6.658
 1962TIP3    H239422   7.383   3.667   6.681
 1963TIP3   OH239423   5.954   2.037   7.869
 1963TIP3    H139424   5.904   1.954   7.886
 1963TIP3    H239425   6.035   2.024   7.925
 1964TIP3   OH239426   6.154   1.984   8.058
 1964TIP3    H139427   6.231   1.930   8.033
 1964TIP3    H239428   6.105   1.921   8.114
 1965TIP3   OH239429   6.029   3.689   6.324
 1965TIP3    H139430   5.991   3.616   6.374
 1965TIP3    H239431   6.108   3.649   6.282
 1966TIP3   OH239432   7.016   1.891   8.106
 1966TIP3    H139433   7.031   1.846   8.191
 1966TIP3    H239434   7.107   1.889   8.067
 1967TIP3   OH239435   7.337   3.514   7.928
 1967TIP3    H139436   7.261   3.503   7.866
 1967TIP3    H239437   7.323   3.607   7.956
 1968TIP3   OH239438   8.806   2.906   6.918
 1968TIP3    H139439   8.805   3.003   6.934
 1968TIP3    H239440   8.720   2.895   6.874
 1969TIP3   OH239441   8.656   2.779   7.250
 1969TIP3    H139442   8.676   2.745   7.339
 1969TIP3    H239443   8.592   2.714   7.216
 1970TIP3   OH239444   7.885   2.773   7.402
 1970TIP3    H139445   7.881   2.699   7.464
 1970TIP3    H239446   7.969   2.812   7.428
 1971TIP3   OH239447   9.037   3.133   7.113
 1971TIP3    H139448   9.085   3.061   7.156
 1971TIP3    H239449   9.032   3.202   7.182
 1972TIP3   OH239450   7.986   3.252   7.229
 1972TIP3    H139451   7.955   3.160   7.219
 1972TIP3    H239452   8.081   3.233   7.224
 1973TIP3   OH239453   7.675   2.575   6.812
 1973TIP3    H139454   7.644   2.665   6.833
 1973TIP3    H239455   7.597   2.524   6.837
 1974TIP3   OH239456   7.715   2.814   7.061
 1974TIP3    H139457   7.757   2.725   7.068
 1974TIP3    H239458   7.770   2.860   6.996
 1975TIP3   OH239459   8.742   3.659   7.111
 1975TIP3    H139460   8.806   3.593   7.073
 1975TIP3    H239461   8.705   3.607   7.183
 1976TIP3   OH239462   8.490   3.042   7.347
 1976TIP3    H139463   8.520   2.987   7.274
 1976TIP3    H239464   8.576   3.078   7.379
 1977TIP3   OH239465   9.359   2.259   7.398
 1977TIP3    H139466   9.381   2.355   7.398
 1977TIP3    H239467   9.436   2.226   7.348
 1978TIP3   OH239468   8.823   2.510   7.366
 1978TIP3    H139469   8.850   2.418   7.386
 1978TIP3    H239470   8.807   2.506   7.272
 1979TIP3   OH239471   8.159   2.279   7.039
 1979TIP3    H139472   8.159   2.366   6.995
 1979TIP3    H239473   8.100   2.229   6.979
 1980TIP3   OH239474   8.902   2.345   6.917
 1980TIP3    H139475   8.954   2.310   6.992
 1980TIP3    H239476   8.969   2.397   6.870
 1981TIP3   OH239477   7.791   2.559   7.125
 1981TIP3    H139478   7.860   2.530   7.187
 1981TIP3    H239479   7.823   2.516   7.043
 1982TIP3   OH239480   8.282   2.704   7.098
 1982TIP3    H139481   8.363   2.660   7.132
 1982TIP3    H239482   8.240   2.628   7.052
 1983TIP3   OH239483   8.033   2.197   7.463
 1983TIP3    H139484   7.991   2.248   7.391
 1983TIP3    H239485   7.977   2.223   7.539
 1984TIP3   OH239486   8.739   3.165   6.827
 1984TIP3    H139487   8.753   3.166   6.731
 1984TIP3    H239488   8.720   3.258   6.846
 1985TIP3   OH239489   8.255   2.975   7.446
 1985TIP3    H139490   8.197   3.052   7.467
 1985TIP3    H239491   8.336   3.019   7.411
 1986TIP3   OH239492   9.073   2.311   7.129
 1986TIP3    H139493   9.086   2.219   7.155
 1986TIP3    H239494   9.102   2.359   7.210
 1987TIP3   OH239495   7.998   2.393   7.266
 1987TIP3    H139496   8.055   2.460   7.309
 1987TIP3    H239497   8.054   2.365   7.190
 1988TIP3   OH239498   8.123   3.183   7.547
 1988TIP3    H139499   8.108   3.271   7.507
 1988TIP3    H239500   8.041   3.173   7.601
 1989TIP3   OH239501   7.703   3.117   6.667
 1989TIP3    H139502   7.688   3.166   6.584
 1989TIP3    H239503   7.732   3.186   6.728
 1990TIP3   OH239504   9.062   3.325   7.296
 1990TIP3    H139505   8.967   3.338   7.317
 1990TIP3    H239506   9.091   3.418   7.290
 1991TIP3   OH239507   9.131   2.111   7.448
 1991TIP3    H139508   9.057   2.135   7.389
 1991TIP3    H239509   9.201   2.174   7.421
 1992TIP3   OH239510   8.393   1.943   7.201
 1992TIP3    H139511   8.365   1.850   7.209
 1992TIP3    H239512   8.310   1.987   7.235
 1993TIP3   OH239513   8.903   3.472   7.006
 1993TIP3    H139514   8.931   3.387   6.966
 1993TIP3    H239515   8.973   3.531   6.971
 1994TIP3   OH239516   9.039   3.257   6.845
 1994TIP3    H139517   9.040   3.180   6.783
 1994TIP3    H239518   9.063   3.214   6.930
 1995TIP3   OH239519   9.164   3.126   7.708
 1995TIP3    H139520   9.165   3.065   7.630
 1995TIP3    H239521   9.201   3.206   7.667
 1996TIP3   OH239522   8.620   2.815   6.653
 1996TIP3    H139523   8.557   2.888   6.647
 1996TIP3    H239524   8.701   2.854   6.615
 1997TIP3   OH239525   9.357   2.761   7.458
 1997TIP3    H139526   9.293   2.834   7.471
 1997TIP3    H239527   9.418   2.805   7.394
 1998TIP3   OH239528   8.986   2.812   6.751
 1998TIP3    H139529   8.925   2.850   6.818
 1998TIP3    H239530   9.052   2.769   6.811
 1999TIP3   OH239531   8.976   2.650   7.666
 1999TIP3    H139532   8.972   2.731   7.720
 1999TIP3    H239533   8.912   2.677   7.599
 2000TIP3   OH239534   8.148   2.879   6.947
 2000TIP3    H139535   8.114   2.834   6.866
 2000TIP3    H239536   8.210   2.812   6.983
 2001TIP3   OH239537   8.303   3.244   7.231
 2001TIP3    H139538   8.306   3.224   7.135
 2001TIP3    H239539   8.359   3.174   7.269
 2002TIP3   OH239540   8.157   2.766   7.329
 2002TIP3    H139541   8.193   2.768   7.238
 2002TIP3    H239542   8.205   2.841   7.371
 2003TIP3   OH239543   8.815   3.341   7.394
 2003TIP3    H139544   8.781   3.396   7.466
 2003TIP3    H239545   8.804   3.251   7.433
 2004TIP3   OH239546   8.288   3.219   7.761
 2004TIP3    H139547   8.217   3.269   7.807
 2004TIP3    H239548   8.243   3.200   7.676
 2005TIP3   OH239549   8.866   2.800   6.520
 2005TIP3    H139550   8.904   2.793   6.612
 2005TIP3    H239551   8.933   2.850   6.475
 2006TIP3   OH239552   7.992   2.840   7.664
 2006TIP3    H139553   8.002   2.923   7.714
 2006TIP3    H239554   7.920   2.802   7.717
 2007TIP3   OH239555   8.675   3.494   6.831
 2007TIP3    H139556   8.704   3.485   6.923
 2007TIP3    H239557   8.592   3.543   6.840
 2008TIP3   OH239558   8.103   3.392   7.873
 2008TIP3    H139559   8.094   3.432   7.784
 2008TIP3    H239560   8.009   3.366   7.889
 2009TIP3   OH239561   9.273   1.904   6.521
 2009TIP3    H139562   9.178   1.922   6.536
 2009TIP3    H239563   9.293   1.970   6.451
 2010TIP3   OH239564   8.003   2.777   6.743
 2010TIP3    H139565   7.985   2.862   6.698
 2010TIP3    H239566   7.975   2.710   6.679
 2011TIP3   OH239567   0.018   3.404   6.364
 2011TIP3    H139568   0.065   3.486   6.345
 2011TIP3    H239569   0.089   3.336   6.362
 2012TIP3   OH239570   7.689   3.051   7.608
 2012TIP3    H139571   7.645   3.040   7.522
 2012TIP3    H239572   7.724   2.961   7.619
 2013TIP3   OH239573   7.664   3.319   7.268
 2013TIP3    H139574   7.753   3.289   7.246
 2013TIP3    H239575   7.684   3.381   7.339
 2014TIP3   OH239576   8.540   3.338   7.777
 2014TIP3    H139577   8.542   3.411   7.841
 2014TIP3    H239578   8.448   3.303   7.780
 2015TIP3   OH239579   8.542   3.714   6.691
 2015TIP3    H139580   8.577   3.724   6.600
 2015TIP3    H239581   8.582   3.791   6.736
 2016TIP3   OH239582   7.970   3.590   6.919
 2016TIP3    H139583   8.003   3.572   7.010
 2016TIP3    H239584   7.883   3.547   6.922
 2017TIP3   OH239585   8.855   3.629   6.695
 2017TIP3    H139586   8.769   3.604   6.736
 2017TIP3    H239587   8.909   3.555   6.727
 2018TIP3   OH239588   9.153   2.553   7.888
 2018TIP3    H139589   9.125   2.565   7.796
 2018TIP3    H239590   9.200   2.469   7.882
 2019TIP3   OH239591   7.910   3.181   7.705
 2019TIP3    H139592   7.913   3.141   7.794
 2019TIP3    H239593   7.822   3.153   7.672
 2020TIP3   OH239594   8.171   2.047   7.291
 2020TIP3    H139595   8.086   2.069   7.247
 2020TIP3    H239596   8.154   2.092   7.376
 2021TIP3   OH239597   8.655   1.992   7.622
 2021TIP3    H139598   8.695   1.946   7.699
 2021TIP3    H239599   8.561   1.992   7.646
 2022TIP3   OH239600   8.962   2.361   7.685
 2022TIP3    H139601   8.900   2.347   7.760
 2022TIP3    H239602   8.971   2.459   7.686
 2023TIP3   OH239603   8.604   2.276   6.390
 2023TIP3    H139604   8.558   2.226   6.460
 2023TIP3    H239605   8.540   2.276   6.318
 2024TIP3   OH239606   8.183   2.524   7.430
 2024TIP3    H139607   8.104   2.515   7.486
 2024TIP3    H239608   8.169   2.616   7.396
 2025TIP3   OH239609   8.160   2.522   6.928
 2025TIP3    H139610   8.071   2.556   6.907
 2025TIP3    H239611   8.190   2.488   6.841
 2026TIP3   OH239612   8.710   2.586   6.780
 2026TIP3    H139613   8.681   2.669   6.737
 2026TIP3    H239614   8.786   2.558   6.725
 2027TIP3   OH239615   8.605   2.622   7.915
 2027TIP3    H139616   8.569   2.536   7.947
 2027TIP3    H239617   8.689   2.624   7.964
 2028TIP3   OH239618   8.808   2.580   7.076
 2028TIP3    H139619   8.787   2.662   7.025
 2028TIP3    H239620   8.817   2.516   7.002
 2029TIP3   OH239621   7.927   2.530   7.547
 2029TIP3    H139622   7.957   2.566   7.631
 2029TIP3    H239623   7.890   2.444   7.577
 2030TIP3   OH239624   7.619   2.246   6.994
 2030TIP3    H139625   7.693   2.244   7.056
 2030TIP3    H239626   7.661   2.228   6.907
 2031TIP3   OH239627   7.644   2.345   6.532
 2031TIP3    H139628   7.709   2.385   6.472
 2031TIP3    H239629   7.611   2.421   6.581
 2032TIP3   OH239630   8.757   2.733   7.499
 2032TIP3    H139631   8.794   2.653   7.453
 2032TIP3    H239632   8.696   2.689   7.561
 2033TIP3   OH239633   8.459   2.277   6.969
 2033TIP3    H139634   8.367   2.257   6.995
 2033TIP3    H239635   8.512   2.256   7.049
 2034TIP3   OH239636   7.893   2.444   6.911
 2034TIP3    H139637   7.830   2.476   6.842
 2034TIP3    H239638   7.923   2.357   6.876
 2035TIP3   OH239639   8.221   2.459   6.649
 2035TIP3    H139640   8.317   2.468   6.668
 2035TIP3    H239641   8.205   2.531   6.586
 2036TIP3   OH239642   8.904   2.174   7.309
 2036TIP3    H139643   8.825   2.185   7.364
 2036TIP3    H239644   8.870   2.120   7.234
 2037TIP3   OH239645   8.127   2.564   6.405
 2037TIP3    H139646   8.073   2.495   6.445
 2037TIP3    H239647   8.141   2.528   6.316
 2038TIP3   OH239648   9.148   3.763   7.992
 2038TIP3    H139649   9.177   3.803   7.907
 2038TIP3    H239650   9.214   3.801   8.053
 2039TIP3   OH239651   7.947   3.002   7.928
 2039TIP3    H139652   8.009   3.032   7.998
 2039TIP3    H239653   7.861   3.005   7.977
 2040TIP3   OH239654   8.507   2.560   7.168
 2040TIP3    H139655   8.591   2.531   7.132
 2040TIP3    H239656   8.472   2.482   7.213
 2041TIP3   OH239657   7.978   2.194   6.855
 2041TIP3    H139658   7.946   2.106   6.885
 2041TIP3    H239659   8.028   2.171   6.775
 2042TIP3   OH239660   8.412   2.377   7.444
 2042TIP3    H139661   8.340   2.443   7.438
 2042TIP3    H239662   8.483   2.428   7.487
 2043TIP3   OH239663   8.441   3.025   6.620
 2043TIP3    H139664   8.371   2.958   6.622
 2043TIP3    H239665   8.419   3.071   6.705
 2044TIP3   OH239666   9.182   2.973   7.499
 2044TIP3    H139667   9.227   3.034   7.436
 2044TIP3    H239668   9.112   2.932   7.444
 2045TIP3   OH239669   8.869   2.311   6.448
 2045TIP3    H139670   8.775   2.307   6.419
 2045TIP3    H239671   8.873   2.402   6.485
 2046TIP3   OH239672   8.591   3.075   7.730
 2046TIP3    H139673   8.560   3.041   7.815
 2046TIP3    H239674   8.577   3.171   7.742
 2047TIP3   OH239675   8.914   2.532   6.594
 2047TIP3    H139676   8.999   2.511   6.638
 2047TIP3    H239677   8.931   2.617   6.550
 2048TIP3   OH239678   7.987   2.976   7.176
 2048TIP3    H139679   8.027   2.956   7.090
 2048TIP3    H239680   8.002   2.896   7.227
 2049TIP3   OH239681   8.681   3.144   6.564
 2049TIP3    H139682   8.648   3.234   6.580
 2049TIP3    H239683   8.601   3.095   6.592
 2050TIP3   OH239684   7.664   2.795   7.731
 2050TIP3    H139685   7.656   2.728   7.802
 2050TIP3    H239686   7.618   2.751   7.657
 2051TIP3   OH239687   8.375   2.762   7.892
 2051TIP3    H139688   8.333   2.704   7.826
 2051TIP3    H239689   8.466   2.723   7.896
 2052TIP3   OH239690   8.870   3.287   7.742
 2052TIP3    H139691   8.781   3.307   7.711
 2052TIP3    H239692   8.864   3.317   7.834
 2053TIP3   OH239693   9.249   3.395   6.613
 2053TIP3    H139694   9.190   3.320   6.626
 2053TIP3    H239695   9.287   3.382   6.524
 2054TIP3   OH239696   9.001   2.857   7.350
 2054TIP3    H139697   8.906   2.848   7.366
 2054TIP3    H239698   9.011   2.808   7.266
 2055TIP3   OH239699   8.194   3.305   6.955
 2055TIP3    H139700   8.236   3.393   6.950
 2055TIP3    H239701   8.124   3.317   6.888
 2056TIP3   OH239702   7.833   2.812   6.424
 2056TIP3    H139703   7.884   2.875   6.479
 2056TIP3    H239704   7.779   2.871   6.371
 2057TIP3   OH239705   8.344   3.096   6.864
 2057TIP3    H139706   8.289   3.172   6.894
 2057TIP3    H239707   8.308   3.024   6.918
 2058TIP3   OH239708   8.399   3.507   7.580
 2058TIP3    H139709   8.462   3.570   7.544
 2058TIP3    H239710   8.456   3.458   7.642
 2059TIP3   OH239711   8.225   3.551   6.829
 2059TIP3    H139712   8.130   3.565   6.849
 2059TIP3    H239713   8.257   3.643   6.827
 2060TIP3   OH239714   8.720   3.088   7.482
 2060TIP3    H139715   8.686   3.068   7.573
 2060TIP3    H239716   8.756   3.002   7.454
 2061TIP3   OH239717   8.997   3.556   7.736
 2061TIP3    H139718   8.930   3.497   7.694
 2061TIP3    H239719   9.038   3.604   7.660
 2062TIP3   OH239720   7.871   2.297   7.677
 2062TIP3    H139721   7.800   2.336   7.733
 2062TIP3    H239722   7.867   2.205   7.708
 2063TIP3   OH239723   9.074   3.051   6.675
 2063TIP3    H139724   9.031   2.965   6.698
 2063TIP3    H239725   9.146   3.021   6.618
 2064TIP3   OH239726   7.807   3.455   7.491
 2064TIP3    H139727   7.876   3.391   7.517
 2064TIP3    H239728   7.800   3.509   7.571
 2065TIP3   OH239729   8.248   3.263   6.500
 2065TIP3    H139730   8.329   3.223   6.536
 2065TIP3    H239731   8.269   3.357   6.509
 2066TIP3   OH239732   7.953   2.996   6.582
 2066TIP3    H139733   7.868   3.035   6.610
 2066TIP3    H239734   7.993   3.072   6.535
 2067TIP3   OH239735   8.722   2.259   7.592
 2067TIP3    H139736   8.815   2.269   7.620
 2067TIP3    H239737   8.708   2.163   7.603
 2068TIP3   OH239738   8.776   2.236   6.703
 2068TIP3    H139739   8.829   2.263   6.626
 2068TIP3    H239740   8.815   2.293   6.773
 2069TIP3   OH239741   8.531   3.400   6.560
 2069TIP3    H139742   8.517   3.476   6.620
 2069TIP3    H239743   8.601   3.434   6.503
 2070TIP3   OH239744   8.482   2.434   6.727
 2070TIP3    H139745   8.564   2.485   6.748
 2070TIP3    H239746   8.475   2.377   6.807
 2071TIP3   OH239747   8.604   2.524   7.652
 2071TIP3    H139748   8.609   2.553   7.746
 2071TIP3    H239749   8.647   2.436   7.653
 2072TIP3   OH239750   8.581   2.085   6.819
 2072TIP3    H139751   8.537   2.149   6.879
 2072TIP3    H239752   8.659   2.138   6.789
 2073TIP3   OH239753   8.144   2.194   6.583
 2073TIP3    H139754   8.153   2.290   6.576
 2073TIP3    H239755   8.238   2.167   6.579
 2074TIP3   OH239756   9.210   2.263   7.747
 2074TIP3    H139757   9.118   2.277   7.717
 2074TIP3    H239758   9.258   2.278   7.666
 2075TIP3   OH239759   9.053   2.678   7.143
 2075TIP3    H139760   8.963   2.641   7.130
 2075TIP3    H239761   9.095   2.610   7.199
 2076TIP3   OH239762   7.982   3.210   6.400
 2076TIP3    H139763   8.073   3.235   6.425
 2076TIP3    H239764   7.987   3.225   6.304
 2077TIP3   OH239765   7.711   2.560   6.356
 2077TIP3    H139766   7.740   2.648   6.390
 2077TIP3    H239767   7.793   2.523   6.322
 2078TIP3   OH239768   9.195   3.570   7.318
 2078TIP3    H139769   9.169   3.633   7.247
 2078TIP3    H239770   9.287   3.594   7.332
 2079TIP3   OH239771   7.909   1.999   7.221
 2079TIP3    H139772   7.909   1.980   7.125
 2079TIP3    H239773   7.883   1.911   7.257
 2080TIP3   OH239774   7.765   3.376   6.838
 2080TIP3    H139775   7.686   3.430   6.840
 2080TIP3    H239776   7.806   3.411   6.757
 2081TIP3   OH239777   7.702   3.687   7.958
 2081TIP3    H139778   7.772   3.677   8.027
 2081TIP3    H239779   7.672   3.595   7.953
 2082TIP3   OH239780   8.201   3.513   8.145
 2082TIP3    H139781   8.293   3.481   8.142
 2082TIP3    H239782   8.163   3.464   8.071
 2083TIP3   OH239783   8.807   3.415   7.990
 2083TIP3    H139784   8.792   3.330   8.037
 2083TIP3    H239785   8.899   3.433   8.020
 2084TIP3   OH239786   7.690   3.019   8.040
 2084TIP3    H139787   7.654   2.929   8.036
 2084TIP3    H239788   7.646   3.062   7.962
 2085TIP3   OH239789   8.356   3.023   7.940
 2085TIP3    H139790   8.329   3.081   7.865
 2085TIP3    H239791   8.366   2.933   7.899
 2086TIP3   OH239792   8.926   3.014   7.760
 2086TIP3    H139793   9.013   3.058   7.757
 2086TIP3    H239794   8.870   3.094   7.752
 2087TIP3   OH239795   7.829   2.729   7.999
 2087TIP3    H139796   7.911   2.680   8.010
 2087TIP3    H239797   7.841   2.798   8.067
 2088TIP3   OH239798   8.189   2.652   7.680
 2088TIP3    H139799   8.133   2.732   7.670
 2088TIP3    H239800   8.263   2.680   7.622
 2089TIP3   OH239801   8.709   2.916   8.069
 2089TIP3    H139802   8.775   2.887   8.004
 2089TIP3    H239803   8.691   2.834   8.118
 2090TIP3   OH239804   8.291   2.433   7.787
 2090TIP3    H139805   8.294   2.362   7.720
 2090TIP3    H239806   8.269   2.512   7.733
 2091TIP3   OH239807   8.270   2.208   7.593
 2091TIP3    H139808   8.316   2.259   7.523
 2091TIP3    H239809   8.176   2.217   7.566
 2092TIP3   OH239810   8.400   2.791   7.573
 2092TIP3    H139811   8.485   2.835   7.556
 2092TIP3    H239812   8.339   2.859   7.539
 2093TIP3   OH239813   8.884   2.532   8.097
 2093TIP3    H139814   8.867   2.438   8.109
 2093TIP3    H239815   8.962   2.531   8.039
 2094TIP3   OH239816   9.016   2.854   7.951
 2094TIP3    H139817   8.981   2.910   7.879
 2094TIP3    H239818   9.111   2.846   7.925
 2095TIP3   OH239819   8.102   2.500   8.022
 2095TIP3    H139820   8.028   2.448   7.984
 2095TIP3    H239821   8.163   2.510   7.947
 2096TIP3   OH239822   8.377   1.962   7.599
 2096TIP3    H139823   8.347   2.056   7.606
 2096TIP3    H239824   8.299   1.922   7.561
 2097TIP3   OH239825   8.487   2.387   8.009
 2097TIP3    H139826   8.423   2.375   8.082
 2097TIP3    H239827   8.428   2.375   7.932
 2098TIP3   OH239828   8.771   2.310   7.890
 2098TIP3    H139829   8.682   2.282   7.918
 2098TIP3    H239830   8.829   2.250   7.941
 2099TIP3   OH239831   8.932   2.168   8.059
 2099TIP3    H139832   8.914   2.072   8.071
 2099TIP3    H239833   8.897   2.206   8.143
 2100TIP3   OH239834   7.896   2.311   7.997
 2100TIP3    H139835   7.890   2.226   7.950
 2100TIP3    H239836   7.882   2.281   8.090
 2101TIP3   OH239837   8.331   1.902   7.865
 2101TIP3    H139838   8.411   1.845   7.874
 2101TIP3    H239839   8.339   1.919   7.768
 2102TIP3   OH239840   8.354   2.020   8.157
 2102TIP3    H139841   8.340   1.979   8.069
 2102TIP3    H239842   8.329   2.113   8.138
 2103TIP3   OH239843   7.707   3.184   6.377
 2103TIP3    H139844   7.802   3.190   6.397
 2103TIP3    H239845   7.716   3.173   6.280
 2104TIP3   OH239846   7.581   3.736   6.873
 2104TIP3    H139847   7.510   3.675   6.841
 2104TIP3    H239848   7.620   3.681   6.944
 2105TIP3   OH239849   7.667   3.567   7.061
 2105TIP3    H139850   7.611   3.493   7.087
 2105TIP3    H239851   7.708   3.592   7.147
 2106TIP3   OH239852   9.383   3.586   7.657
 2106TIP3    H139853   9.323   3.535   7.601
 2106TIP3    H239854   9.389   3.527   7.734
 2107TIP3   OH239855   9.236   3.162   8.118
 2107TIP3    H139856   9.156   3.185   8.171
 2107TIP3    H239857   9.281   3.250   8.117
 2108TIP3   OH239858   9.367   2.919   6.692
 2108TIP3    H139859   9.416   3.001   6.669
 2108TIP3    H239860   9.319   2.945   6.772
 2109TIP3   OH239861   0.016   3.107   7.355
 2109TIP3    H139862   0.074   3.033   7.324
 2109TIP3    H239863   0.057   3.185   7.311
 2110TIP3   OH239864   9.227   3.373   7.560
 2110TIP3    H139865   9.137   3.402   7.582
 2110TIP3    H239866   9.218   3.350   7.466
 2111TIP3   OH239867   9.148   2.660   6.890
 2111TIP3    H139868   9.140   2.564   6.882
 2111TIP3    H239869   9.131   2.674   6.986
 2112TIP3   OH239870   7.675   2.896   7.315
 2112TIP3    H139871   7.672   2.864   7.221
 2112TIP3    H239872   7.765   2.865   7.339
 2113TIP3   OH239873   9.280   2.861   7.895
 2113TIP3    H139874   9.299   2.770   7.866
 2113TIP3    H239875   9.306   2.915   7.819
 2114TIP3   OH239876   9.111   2.416   6.753
 2114TIP3    H139877   9.112   2.317   6.747
 2114TIP3    H239878   9.205   2.433   6.752
 2115TIP3   OH239879   9.186   2.497   7.294
 2115TIP3    H139880   9.284   2.497   7.289
 2115TIP3    H239881   9.177   2.500   7.391
 2116TIP3   OH239882   9.221   2.561   7.572
 2116TIP3    H139883   9.140   2.611   7.593
 2116TIP3    H239884   9.283   2.631   7.541
 2117TIP3   OH239885   7.669   2.391   7.898
 2117TIP3    H139886   7.750   2.373   7.951
 2117TIP3    H239887   7.614   2.311   7.914
 2118TIP3   OH239888   9.167   2.155   6.757
 2118TIP3    H139889   9.200   2.134   6.847
 2118TIP3    H239890   9.133   2.067   6.728
 2119TIP3   OH239891   7.763   2.222   7.268
 2119TIP3    H139892   7.810   2.138   7.252
 2119TIP3    H239893   7.833   2.288   7.258
 2120TIP3   OH239894   7.610   2.532   7.318
 2120TIP3    H139895   7.669   2.500   7.246
 2120TIP3    H239896   7.648   2.619   7.334
 2121TIP3   OH239897   7.620   2.154   6.718
 2121TIP3    H139898   7.528   2.183   6.726
 2121TIP3    H239899   7.645   2.206   6.639
 2122TIP3   OH239900   9.094   3.643   6.924
 2122TIP3    H139901   9.146   3.676   6.847
 2122TIP3    H239902   9.137   3.689   6.999
 2123TIP3   OH239903   7.631   2.010   7.544
 2123TIP3    H139904   7.558   1.976   7.601
 2123TIP3    H239905   7.592   2.088   7.501
 2124TIP3   OH239906   7.843   3.335   7.945
 2124TIP3    H139907   7.756   3.370   7.919
 2124TIP3    H239908   7.825   3.299   8.032
 2125TIP3   OH239909   8.133   3.472   7.607
 2125TIP3    H139910   8.128   3.568   7.585
 2125TIP3    H239911   8.231   3.462   7.609
 2126TIP3   OH239912   8.568   3.640   7.862
 2126TIP3    H139913   8.568   3.622   7.956
 2126TIP3    H239914   8.663   3.654   7.843
 2127TIP3   OH239915   8.800   3.772   7.811
 2127TIP3    H139916   8.874   3.713   7.789
 2127TIP3    H239917   8.826   3.809   7.898
 2128TIP3   OH239918   9.238   1.962   7.759
 2128TIP3    H139919   9.183   2.027   7.711
 2128TIP3    H239920   9.259   1.898   7.689
 2129TIP3   OH239921   7.870   3.788   7.581
 2129TIP3    H139922   7.793   3.821   7.530
 2129TIP3    H239923   7.853   3.828   7.668
 2130TIP3   OH239924   8.111   3.735   7.483
 2130TIP3    H139925   8.020   3.754   7.516
 2130TIP3    H239926   8.116   3.793   7.406
 2131TIP3   OH239927   8.604   3.696   7.392
 2131TIP3    H139928   8.541   3.739   7.333
 2131TIP3    H239929   8.621   3.768   7.456
 2132TIP3   OH239930   8.785   3.561   7.559
 2132TIP3    H139931   8.720   3.597   7.494
 2132TIP3    H239932   8.858   3.624   7.544
 2133TIP3   OH239933   9.083   3.702   7.521
 2133TIP3    H139934   9.074   3.792   7.482
 2133TIP3    H239935   9.128   3.658   7.446
 2134TIP3   OH239936   7.836   3.620   7.279
 2134TIP3    H139937   7.819   3.556   7.353
 2134TIP3    H239938   7.927   3.593   7.253
 2135TIP3   OH239939   8.062   3.531   7.166
 2135TIP3    H139940   8.045   3.437   7.185
 2135TIP3    H239941   8.155   3.538   7.199
 2136TIP3   OH239942   8.304   3.517   7.292
 2136TIP3    H139943   8.329   3.423   7.281
 2136TIP3    H239944   8.298   3.524   7.388
 2137TIP3   OH239945   8.625   2.108   7.130
 2137TIP3    H139946   8.548   2.085   7.184
 2137TIP3    H239947   8.656   2.021   7.102
 2138TIP3   OH239948   9.149   1.909   7.168
 2138TIP3    H139949   9.195   1.972   7.107
 2138TIP3    H239950   9.055   1.937   7.155
 2139TIP3   OH239951   9.273   2.053   6.983
 2139TIP3    H139952   9.336   1.999   6.931
 2139TIP3    H239953   9.333   2.127   7.011
 2140TIP3   OH239954   7.890   1.954   6.934
 2140TIP3    H139955   7.804   1.945   6.890
 2140TIP3    H239956   7.924   1.862   6.926
 2141TIP3   OH239957   8.309   1.930   6.924
 2141TIP3    H139958   8.387   1.976   6.890
 2141TIP3    H239959   8.325   1.935   7.019
 2142TIP3   OH239960   8.894   1.980   7.094
 2142TIP3    H139961   8.897   1.995   6.999
 2142TIP3    H239962   8.841   1.897   7.099
 2143TIP3   OH239963   9.031   1.947   6.653
 2143TIP3    H139964   8.961   2.013   6.656
 2143TIP3    H239965   8.983   1.865   6.681
 2144TIP3   OH239966   7.733   3.552   6.622
 2144TIP3    H139967   7.636   3.546   6.626
 2144TIP3    H239968   7.745   3.641   6.581
 2145TIP3   OH239969   7.904   2.234   6.386
 2145TIP3    H139970   7.932   2.221   6.294
 2145TIP3    H239971   7.961   2.170   6.430
 2146TIP3   OH239972   8.444   2.179   6.598
 2146TIP3    H139973   8.498   2.144   6.672
 2146TIP3    H239974   8.451   2.275   6.614
 2147TIP3   OH239975   8.640   3.712   6.431
 2147TIP3    H139976   8.712   3.774   6.403
 2147TIP3    H239977   8.645   3.651   6.357
 2148TIP3   OH239978   9.239   3.660   6.690
 2148TIP3    H139979   9.247   3.567   6.656
 2148TIP3    H239980   9.161   3.697   6.643
 2149TIP3   OH239981   7.844   2.036   7.864
 2149TIP3    H139982   7.791   1.954   7.875
 2149TIP3    H239983   7.921   2.019   7.923
 2150TIP3   OH239984   8.042   1.976   8.054
 2150TIP3    H139985   8.126   1.933   8.032
 2150TIP3    H239986   7.998   1.904   8.105
 2151TIP3   OH239987   8.891   1.900   8.081
 2151TIP3    H139988   8.904   1.860   8.170
 2151TIP3    H239989   8.981   1.878   8.044
 2152TIP3   OH239990   9.201   3.507   7.915
 2152TIP3    H139991   9.116   3.492   7.869
 2152TIP3    H239992   9.193   3.604   7.932
 2153TIP3   OH239993   1.265   4.799   6.900
 2153TIP3    H139994   1.272   4.889   6.938
 2153TIP3    H239995   1.174   4.801   6.870
 2154TIP3   OH239996   1.135   4.663   7.250
 2154TIP3    H139997   1.144   4.622   7.340
 2154TIP3    H239998   1.060   4.613   7.212
 2155TIP3   OH239999   0.400   4.675   7.384
 2155TIP3    H140000   0.382   4.602   7.445
 2155TIP3    H240001   0.449   4.735   7.445
 2156TIP3   OH240002   1.460   4.982   7.118
 2156TIP3    H140003   1.467   4.912   7.185
 2156TIP3    H240004   1.478   5.061   7.170
 2157TIP3   OH240005   0.429   5.117   7.206
 2157TIP3    H140006   0.417   5.021   7.183
 2157TIP3    H240007   0.526   5.116   7.217
 2158TIP3   OH240008   0.139   4.476   6.822
 2158TIP3    H140009   0.138   4.572   6.824
 2158TIP3    H240010   0.060   4.457   6.874
 2159TIP3   OH240011   0.181   4.679   7.044
 2159TIP3    H140012   0.230   4.598   7.071
 2159TIP3    H240013   0.252   4.740   7.017
 2160TIP3   OH240014   1.198   5.513   7.128
 2160TIP3    H140015   1.276   5.470   7.088
 2160TIP3    H240016   1.159   5.436   7.169
 2161TIP3   OH240017   0.955   4.909   7.358
 2161TIP3    H140018   0.998   4.869   7.281
 2161TIP3    H240019   1.032   4.948   7.403
 2162TIP3   OH240020   1.818   4.090   7.350
 2162TIP3    H140021   1.834   4.137   7.434
 2162TIP3    H240022   1.899   4.111   7.302
 2163TIP3   OH240023   1.334   4.400   7.346
 2163TIP3    H140024   1.332   4.307   7.375
 2163TIP3    H240025   1.342   4.386   7.250
 2164TIP3   OH240026   0.595   4.179   7.054
 2164TIP3    H140027   0.616   4.254   6.994
 2164TIP3    H240028   0.562   4.114   6.988
 2165TIP3   OH240029   1.349   4.202   6.920
 2165TIP3    H140030   1.402   4.170   6.997
 2165TIP3    H240031   1.409   4.270   6.884
 2166TIP3   OH240032   0.291   4.449   7.138
 2166TIP3    H140033   0.357   4.406   7.196
 2166TIP3    H240034   0.311   4.406   7.052
 2167TIP3   OH240035   0.734   4.598   7.051
 2167TIP3    H140036   0.819   4.556   7.072
 2167TIP3    H240037   0.692   4.527   6.998
 2168TIP3   OH240038   1.834   4.227   7.592
 2168TIP3    H140039   1.803   4.308   7.547
 2168TIP3    H240040   1.856   4.265   7.678
 2169TIP3   OH240041   0.501   4.093   7.476
 2169TIP3    H140042   0.465   4.145   7.402
 2169TIP3    H240043   0.435   4.115   7.546
 2170TIP3   OH240044   1.187   5.065   6.809
 2170TIP3    H140045   1.119   5.026   6.752
 2170TIP3    H240046   1.169   5.161   6.803
 2171TIP3   OH240047   0.711   4.856   7.450
 2171TIP3    H140048   0.657   4.935   7.472
 2171TIP3    H240049   0.793   4.898   7.415
 2172TIP3   OH240050   1.543   4.146   7.101
 2172TIP3    H140051   1.573   4.085   7.168
 2172TIP3    H240052   1.628   4.180   7.068
 2173TIP3   OH240053   0.457   4.281   7.276
 2173TIP3    H140054   0.522   4.334   7.328
 2173TIP3    H240055   0.513   4.248   7.201
 2174TIP3   OH240056   0.585   5.079   7.538
 2174TIP3    H140057   0.586   5.168   7.499
 2174TIP3    H240058   0.494   5.075   7.575
 2175TIP3   OH240059   0.174   5.041   6.625
 2175TIP3    H140060   0.124   5.102   6.567
 2175TIP3    H240061   0.193   5.097   6.704
 2176TIP3   OH240062   1.543   5.189   7.335
 2176TIP3    H140063   1.449   5.216   7.346
 2176TIP3    H240064   1.573   5.267   7.285
 2177TIP3   OH240065   1.546   4.020   7.439
 2177TIP3    H140066   1.467   4.051   7.391
 2177TIP3    H240067   1.620   4.059   7.390
 2178TIP3   OH240068   0.829   3.829   7.201
 2178TIP3    H140069   0.801   3.738   7.217
 2178TIP3    H240070   0.749   3.878   7.234
 2179TIP3   OH240071   1.396   5.359   6.990
 2179TIP3    H140072   1.408   5.290   6.924
 2179TIP3    H240073   1.470   5.420   6.967
 2180TIP3   OH240074   1.506   5.147   6.810
 2180TIP3    H140075   1.501   5.072   6.746
 2180TIP3    H240076   1.482   5.100   6.892
 2181TIP3   OH240077   1.645   5.009   7.697
 2181TIP3    H140078   1.649   4.936   7.631
 2181TIP3    H240079   1.669   5.086   7.641
 2182TIP3   OH240080   1.137   4.692   6.642
 2182TIP3    H140081   1.046   4.728   6.638
 2182TIP3    H240082   1.188   4.774   6.646
 2183TIP3   OH240083   1.851   4.670   7.497
 2183TIP3    H140084   1.778   4.733   7.483
 2183TIP3    H240085   1.911   4.699   7.425
 2184TIP3   OH240086   1.505   4.742   6.785
 2184TIP3    H140087   1.423   4.760   6.834
 2184TIP3    H240088   1.549   4.679   6.846
 2185TIP3   OH240089   1.439   4.551   7.696
 2185TIP3    H140090   1.446   4.646   7.714
 2185TIP3    H240091   1.377   4.555   7.621
 2186TIP3   OH240092   0.633   4.820   6.938
 2186TIP3    H140093   0.585   4.789   6.857
 2186TIP3    H240094   0.677   4.737   6.967
 2187TIP3   OH240095   0.753   5.123   7.217
 2187TIP3    H140096   0.777   5.114   7.124
 2187TIP3    H240097   0.830   5.087   7.263
 2188TIP3   OH240098   0.670   4.632   7.306
 2188TIP3    H140099   0.688   4.647   7.212
 2188TIP3    H240100   0.700   4.716   7.349
 2189TIP3   OH240101   1.279   5.232   7.382
 2189TIP3    H140102   1.248   5.287   7.456
 2189TIP3    H240103   1.270   5.142   7.420
 2190TIP3   OH240104   0.720   5.096   7.772
 2190TIP3    H140105   0.651   5.144   7.823
 2190TIP3    H240106   0.673   5.080   7.686
 2191TIP3   OH240107   0.439   4.729   7.690
 2191TIP3    H140108   0.440   4.795   7.761
 2191TIP3    H240109   0.355   4.686   7.711
 2192TIP3   OH240110   1.108   5.375   6.822
 2192TIP3    H140111   1.095   5.382   6.917
 2192TIP3    H240112   1.051   5.448   6.790
 2193TIP3   OH240113   0.554   5.288   7.882
 2193TIP3    H140114   0.536   5.312   7.789
 2193TIP3    H240115   0.462   5.270   7.912
 2194TIP3   OH240116   1.722   3.830   6.556
 2194TIP3    H140117   1.629   3.823   6.585
 2194TIP3    H240118   1.715   3.911   6.505
 2195TIP3   OH240119   0.516   4.707   6.713
 2195TIP3    H140120   0.474   4.764   6.645
 2195TIP3    H240121   0.505   4.618   6.676
 2196TIP3   OH240122   0.148   4.929   7.643
 2196TIP3    H140123   0.106   4.930   7.556
 2196TIP3    H240124   0.132   4.837   7.673
 2197TIP3   OH240125   0.147   5.210   7.230
 2197TIP3    H140126   0.238   5.173   7.221
 2197TIP3    H240127   0.158   5.265   7.310
 2198TIP3   OH240128   1.907   5.274   7.839
 2198TIP3    H140129   1.895   5.178   7.838
 2198TIP3    H240130   1.826   5.300   7.889
 2199TIP3   OH240131   0.971   5.217   7.768
 2199TIP3    H140132   0.997   5.288   7.831
 2199TIP3    H240133   0.877   5.200   7.789
 2200TIP3   OH240134   1.026   5.627   6.699
 2200TIP3    H140135   1.044   5.643   6.605
 2200TIP3    H240136   1.061   5.708   6.741
 2201TIP3   OH240137   0.424   5.489   6.917
 2201TIP3    H140138   0.432   5.452   7.007
 2201TIP3    H240139   0.341   5.450   6.885
 2202TIP3   OH240140   1.329   5.512   6.432
 2202TIP3    H140141   1.401   5.448   6.441
 2202TIP3    H240142   1.320   5.542   6.525
 2203TIP3   OH240143   1.294   5.524   6.693
 2203TIP3    H140144   1.202   5.495   6.707
 2203TIP3    H240145   1.340   5.441   6.714
 2204TIP3   OH240146   1.619   4.403   7.894
 2204TIP3    H140147   1.561   4.444   7.827
 2204TIP3    H240148   1.621   4.309   7.865
 2205TIP3   OH240149   0.361   5.088   7.688
 2205TIP3    H140150   0.381   5.035   7.768
 2205TIP3    H240151   0.284   5.036   7.655
 2206TIP3   OH240152   0.620   3.947   7.297
 2206TIP3    H140153   0.531   3.926   7.260
 2206TIP3    H240154   0.595   3.993   7.379
 2207TIP3   OH240155   1.102   3.875   7.608
 2207TIP3    H140156   1.138   3.836   7.689
 2207TIP3    H240157   1.006   3.878   7.629
 2208TIP3   OH240158   1.381   4.282   7.708
 2208TIP3    H140159   1.322   4.250   7.781
 2208TIP3    H240160   1.390   4.376   7.732
 2209TIP3   OH240161   1.047   4.227   6.403
 2209TIP3    H140162   1.025   4.147   6.453
 2209TIP3    H240163   1.037   4.200   6.310
 2210TIP3   OH240164   0.623   4.410   7.435
 2210TIP3    H140165   0.560   4.442   7.502
 2210TIP3    H240166   0.638   4.493   7.383
 2211TIP3   OH240167   0.620   4.397   6.899
 2211TIP3    H140168   0.524   4.378   6.891
 2211TIP3    H240169   0.654   4.373   6.809
 2212TIP3   OH240170   1.195   4.466   6.758
 2212TIP3    H140171   1.180   4.558   6.727
 2212TIP3    H240172   1.261   4.435   6.695
 2213TIP3   OH240173   1.082   4.521   7.923
 2213TIP3    H140174   1.037   4.440   7.955
 2213TIP3    H240175   1.163   4.516   7.978
 2214TIP3   OH240176   1.316   4.436   7.073
 2214TIP3    H140177   1.284   4.521   7.037
 2214TIP3    H240178   1.287   4.375   7.003
 2215TIP3   OH240179   0.361   4.422   7.555
 2215TIP3    H140180   0.401   4.432   7.643
 2215TIP3    H240181   0.336   4.327   7.554
 2216TIP3   OH240182   0.106   4.126   6.999
 2216TIP3    H140183   0.187   4.127   7.050
 2216TIP3    H240184   0.134   4.135   6.906
 2217TIP3   OH240185   0.177   4.249   6.528
 2217TIP3    H140186   0.262   4.225   6.487
 2217TIP3    H240187   0.124   4.253   6.448
 2218TIP3   OH240188   1.196   4.572   7.503
 2218TIP3    H140189   1.247   4.503   7.453
 2218TIP3    H240190   1.141   4.518   7.564
 2219TIP3   OH240191   0.931   4.162   6.990
 2219TIP3    H140192   0.844   4.167   7.034
 2219TIP3    H240193   0.985   4.119   7.060
 2220TIP3   OH240194   0.356   4.316   6.905
 2220TIP3    H140195   0.289   4.352   6.842
 2220TIP3    H240196   0.369   4.225   6.871
 2221TIP3   OH240197   0.702   4.347   6.651
 2221TIP3    H140198   0.796   4.371   6.666
 2221TIP3    H240199   0.669   4.416   6.589
 2222TIP3   OH240200   1.313   4.096   7.326
 2222TIP3    H140201   1.233   4.075   7.379
 2222TIP3    H240202   1.301   4.041   7.245
 2223TIP3   OH240203   0.604   4.487   6.453
 2223TIP3    H140204   0.522   4.467   6.405
 2223TIP3    H240205   0.670   4.496   6.382
 2224TIP3   OH240206   1.614   5.666   7.987
 2224TIP3    H140207   1.642   5.705   7.902
 2224TIP3    H240208   1.695   5.684   8.039
 2225TIP3   OH240209   0.414   4.928   7.903
 2225TIP3    H140210   0.475   4.919   7.979
 2225TIP3    H240211   0.327   4.924   7.949
 2226TIP3   OH240212   0.963   4.442   7.154
 2226TIP3    H140213   1.055   4.411   7.150
 2226TIP3    H240214   0.920   4.374   7.209
 2227TIP3   OH240215   0.463   4.049   6.847
 2227TIP3    H140216   0.413   3.974   6.886
 2227TIP3    H240217   0.512   4.004   6.776
 2228TIP3   OH240218   0.852   4.273   7.425
 2228TIP3    H140219   0.773   4.332   7.423
 2228TIP3    H240220   0.917   4.321   7.476
 2229TIP3   OH240221   0.965   4.905   6.660
 2229TIP3    H140222   0.900   4.903   6.587
 2229TIP3    H240223   0.913   4.950   6.730
 2230TIP3   OH240224   1.662   4.859   7.481
 2230TIP3    H140225   1.711   4.919   7.419
 2230TIP3    H240226   1.577   4.852   7.435
 2231TIP3   OH240227   1.302   4.250   6.495
 2231TIP3    H140228   1.212   4.249   6.455
 2231TIP3    H240229   1.350   4.194   6.432
 2232TIP3   OH240230   1.029   4.957   7.723
 2232TIP3    H140231   1.010   4.927   7.813
 2232TIP3    H240232   0.997   5.049   7.729
 2233TIP3   OH240233   0.438   4.863   7.137
 2233TIP3    H140234   0.495   4.853   7.058
 2233TIP3    H240235   0.468   4.792   7.197
 2234TIP3   OH240236   0.146   4.677   7.722
 2234TIP3    H140237   0.168   4.617   7.796
 2234TIP3    H240238   0.115   4.616   7.654
 2235TIP3   OH240239   0.801   4.655   7.890
 2235TIP3    H140240   0.777   4.602   7.812
 2235TIP3    H240241   0.898   4.650   7.884
 2236TIP3   OH240242   1.323   5.169   7.755
 2236TIP3    H140243   1.240   5.169   7.705
 2236TIP3    H240244   1.297   5.225   7.830
 2237TIP3   OH240245   1.808   4.430   6.633
 2237TIP3    H140246   1.823   4.377   6.554
 2237TIP3    H240247   1.808   4.520   6.592
 2238TIP3   OH240248   1.892   4.998   7.825
 2238TIP3    H140249   1.799   5.001   7.793
 2238TIP3    H240250   1.941   4.983   7.742
 2239TIP3   OH240251   1.702   5.237   6.607
 2239TIP3    H140252   1.648   5.242   6.688
 2239TIP3    H240253   1.687   5.145   6.581
 2240TIP3   OH240254   1.423   4.780   7.309
 2240TIP3    H140255   1.332   4.759   7.282
 2240TIP3    H240256   1.471   4.705   7.269
 2241TIP3   OH240257   0.656   5.219   6.938
 2241TIP3    H140258   0.679   5.311   6.914
 2241TIP3    H240259   0.562   5.217   6.914
 2242TIP3   OH240260   0.823   5.003   6.878
 2242TIP3    H140261   0.766   5.083   6.881
 2242TIP3    H240262   0.761   4.932   6.906
 2243TIP3   OH240263   0.859   5.382   7.552
 2243TIP3    H140264   0.927   5.445   7.521
 2243TIP3    H240265   0.910   5.336   7.621
 2244TIP3   OH240266   0.691   5.477   6.841
 2244TIP3    H140267   0.596   5.493   6.858
 2244TIP3    H240268   0.730   5.559   6.879
 2245TIP3   OH240269   1.190   4.979   7.481
 2245TIP3    H140270   1.149   4.952   7.566
 2245TIP3    H240271   1.258   4.911   7.467
 2246TIP3   OH240272   1.461   5.122   6.405
 2246TIP3    H140273   1.463   5.065   6.485
 2246TIP3    H240274   1.366   5.131   6.389
 2247TIP3   OH240275   1.507   5.447   7.723
 2247TIP3    H140276   1.420   5.407   7.704
 2247TIP3    H240277   1.516   5.508   7.646
 2248TIP3   OH240278   0.311   4.148   7.657
 2248TIP3    H140279   0.299   4.168   7.751
 2248TIP3    H240280   0.281   4.055   7.655
 2249TIP3   OH240281   1.535   4.954   6.624
 2249TIP3    H140282   1.513   4.874   6.678
 2249TIP3    H240283   1.631   4.936   6.610
 2250TIP3   OH240284   0.263   5.334   7.477
 2250TIP3    H140285   0.347   5.294   7.505
 2250TIP3    H240286   0.227   5.368   7.560
 2251TIP3   OH240287   0.412   4.888   6.535
 2251TIP3    H140288   0.343   4.927   6.591
 2251TIP3    H240289   0.459   4.968   6.502
 2252TIP3   OH240290   1.173   4.146   7.577
 2252TIP3    H140291   1.264   4.164   7.607
 2252TIP3    H240292   1.152   4.059   7.617
 2253TIP3   OH240293   1.239   4.086   6.708
 2253TIP3    H140294   1.262   4.157   6.645
 2253TIP3    H240295   1.288   4.117   6.788
 2254TIP3   OH240296   0.965   4.309   6.729
 2254TIP3    H140297   1.044   4.364   6.747
 2254TIP3    H240298   0.947   4.265   6.815
 2255TIP3   OH240299   1.064   4.407   7.671
 2255TIP3    H140300   1.064   4.438   7.764
 2255TIP3    H240301   1.096   4.315   7.673
 2256TIP3   OH240302   1.043   3.949   6.840
 2256TIP3    H140303   1.008   4.017   6.902
 2256TIP3    H240304   1.120   3.999   6.802
 2257TIP3   OH240305   0.701   5.441   6.560
 2257TIP3    H140306   0.749   5.513   6.515
 2257TIP3    H240307   0.712   5.464   6.654
 2258TIP3   OH240308   0.614   4.080   6.551
 2258TIP3    H140309   0.604   4.173   6.580
 2258TIP3    H240310   0.709   4.065   6.568
 2259TIP3   OH240311   1.629   4.156   7.763
 2259TIP3    H140312   1.535   4.171   7.742
 2259TIP3    H240313   1.675   4.169   7.678
 2260TIP3   OH240314   1.551   4.561   7.167
 2260TIP3    H140315   1.473   4.505   7.149
 2260TIP3    H240316   1.609   4.499   7.217
 2261TIP3   OH240317   0.506   5.138   6.464
 2261TIP3    H140318   0.471   5.227   6.481
 2261TIP3    H240319   0.590   5.142   6.513
 2262TIP3   OH240320   1.600   5.463   7.311
 2262TIP3    H140321   1.609   5.525   7.235
 2262TIP3    H240322   1.694   5.450   7.330
 2263TIP3   OH240323   0.375   3.879   7.222
 2263TIP3    H140324   0.362   3.852   7.128
 2263TIP3    H240325   0.332   3.801   7.265
 2264TIP3   OH240326   0.259   5.256   6.774
 2264TIP3    H140327   0.184   5.309   6.804
 2264TIP3    H240328   0.280   5.311   6.695
 2265TIP3   OH240329   0.178   5.591   7.988
 2265TIP3    H140330   0.230   5.569   8.069
 2265TIP3    H240331   0.156   5.502   7.956
 2266TIP3   OH240332   0.682   5.419   8.125
 2266TIP3    H140333   0.774   5.390   8.111
 2266TIP3    H240334   0.640   5.381   8.046
 2267TIP3   OH240335   1.267   5.297   7.984
 2267TIP3    H140336   1.246   5.206   8.017
 2267TIP3    H240337   1.358   5.303   8.020
 2268TIP3   OH240338   0.160   4.946   8.011
 2268TIP3    H140339   0.136   4.867   8.063
 2268TIP3    H240340   0.072   4.981   7.987
 2269TIP3   OH240341   0.819   4.913   7.943
 2269TIP3    H140342   0.793   4.975   7.871
 2269TIP3    H240343   0.795   4.824   7.909
 2270TIP3   OH240344   1.403   4.893   7.739
 2270TIP3    H140345   1.487   4.944   7.739
 2270TIP3    H240346   1.343   4.969   7.757
 2271TIP3   OH240347   0.290   4.605   7.970
 2271TIP3    H140348   0.309   4.526   8.025
 2271TIP3    H240349   0.298   4.676   8.035
 2272TIP3   OH240350   0.769   4.786   6.483
 2272TIP3    H140351   0.683   4.776   6.526
 2272TIP3    H240352   0.778   4.700   6.438
 2273TIP3   OH240353   0.623   4.531   7.680
 2273TIP3    H140354   0.569   4.610   7.699
 2273TIP3    H240355   0.696   4.572   7.628
 2274TIP3   OH240356   0.821   4.544   6.296
 2274TIP3    H140357   0.851   4.583   6.213
 2274TIP3    H240358   0.886   4.474   6.311
 2275TIP3   OH240359   1.174   4.808   8.055
 2275TIP3    H140360   1.230   4.759   7.993
 2275TIP3    H240361   1.138   4.738   8.112
 2276TIP3   OH240362   0.755   4.309   7.796
 2276TIP3    H140363   0.760   4.243   7.724
 2276TIP3    H240364   0.736   4.391   7.746
 2277TIP3   OH240365   0.747   4.100   7.597
 2277TIP3    H140366   0.782   4.144   7.516
 2277TIP3    H240367   0.651   4.101   7.577
 2278TIP3   OH240368   0.862   4.682   7.589
 2278TIP3    H140369   0.943   4.716   7.550
 2278TIP3    H240370   0.800   4.749   7.555
 2279TIP3   OH240371   1.268   4.447   8.115
 2279TIP3    H140372   1.280   4.362   8.165
 2279TIP3    H240373   1.360   4.470   8.096
 2280TIP3   OH240374   1.471   4.752   7.959
 2280TIP3    H140375   1.439   4.792   7.876
 2280TIP3    H240376   1.562   4.723   7.935
 2281TIP3   OH240377   0.576   4.360   8.020
 2281TIP3    H140378   0.491   4.317   7.995
 2281TIP3    H240379   0.603   4.398   7.935
 2282TIP3   OH240380   0.830   3.849   7.622
 2282TIP3    H140381   0.804   3.944   7.615
 2282TIP3    H240382   0.752   3.807   7.581
 2283TIP3   OH240383   0.943   4.287   8.017
 2283TIP3    H140384   0.878   4.274   8.089
 2283TIP3    H240385   0.883   4.270   7.941
 2284TIP3   OH240386   1.209   4.220   7.904
 2284TIP3    H140387   1.116   4.220   7.932
 2284TIP3    H240388   1.244   4.162   7.976
 2285TIP3   OH240389   1.308   4.047   8.081
 2285TIP3    H140390   1.337   3.954   8.095
 2285TIP3    H240391   1.332   4.094   8.164
 2286TIP3   OH240392   0.353   4.193   7.984
 2286TIP3    H140393   0.344   4.103   7.948
 2286TIP3    H240394   0.342   4.174   8.081
 2287TIP3   OH240395   0.802   3.787   7.890
 2287TIP3    H140396   0.887   3.741   7.897
 2287TIP3    H240397   0.802   3.802   7.792
 2288TIP3   OH240398   0.814   3.904   8.160
 2288TIP3    H140399   0.804   3.865   8.070
 2288TIP3    H240400   0.790   3.997   8.140
 2289TIP3   OH240401   0.804   5.652   6.384
 2289TIP3    H140402   0.894   5.636   6.419
 2289TIP3    H240403   0.825   5.704   6.306
 2290TIP3   OH240404   0.246   5.107   6.356
 2290TIP3    H140405   0.328   5.088   6.405
 2290TIP3    H240406   0.193   5.026   6.369
 2291TIP3   OH240407   0.100   5.644   6.865
 2291TIP3    H140408   0.041   5.582   6.815
 2291TIP3    H240409   0.115   5.588   6.944
 2292TIP3   OH240410   0.139   5.457   7.056
 2292TIP3    H140411   0.105   5.369   7.080
 2292TIP3    H240412   0.193   5.478   7.135
 2293TIP3   OH240413   1.879   5.522   7.319
 2293TIP3    H140414   1.911   5.526   7.410
 2293TIP3    H240415   1.922   5.600   7.282
 2294TIP3   OH240416   1.836   5.465   7.626
 2294TIP3    H140417   1.800   5.393   7.570
 2294TIP3    H240418   1.858   5.412   7.705
 2295TIP3   OH240419   1.720   5.047   8.122
 2295TIP3    H140420   1.634   5.055   8.170
 2295TIP3    H240421   1.755   5.138   8.136
 2296TIP3   OH240422   1.800   4.893   6.632
 2296TIP3    H140423   1.889   4.938   6.632
 2296TIP3    H240424   1.805   4.842   6.716
 2297TIP3   OH240425   1.858   4.718   6.858
 2297TIP3    H140426   1.782   4.660   6.881
 2297TIP3    H240427   1.916   4.710   6.937
 2298TIP3   OH240428   1.820   4.980   7.316
 2298TIP3    H140429   1.887   4.912   7.293
 2298TIP3    H240430   1.867   5.063   7.295
 2299TIP3   OH240431   1.697   5.251   7.561
 2299TIP3    H140432   1.630   5.294   7.618
 2299TIP3    H240433   1.646   5.230   7.480
 2300TIP3   OH240434   1.825   4.659   6.495
 2300TIP3    H140435   1.869   4.710   6.425
 2300TIP3    H240436   1.809   4.732   6.558
 2301TIP3   OH240437   1.653   4.561   6.919
 2301TIP3    H140438   1.614   4.478   6.887
 2301TIP3    H240439   1.627   4.561   7.014
 2302TIP3   OH240440   0.165   4.771   7.298
 2302TIP3    H140441   0.147   4.744   7.205
 2302TIP3    H240442   0.259   4.741   7.308
 2303TIP3   OH240443   1.741   4.734   7.876
 2303TIP3    H140444   1.789   4.648   7.876
 2303TIP3    H240445   1.810   4.794   7.842
 2304TIP3   OH240446   1.865   4.493   7.910
 2304TIP3    H140447   1.774   4.454   7.909
 2304TIP3    H240448   1.921   4.412   7.921
 2305TIP3   OH240449   1.600   4.328   6.791
 2305TIP3    H140450   1.639   4.238   6.791
 2305TIP3    H240451   1.672   4.373   6.743
 2306TIP3   OH240452   1.702   4.383   7.301
 2306TIP3    H140453   1.800   4.387   7.305
 2306TIP3    H240454   1.680   4.390   7.396
 2307TIP3   OH240455   1.693   4.448   7.570
 2307TIP3    H140456   1.602   4.469   7.598
 2307TIP3    H240457   1.735   4.536   7.560
 2308TIP3   OH240458   0.118   4.314   7.979
 2308TIP3    H140459   0.212   4.283   7.981
 2308TIP3    H240460   0.072   4.231   7.960
 2309TIP3   OH240461   1.895   3.873   8.072
 2309TIP3    H140462   1.939   3.798   8.028
 2309TIP3    H240463   1.901   3.941   8.001
 2310TIP3   OH240464   1.729   4.095   6.761
 2310TIP3    H140465   1.741   4.043   6.843
 2310TIP3    H240466   1.662   4.042   6.715
 2311TIP3   OH240467   0.244   4.116   7.282
 2311TIP3    H140468   0.286   4.031   7.254
 2311TIP3    H240469   0.314   4.182   7.266
 2312TIP3   OH240470   0.099   4.403   7.320
 2312TIP3    H140471   0.164   4.389   7.248
 2312TIP3    H240472   0.111   4.497   7.339
 2313TIP3   OH240473   1.843   4.081   7.917
 2313TIP3    H140474   1.772   4.097   7.982
 2313TIP3    H240475   1.793   4.047   7.841
 2314TIP3   OH240476   0.113   4.062   6.715
 2314TIP3    H140477   0.016   4.068   6.709
 2314TIP3    H240478   0.139   4.108   6.631
 2315TIP3   OH240479   1.586   5.526   6.904
 2315TIP3    H140480   1.641   5.529   6.823
 2315TIP3    H240481   1.626   5.596   6.960
 2316TIP3   OH240482   0.092   3.900   7.544
 2316TIP3    H140483   0.041   3.903   7.627
 2316TIP3    H240484   0.043   3.964   7.489
 2317TIP3   OH240485   0.301   5.205   7.962
 2317TIP3    H140486   0.268   5.168   7.879
 2317TIP3    H240487   0.294   5.125   8.015
 2318TIP3   OH240488   0.590   5.366   7.604
 2318TIP3    H140489   0.595   5.461   7.577
 2318TIP3    H240490   0.685   5.344   7.606
 2319TIP3   OH240491   1.010   5.478   7.864
 2319TIP3    H140492   1.015   5.468   7.961
 2319TIP3    H240493   1.100   5.513   7.845
 2320TIP3   OH240494   1.229   5.634   7.828
 2320TIP3    H140495   1.311   5.588   7.806
 2320TIP3    H240496   1.258   5.688   7.905
 2321TIP3   OH240497   1.750   3.839   7.732
 2321TIP3    H140498   1.675   3.879   7.686
 2321TIP3    H240499   1.757   3.751   7.690
 2322TIP3   OH240500   0.326   5.672   7.569
 2322TIP3    H140501   0.239   5.714   7.549
 2322TIP3    H240502   0.320   5.650   7.663
 2323TIP3   OH240503   0.580   5.624   7.484
 2323TIP3    H140504   0.490   5.639   7.523
 2323TIP3    H240505   0.587   5.698   7.421
 2324TIP3   OH240506   1.028   5.576   7.426
 2324TIP3    H140507   0.966   5.622   7.366
 2324TIP3    H240508   1.064   5.652   7.476
 2325TIP3   OH240509   1.257   5.444   7.553
 2325TIP3    H140510   1.189   5.481   7.494
 2325TIP3    H240511   1.329   5.506   7.529
 2326TIP3   OH240512   1.503   5.618   7.516
 2326TIP3    H140513   1.511   5.712   7.490
 2326TIP3    H240514   1.538   5.575   7.434
 2327TIP3   OH240515   0.281   5.526   7.285
 2327TIP3    H140516   0.260   5.476   7.366
 2327TIP3    H240517   0.370   5.487   7.266
 2328TIP3   OH240518   0.492   5.402   7.179
 2328TIP3    H140519   0.490   5.306   7.187
 2328TIP3    H240520   0.583   5.420   7.210
 2329TIP3   OH240521   0.735   5.433   7.286
 2329TIP3    H140522   0.780   5.348   7.275
 2329TIP3    H240523   0.752   5.448   7.381
 2330TIP3   OH240524   1.045   3.956   7.133
 2330TIP3    H140525   0.966   3.901   7.155
 2330TIP3    H240526   1.104   3.892   7.090
 2331TIP3   OH240527   1.622   3.808   7.146
 2331TIP3    H140528   1.689   3.866   7.104
 2331TIP3    H240529   1.539   3.847   7.110
 2332TIP3   OH240530   1.774   3.943   6.979
 2332TIP3    H140531   1.827   3.869   6.940
 2332TIP3    H240532   1.843   4.008   7.007
 2333TIP3   OH240533   0.347   3.829   6.946
 2333TIP3    H140534   0.265   3.821   6.892
 2333TIP3    H240535   0.388   3.740   6.935
 2334TIP3   OH240536   0.261   3.802   6.518
 2334TIP3    H140537   0.264   3.874   6.453
 2334TIP3    H240538   0.188   3.829   6.576
 2335TIP3   OH240539   0.762   3.812   6.918
 2335TIP3    H140540   0.837   3.853   6.874
 2335TIP3    H240541   0.787   3.823   7.011
 2336TIP3   OH240542   1.348   3.866   7.057
 2336TIP3    H140543   1.348   3.864   6.960
 2336TIP3    H240544   1.300   3.784   7.080
 2337TIP3   OH240545   1.473   3.848   6.643
 2337TIP3    H140546   1.382   3.874   6.625
 2337TIP3    H240547   1.453   3.759   6.682
 2338TIP3   OH240548   0.220   5.453   6.596
 2338TIP3    H140549   0.151   5.438   6.530
 2338TIP3    H240550   0.236   5.548   6.579
 2339TIP3   OH240551   0.319   4.048   6.387
 2339TIP3    H140552   0.301   4.020   6.295
 2339TIP3    H240553   0.410   4.019   6.405
 2340TIP3   OH240554   0.907   4.044   6.617
 2340TIP3    H140555   0.950   4.002   6.693
 2340TIP3    H240556   0.927   4.140   6.631
 2341TIP3   OH240557   1.072   5.578   6.435
 2341TIP3    H140558   1.168   5.575   6.414
 2341TIP3    H240559   1.058   5.483   6.452
 2342TIP3   OH240560   1.758   5.500   6.680
 2342TIP3    H140561   1.746   5.411   6.640
 2342TIP3    H240562   1.741   5.558   6.604
 2343TIP3   OH240563   0.297   3.908   7.874
 2343TIP3    H140564   0.240   3.832   7.900
 2343TIP3    H240565   0.381   3.881   7.916
 2344TIP3   OH240566   0.513   3.868   8.050
 2344TIP3    H140567   0.585   3.814   8.013
 2344TIP3    H240568   0.473   3.805   8.113
 2345TIP3   OH240569   1.356   3.781   8.098
 2345TIP3    H140570   1.374   3.738   8.185
 2345TIP3    H240571   1.444   3.770   8.055
 2346TIP3   OH240572   1.678   5.393   7.920
 2346TIP3    H140573   1.601   5.387   7.859
 2346TIP3    H240574   1.666   5.484   7.952
 2347TIP3   OH240575   3.158   4.791   6.921
 2347TIP3    H140576   3.172   4.874   6.971
 2347TIP3    H240577   3.081   4.817   6.868
 2348TIP3   OH240578   3.038   4.668   7.239
 2348TIP3    H140579   3.033   4.622   7.325
 2348TIP3    H240580   2.964   4.629   7.189
 2349TIP3   OH240581   2.224   4.662   7.401
 2349TIP3    H140582   2.210   4.581   7.454
 2349TIP3    H240583   2.300   4.699   7.449
 2350TIP3   OH240584   3.338   4.999   7.132
 2350TIP3    H140585   3.349   4.927   7.196
 2350TIP3    H240586   3.360   5.077   7.186
 2351TIP3   OH240587   2.349   5.142   7.233
 2351TIP3    H140588   2.318   5.049   7.229
 2351TIP3    H240589   2.444   5.124   7.221
 2352TIP3   OH240590   2.018   4.453   6.796
 2352TIP3    H140591   1.984   4.535   6.833
 2352TIP3    H240592   1.946   4.436   6.732
 2353TIP3   OH240593   2.042   4.676   7.054
 2353TIP3    H140594   2.085   4.590   7.076
 2353TIP3    H240595   2.116   4.729   7.018
 2354TIP3   OH240596   3.097   5.521   7.101
 2354TIP3    H140597   3.168   5.468   7.059
 2354TIP3    H240598   3.064   5.453   7.161
 2355TIP3   OH240599   2.836   4.974   7.356
 2355TIP3    H140600   2.851   4.919   7.278
 2355TIP3    H240601   2.929   4.990   7.385
 2356TIP3   OH240602   3.703   4.079   7.356
 2356TIP3    H140603   3.721   4.134   7.436
 2356TIP3    H240604   3.784   4.094   7.304
 2357TIP3   OH240605   3.200   4.398   7.371
 2357TIP3    H140606   3.232   4.308   7.390
 2357TIP3    H240607   3.169   4.388   7.279
 2358TIP3   OH240608   2.488   4.172   7.045
 2358TIP3    H140609   2.506   4.256   6.997
 2358TIP3    H240610   2.436   4.124   6.977
 2359TIP3   OH240611   3.256   4.200   6.934
 2359TIP3    H140612   3.310   4.173   7.012
 2359TIP3    H240613   3.289   4.288   6.915
 2360TIP3   OH240614   2.143   4.439   7.133
 2360TIP3    H140615   2.210   4.415   7.201
 2360TIP3    H240616   2.183   4.399   7.052
 2361TIP3   OH240617   2.616   4.576   7.080
 2361TIP3    H140618   2.699   4.533   7.107
 2361TIP3    H240619   2.575   4.504   7.028
 2362TIP3   OH240620   3.720   4.229   7.593
 2362TIP3    H140621   3.691   4.311   7.546
 2362TIP3    H240622   3.735   4.266   7.682
 2363TIP3   OH240623   2.395   4.092   7.477
 2363TIP3    H140624   2.347   4.131   7.401
 2363TIP3    H240625   2.332   4.109   7.550
 2364TIP3   OH240626   3.071   5.053   6.824
 2364TIP3    H140627   3.058   5.049   6.727
 2364TIP3    H240628   3.060   5.148   6.839
 2365TIP3   OH240629   2.606   4.851   7.441
 2365TIP3    H140630   2.540   4.914   7.479
 2365TIP3    H240631   2.677   4.913   7.414
 2366TIP3   OH240632   3.448   4.197   7.137
 2366TIP3    H140633   3.464   4.111   7.178
 2366TIP3    H240634   3.506   4.257   7.191
 2367TIP3   OH240635   2.340   4.277   7.265
 2367TIP3    H140636   2.405   4.337   7.309
 2367TIP3    H240637   2.391   4.245   7.188
 2368TIP3   OH240638   2.467   5.058   7.544
 2368TIP3    H140639   2.447   5.126   7.479
 2368TIP3    H240640   2.384   5.059   7.598
 2369TIP3   OH240641   2.056   5.004   6.615
 2369TIP3    H140642   2.065   5.050   6.530
 2369TIP3    H240643   2.078   5.075   6.680
 2370TIP3   OH240644   3.438   5.186   7.330
 2370TIP3    H140645   3.346   5.217   7.346
 2370TIP3    H240646   3.470   5.265   7.282
 2371TIP3   OH240647   3.423   4.008   7.452
 2371TIP3    H140648   3.349   4.035   7.393
 2371TIP3    H240649   3.502   4.037   7.405
 2372TIP3   OH240650   2.735   3.830   7.208
 2372TIP3    H140651   2.706   3.738   7.206
 2372TIP3    H240652   2.652   3.874   7.237
 2373TIP3   OH240653   3.301   5.338   7.026
 2373TIP3    H140654   3.267   5.284   6.954
 2373TIP3    H240655   3.360   5.402   6.980
 2374TIP3   OH240656   3.415   5.142   6.826
 2374TIP3    H140657   3.392   5.066   6.767
 2374TIP3    H240658   3.380   5.113   6.911
 2375TIP3   OH240659   3.535   5.013   7.703
 2375TIP3    H140660   3.538   4.941   7.636
 2375TIP3    H240661   3.551   5.091   7.644
 2376TIP3   OH240662   3.002   4.723   6.643
 2376TIP3    H140663   2.922   4.774   6.619
 2376TIP3    H240664   3.071   4.779   6.605
 2377TIP3   OH240665   3.005   4.550   6.390
 2377TIP3    H140666   3.055   4.602   6.455
 2377TIP3    H240667   2.965   4.483   6.445
 2378TIP3   OH240668   3.737   4.662   7.493
 2378TIP3    H140669   3.669   4.732   7.490
 2378TIP3    H240670   3.798   4.696   7.423
 2379TIP3   OH240671   3.371   4.679   6.769
 2379TIP3    H140672   3.296   4.718   6.822
 2379TIP3    H240673   3.432   4.651   6.840
 2380TIP3   OH240674   3.341   4.573   7.682
 2380TIP3    H140675   3.353   4.662   7.717
 2380TIP3    H240676   3.270   4.589   7.617
 2381TIP3   OH240677   2.500   4.775   6.951
 2381TIP3    H140678   2.468   4.738   6.867
 2381TIP3    H240679   2.555   4.700   6.984
 2382TIP3   OH240680   2.625   5.102   7.230
 2382TIP3    H140681   2.642   5.091   7.135
 2382TIP3    H240682   2.704   5.064   7.273
 2383TIP3   OH240683   2.514   4.639   7.324
 2383TIP3    H140684   2.551   4.639   7.233
 2383TIP3    H240685   2.555   4.721   7.362
 2384TIP3   OH240686   3.186   5.234   7.394
 2384TIP3    H140687   3.145   5.291   7.462
 2384TIP3    H240688   3.164   5.145   7.426
 2385TIP3   OH240689   2.625   5.094   7.763
 2385TIP3    H140690   2.554   5.145   7.808
 2385TIP3    H240691   2.583   5.080   7.675
 2386TIP3   OH240692   3.255   4.636   6.534
 2386TIP3    H140693   3.288   4.657   6.625
 2386TIP3    H240694   3.301   4.704   6.479
 2387TIP3   OH240695   2.330   4.725   7.663
 2387TIP3    H140696   2.345   4.803   7.718
 2387TIP3    H240697   2.256   4.687   7.713
 2388TIP3   OH240698   3.043   5.375   6.853
 2388TIP3    H140699   3.035   5.451   6.912
 2388TIP3    H240700   2.964   5.387   6.797
 2389TIP3   OH240701   2.455   5.275   7.876
 2389TIP3    H140702   2.442   5.317   7.788
 2389TIP3    H240703   2.362   5.249   7.894
 2390TIP3   OH240704   3.592   3.820   6.553
 2390TIP3    H140705   3.513   3.845   6.607
 2390TIP3    H240706   3.549   3.820   6.467
 2391TIP3   OH240707   2.395   4.670   6.712
 2391TIP3    H140708   2.385   4.763   6.679
 2391TIP3    H240709   2.307   4.637   6.693
 2392TIP3   OH240710   2.039   4.936   7.609
 2392TIP3    H140711   1.994   4.917   7.526
 2392TIP3    H240712   2.070   4.845   7.630
 2393TIP3   OH240713   1.998   5.207   7.274
 2393TIP3    H140714   2.073   5.149   7.294
 2393TIP3    H240715   2.021   5.282   7.332
 2394TIP3   OH240716   3.798   5.273   7.857
 2394TIP3    H140717   3.786   5.177   7.851
 2394TIP3    H240718   3.714   5.298   7.903
 2395TIP3   OH240719   2.888   5.220   7.757
 2395TIP3    H140720   2.903   5.291   7.822
 2395TIP3    H240721   2.795   5.195   7.770
 2396TIP3   OH240722   2.946   5.607   6.683
 2396TIP3    H140723   2.935   5.634   6.591
 2396TIP3    H240724   2.935   5.693   6.730
 2397TIP3   OH240725   2.313   5.480   6.907
 2397TIP3    H140726   2.339   5.454   6.998
 2397TIP3    H240727   2.220   5.451   6.903
 2398TIP3   OH240728   3.217   5.522   6.684
 2398TIP3    H140729   3.123   5.545   6.702
 2398TIP3    H240730   3.219   5.432   6.722
 2399TIP3   OH240731   3.498   4.407   7.890
 2399TIP3    H140732   3.442   4.450   7.823
 2399TIP3    H240733   3.494   4.314   7.859
 2400TIP3   OH240734   2.254   5.066   7.708
 2400TIP3    H140735   2.253   5.028   7.798
 2400TIP3    H240736   2.169   5.035   7.672
 2401TIP3   OH240737   2.515   3.942   7.299
 2401TIP3    H140738   2.434   3.955   7.246
 2401TIP3    H240739   2.490   3.990   7.381
 2402TIP3   OH240740   3.013   3.876   7.602
 2402TIP3    H140741   3.046   3.839   7.687
 2402TIP3    H240742   2.916   3.878   7.618
 2403TIP3   OH240743   3.271   4.303   7.688
 2403TIP3    H140744   3.221   4.294   7.772
 2403TIP3    H240745   3.236   4.385   7.651
 2404TIP3   OH240746   3.389   4.787   6.353
 2404TIP3    H140747   3.352   4.771   6.265
 2404TIP3    H240748   3.469   4.836   6.329
 2405TIP3   OH240749   2.525   4.396   7.418
 2405TIP3    H140750   2.449   4.401   7.479
 2405TIP3    H240751   2.527   4.490   7.388
 2406TIP3   OH240752   2.496   4.392   6.902
 2406TIP3    H140753   2.400   4.384   6.882
 2406TIP3    H240754   2.535   4.371   6.815
 2407TIP3   OH240755   3.064   4.510   6.799
 2407TIP3    H140756   3.039   4.594   6.754
 2407TIP3    H240757   3.134   4.478   6.740
 2408TIP3   OH240758   2.957   4.513   7.948
 2408TIP3    H140759   2.920   4.428   7.980
 2408TIP3    H240760   3.045   4.512   7.991
 2409TIP3   OH240761   3.148   4.446   7.093
 2409TIP3    H140762   3.143   4.534   7.053
 2409TIP3    H240763   3.142   4.391   7.014
 2410TIP3   OH240764   2.260   4.421   7.542
 2410TIP3    H140765   2.305   4.460   7.618
 2410TIP3    H240766   2.233   4.334   7.578
 2411TIP3   OH240767   2.543   4.113   6.304
 2411TIP3    H140768   2.617   4.063   6.342
 2411TIP3    H240769   2.532   4.183   6.369
 2412TIP3   OH240770   1.954   4.144   7.015
 2412TIP3    H140771   2.007   4.148   7.096
 2412TIP3    H240772   1.995   4.209   6.957
 2413TIP3   OH240773   3.079   4.598   7.507
 2413TIP3    H140774   3.134   4.529   7.461
 2413TIP3    H240775   3.022   4.543   7.566
 2414TIP3   OH240776   2.768   4.197   7.007
 2414TIP3    H140777   2.679   4.168   7.035
 2414TIP3    H240778   2.826   4.126   7.040
 2415TIP3   OH240779   2.225   4.327   6.903
 2415TIP3    H140780   2.155   4.358   6.840
 2415TIP3    H240781   2.240   4.233   6.877
 2416TIP3   OH240782   2.590   4.343   6.651
 2416TIP3    H140783   2.682   4.339   6.684
 2416TIP3    H240784   2.583   4.434   6.620
 2417TIP3   OH240785   3.202   4.096   7.322
 2417TIP3    H140786   3.124   4.080   7.378
 2417TIP3    H240787   3.190   4.034   7.247
 2418TIP3   OH240788   3.492   5.661   7.989
 2418TIP3    H140789   3.521   5.714   7.912
 2418TIP3    H240790   3.571   5.669   8.046
 2419TIP3   OH240791   2.294   4.888   7.929
 2419TIP3    H140792   2.355   4.920   7.999
 2419TIP3    H240793   2.209   4.887   7.976
 2420TIP3   OH240794   2.846   4.460   7.148
 2420TIP3    H140795   2.933   4.428   7.118
 2420TIP3    H240796   2.820   4.392   7.211
 2421TIP3   OH240797   2.322   4.084   6.857
 2421TIP3    H140798   2.276   4.006   6.895
 2421TIP3    H240799   2.377   4.041   6.790
 2422TIP3   OH240800   2.762   4.268   7.425
 2422TIP3    H140801   2.680   4.319   7.409
 2422TIP3    H240802   2.811   4.328   7.482
 2423TIP3   OH240803   2.776   4.898   6.623
 2423TIP3    H140804   2.704   4.836   6.637
 2423TIP3    H240805   2.774   4.948   6.708
 2424TIP3   OH240806   3.552   4.862   7.491
 2424TIP3    H140807   3.600   4.917   7.424
 2424TIP3    H240808   3.465   4.856   7.447
 2425TIP3   OH240809   2.929   4.949   7.724
 2425TIP3    H140810   2.902   4.925   7.813
 2425TIP3    H240811   2.908   5.045   7.725
 2426TIP3   OH240812   3.235   4.374   6.604
 2426TIP3    H140813   3.316   4.372   6.659
 2426TIP3    H240814   3.247   4.461   6.558
 2427TIP3   OH240815   2.339   4.860   7.196
 2427TIP3    H140816   2.403   4.840   7.125
 2427TIP3    H240817   2.335   4.776   7.246
 2428TIP3   OH240818   3.005   5.059   6.565
 2428TIP3    H140819   2.956   5.144   6.562
 2428TIP3    H240820   2.959   5.003   6.500
 2429TIP3   OH240821   2.018   4.688   7.729
 2429TIP3    H140822   2.015   4.625   7.804
 2429TIP3    H240823   1.963   4.641   7.663
 2430TIP3   OH240824   2.716   4.641   7.893
 2430TIP3    H140825   2.671   4.578   7.836
 2430TIP3    H240826   2.808   4.607   7.891
 2431TIP3   OH240827   3.218   5.180   7.755
 2431TIP3    H140828   3.143   5.199   7.697
 2431TIP3    H240829   3.187   5.224   7.837
 2432TIP3   OH240830   3.783   4.996   7.822
 2432TIP3    H140831   3.691   5.005   7.787
 2432TIP3    H240832   3.833   4.982   7.738
 2433TIP3   OH240833   3.573   5.228   6.605
 2433TIP3    H140834   3.525   5.207   6.688
 2433TIP3    H240835   3.636   5.156   6.603
 2434TIP3   OH240836   3.315   4.770   7.297
 2434TIP3    H140837   3.222   4.762   7.269
 2434TIP3    H240838   3.355   4.694   7.252
 2435TIP3   OH240839   2.555   5.205   6.933
 2435TIP3    H140840   2.598   5.284   6.894
 2435TIP3    H240841   2.465   5.212   6.896
 2436TIP3   OH240842   2.705   4.985   6.873
 2436TIP3    H140843   2.642   5.057   6.898
 2436TIP3    H240844   2.672   4.909   6.923
 2437TIP3   OH240845   2.741   5.387   7.567
 2437TIP3    H140846   2.806   5.454   7.539
 2437TIP3    H240847   2.795   5.343   7.636
 2438TIP3   OH240848   2.596   5.460   6.848
 2438TIP3    H140849   2.501   5.464   6.872
 2438TIP3    H240850   2.619   5.555   6.854
 2439TIP3   OH240851   3.075   4.983   7.483
 2439TIP3    H140852   3.036   4.954   7.569
 2439TIP3    H240853   3.112   4.899   7.449
 2440TIP3   OH240854   3.385   5.434   7.732
 2440TIP3    H140855   3.299   5.393   7.711
 2440TIP3    H240856   3.393   5.498   7.657
 2441TIP3   OH240857   3.788   5.563   6.436
 2441TIP3    H140858   3.759   5.580   6.345
 2441TIP3    H240859   3.709   5.596   6.483
 2442TIP3   OH240860   2.219   4.180   7.677
 2442TIP3    H140861   2.148   4.222   7.730
 2442TIP3    H240862   2.194   4.087   7.691
 2443TIP3   OH240863   3.406   4.930   6.653
 2443TIP3    H140864   3.403   4.838   6.684
 2443TIP3    H240865   3.501   4.942   6.635
 2444TIP3   OH240866   2.144   5.339   7.500
 2444TIP3    H140867   2.223   5.289   7.529
 2444TIP3    H240868   2.124   5.395   7.576
 2445TIP3   OH240869   2.619   5.152   6.474
 2445TIP3    H140870   2.664   5.090   6.533
 2445TIP3    H240871   2.628   5.240   6.518
 2446TIP3   OH240872   2.344   4.917   6.599
 2446TIP3    H140873   2.247   4.930   6.603
 2446TIP3    H240874   2.366   4.990   6.537
 2447TIP3   OH240875   3.054   4.156   7.600
 2447TIP3    H140876   3.141   4.177   7.638
 2447TIP3    H240877   3.046   4.059   7.614
 2448TIP3   OH240878   3.136   4.106   6.722
 2448TIP3    H140879   3.147   4.190   6.676
 2448TIP3    H240880   3.187   4.124   6.805
 2449TIP3   OH240881   2.900   5.308   6.571
 2449TIP3    H140882   2.814   5.354   6.583
 2449TIP3    H240883   2.909   5.312   6.474
 2450TIP3   OH240884   2.868   4.298   6.749
 2450TIP3    H140885   2.929   4.371   6.772
 2450TIP3    H240886   2.838   4.268   6.837
 2451TIP3   OH240887   2.945   4.416   7.679
 2451TIP3    H140888   2.948   4.432   7.776
 2451TIP3    H240889   2.974   4.323   7.668
 2452TIP3   OH240890   2.916   3.968   6.812
 2452TIP3    H140891   2.901   4.007   6.900
 2452TIP3    H240892   2.998   4.018   6.787
 2453TIP3   OH240893   2.639   5.400   6.582
 2453TIP3    H140894   2.657   5.486   6.537
 2453TIP3    H240895   2.600   5.432   6.666
 2454TIP3   OH240896   3.513   4.162   7.764
 2454TIP3    H140897   3.419   4.167   7.741
 2454TIP3    H240898   3.555   4.170   7.677
 2455TIP3   OH240899   3.417   4.533   7.153
 2455TIP3    H140900   3.336   4.483   7.173
 2455TIP3    H240901   3.482   4.490   7.212
 2456TIP3   OH240902   2.350   5.145   6.417
 2456TIP3    H140903   2.447   5.144   6.405
 2456TIP3    H240904   2.317   5.089   6.341
 2457TIP3   OH240905   3.497   5.468   7.323
 2457TIP3    H140906   3.504   5.524   7.243
 2457TIP3    H240907   3.592   5.464   7.346
 2458TIP3   OH240908   2.254   3.877   7.222
 2458TIP3    H140909   2.256   3.858   7.125
 2458TIP3    H240910   2.232   3.787   7.254
 2459TIP3   OH240911   2.102   5.213   6.774
 2459TIP3    H140912   2.054   5.273   6.833
 2459TIP3    H240913   2.147   5.274   6.713
 2460TIP3   OH240914   2.046   5.567   7.959
 2460TIP3    H140915   2.114   5.552   8.028
 2460TIP3    H240916   2.011   5.477   7.949
 2461TIP3   OH240917   2.544   5.393   8.133
 2461TIP3    H140918   2.636   5.362   8.134
 2461TIP3    H240919   2.509   5.347   8.055
 2462TIP3   OH240920   2.919   5.379   6.292
 2462TIP3    H140921   2.858   5.306   6.272
 2462TIP3    H240922   2.963   5.384   6.205
 2463TIP3   OH240923   3.149   5.300   7.989
 2463TIP3    H140924   3.130   5.209   8.022
 2463TIP3    H240925   3.242   5.308   8.021
 2464TIP3   OH240926   2.033   4.912   8.040
 2464TIP3    H140927   1.995   4.823   8.035
 2464TIP3    H240928   1.989   4.954   7.963
 2465TIP3   OH240929   2.707   4.905   7.940
 2465TIP3    H140930   2.681   4.967   7.868
 2465TIP3    H240931   2.704   4.815   7.897
 2466TIP3   OH240932   3.290   4.900   7.736
 2466TIP3    H140933   3.376   4.947   7.743
 2466TIP3    H240934   3.232   4.978   7.745
 2467TIP3   OH240935   2.179   4.612   7.996
 2467TIP3    H140936   2.264   4.568   7.998
 2467TIP3    H240937   2.194   4.678   8.068
 2468TIP3   OH240938   2.507   4.526   7.668
 2468TIP3    H140939   2.455   4.610   7.673
 2468TIP3    H240940   2.587   4.561   7.624
 2469TIP3   OH240941   3.071   4.815   8.066
 2469TIP3    H140942   3.125   4.770   7.999
 2469TIP3    H240943   3.043   4.741   8.123
 2470TIP3   OH240944   2.647   4.305   7.804
 2470TIP3    H140945   2.641   4.235   7.735
 2470TIP3    H240946   2.627   4.384   7.750
 2471TIP3   OH240947   2.640   4.106   7.589
 2471TIP3    H140948   2.692   4.150   7.518
 2471TIP3    H240949   2.549   4.112   7.553
 2472TIP3   OH240950   2.754   4.675   7.588
 2472TIP3    H140951   2.841   4.706   7.560
 2472TIP3    H240952   2.698   4.748   7.553
 2473TIP3   OH240953   3.170   4.452   8.116
 2473TIP3    H140954   3.176   4.365   8.163
 2473TIP3    H240955   3.264   4.473   8.105
 2474TIP3   OH240956   3.350   4.758   7.959
 2474TIP3    H140957   3.317   4.797   7.876
 2474TIP3    H240958   3.441   4.734   7.934
 2475TIP3   OH240959   2.445   4.370   8.007
 2475TIP3    H140960   2.365   4.321   7.977
 2475TIP3    H240961   2.504   4.357   7.931
 2476TIP3   OH240962   2.725   3.857   7.605
 2476TIP3    H140963   2.689   3.949   7.609
 2476TIP3    H240964   2.645   3.809   7.578
 2477TIP3   OH240965   2.835   4.265   8.021
 2477TIP3    H140966   2.762   4.253   8.085
 2477TIP3    H240967   2.783   4.261   7.939
 2478TIP3   OH240968   3.107   4.231   7.904
 2478TIP3    H140969   3.014   4.221   7.931
 2478TIP3    H240970   3.145   4.169   7.971
 2479TIP3   OH240971   3.194   4.046   8.078
 2479TIP3    H140972   3.241   3.963   8.097
 2479TIP3    H240973   3.208   4.102   8.158
 2480TIP3   OH240974   2.239   4.201   8.003
 2480TIP3    H140975   2.235   4.116   7.956
 2480TIP3    H240976   2.228   4.172   8.097
 2481TIP3   OH240977   2.689   3.801   7.867
 2481TIP3    H140978   2.773   3.753   7.881
 2481TIP3    H240979   2.688   3.804   7.769
 2482TIP3   OH240980   2.690   3.910   8.154
 2482TIP3    H140981   2.686   3.875   8.062
 2482TIP3    H240982   2.671   4.004   8.137
 2483TIP3   OH240983   2.689   5.635   6.450
 2483TIP3    H140984   2.782   5.664   6.452
 2483TIP3    H240985   2.676   5.627   6.353
 2484TIP3   OH240986   1.927   5.618   6.897
 2484TIP3    H140987   1.869   5.560   6.843
 2484TIP3    H240988   1.959   5.556   6.966
 2485TIP3   OH240989   2.037   5.436   7.063
 2485TIP3    H140990   1.971   5.375   7.102
 2485TIP3    H240991   2.092   5.456   7.141
 2486TIP3   OH240992   3.769   5.530   7.329
 2486TIP3    H140993   3.798   5.536   7.422
 2486TIP3    H240994   3.827   5.596   7.290
 2487TIP3   OH240995   3.728   5.469   7.624
 2487TIP3    H140996   3.695   5.392   7.573
 2487TIP3    H240997   3.751   5.425   7.708
 2488TIP3   OH240998   3.605   5.046   8.123
 2488TIP3    H140999   3.516   5.057   8.163
 2488TIP3    H241000   3.641   5.137   8.138
 2489TIP3   OH241001   3.698   4.898   6.663
 2489TIP3    H141002   3.792   4.916   6.650
 2489TIP3    H241003   3.700   4.823   6.726
 2490TIP3   OH241004   3.738   4.702   6.840
 2490TIP3    H141005   3.668   4.642   6.875
 2490TIP3    H241006   3.799   4.708   6.918
 2491TIP3   OH241007   3.702   4.971   7.303
 2491TIP3    H141008   3.773   4.904   7.291
 2491TIP3    H241009   3.736   5.053   7.262
 2492TIP3   OH241010   3.581   5.253   7.560
 2492TIP3    H141011   3.521   5.305   7.616
 2492TIP3    H241012   3.525   5.231   7.482
 2493TIP3   OH241013   3.557   4.525   6.918
 2493TIP3    H141014   3.514   4.445   6.882
 2493TIP3    H241015   3.517   4.533   7.007
 2494TIP3   OH241016   2.017   4.780   7.307
 2494TIP3    H141017   2.018   4.745   7.216
 2494TIP3    H241018   2.107   4.751   7.337
 2495TIP3   OH241019   3.634   4.744   7.875
 2495TIP3    H141020   3.683   4.659   7.869
 2495TIP3    H241021   3.700   4.809   7.842
 2496TIP3   OH241022   3.741   4.488   7.907
 2496TIP3    H141023   3.647   4.458   7.897
 2496TIP3    H241024   3.792   4.404   7.914
 2497TIP3   OH241025   3.481   4.342   6.740
 2497TIP3    H141026   3.517   4.253   6.761
 2497TIP3    H241027   3.561   4.386   6.709
 2498TIP3   OH241028   3.579   4.370   7.297
 2498TIP3    H141029   3.678   4.379   7.298
 2498TIP3    H241030   3.559   4.376   7.392
 2499TIP3   OH241031   3.579   4.444   7.557
 2499TIP3    H141032   3.493   4.466   7.595
 2499TIP3    H241033   3.620   4.532   7.544
 2500TIP3   OH241034   2.013   4.275   7.898
 2500TIP3    H141035   2.096   4.252   7.945
 2500TIP3    H241036   1.960   4.193   7.911
 2501TIP3   OH241037   3.776   3.875   8.071
 2501TIP3    H141038   3.824   3.804   8.023
 2501TIP3    H241039   3.772   3.945   8.003
 2502TIP3   OH241040   3.583   4.102   6.760
 2502TIP3    H141041   3.598   4.061   6.848
 2502TIP3    H241042   3.518   4.043   6.720
 2503TIP3   OH241043   2.116   4.110   7.274
 2503TIP3    H141044   2.161   4.023   7.263
 2503TIP3    H241045   2.190   4.173   7.266
 2504TIP3   OH241046   1.959   4.417   7.318
 2504TIP3    H141047   2.018   4.391   7.243
 2504TIP3    H241048   1.992   4.507   7.333
 2505TIP3   OH241049   3.721   4.090   7.924
 2505TIP3    H141050   3.651   4.110   7.988
 2505TIP3    H241051   3.669   4.062   7.846
 2506TIP3   OH241052   1.998   4.052   6.699
 2506TIP3    H141053   1.922   4.023   6.752
 2506TIP3    H241054   1.952   4.093   6.625
 2507TIP3   OH241055   3.427   5.550   6.914
 2507TIP3    H141056   3.496   5.548   6.845
 2507TIP3    H241057   3.472   5.593   6.989
 2508TIP3   OH241058   1.970   3.896   7.545
 2508TIP3    H141059   1.905   3.866   7.611
 2508TIP3    H241060   1.930   3.975   7.505
 2509TIP3   OH241061   2.193   5.215   7.953
 2509TIP3    H141062   2.108   5.254   7.925
 2509TIP3    H241063   2.172   5.177   8.039
 2510TIP3   OH241064   2.469   5.358   7.614
 2510TIP3    H141065   2.471   5.452   7.584
 2510TIP3    H241066   2.564   5.336   7.605
 2511TIP3   OH241067   2.882   5.475   7.872
 2511TIP3    H141068   2.895   5.463   7.968
 2511TIP3    H241069   2.968   5.512   7.845
 2512TIP3   OH241070   3.116   5.635   7.836
 2512TIP3    H141071   3.200   5.590   7.819
 2512TIP3    H241072   3.139   5.694   7.910
 2513TIP3   OH241073   3.635   3.836   7.729
 2513TIP3    H141074   3.557   3.876   7.688
 2513TIP3    H241075   3.641   3.749   7.684
 2514TIP3   OH241076   2.213   5.681   7.586
 2514TIP3    H141077   2.127   5.714   7.551
 2514TIP3    H241078   2.207   5.711   7.678
 2515TIP3   OH241079   2.452   5.610   7.476
 2515TIP3    H141080   2.360   5.634   7.504
 2515TIP3    H241081   2.475   5.686   7.420
 2516TIP3   OH241082   2.915   5.575   7.419
 2516TIP3    H141083   2.857   5.619   7.354
 2516TIP3    H241084   2.947   5.652   7.471
 2517TIP3   OH241085   3.132   5.457   7.557
 2517TIP3    H141086   3.063   5.493   7.497
 2517TIP3    H241087   3.208   5.513   7.532
 2518TIP3   OH241088   3.405   5.611   7.536
 2518TIP3    H141089   3.416   5.704   7.510
 2518TIP3    H241090   3.436   5.567   7.453
 2519TIP3   OH241091   2.185   5.512   7.288
 2519TIP3    H141092   2.165   5.454   7.364
 2519TIP3    H241093   2.275   5.483   7.261
 2520TIP3   OH241094   2.403   5.420   7.156
 2520TIP3    H141095   2.385   5.328   7.185
 2520TIP3    H241096   2.492   5.431   7.197
 2521TIP3   OH241097   2.633   5.425   7.289
 2521TIP3    H141098   2.661   5.331   7.284
 2521TIP3    H241099   2.639   5.441   7.384
 2522TIP3   OH241100   2.928   3.991   7.077
 2522TIP3    H141101   2.863   3.980   7.149
 2522TIP3    H241102   2.982   3.911   7.091
 2523TIP3   OH241103   3.501   3.803   7.144
 2523TIP3    H141104   3.576   3.851   7.102
 2523TIP3    H241105   3.423   3.847   7.103
 2524TIP3   OH241106   3.666   3.939   6.976
 2524TIP3    H141107   3.734   3.885   6.932
 2524TIP3    H241108   3.723   4.011   7.012
 2525TIP3   OH241109   2.238   3.844   6.954
 2525TIP3    H141110   2.153   3.840   6.908
 2525TIP3    H241111   2.275   3.756   6.930
 2526TIP3   OH241112   2.155   3.865   6.523
 2526TIP3    H141113   2.161   3.769   6.512
 2526TIP3    H241114   2.087   3.874   6.591
 2527TIP3   OH241115   2.652   3.813   6.925
 2527TIP3    H141116   2.703   3.855   6.854
 2527TIP3    H241117   2.703   3.835   7.004
 2528TIP3   OH241118   3.242   3.866   7.039
 2528TIP3    H141119   3.203   3.870   6.951
 2528TIP3    H241120   3.201   3.784   7.076
 2529TIP3   OH241121   3.346   3.858   6.652
 2529TIP3    H141122   3.258   3.898   6.638
 2529TIP3    H241123   3.320   3.771   6.689
 2530TIP3   OH241124   2.093   5.461   6.601
 2530TIP3    H141125   2.016   5.415   6.565
 2530TIP3    H241126   2.078   5.553   6.574
 2531TIP3   OH241127   2.779   4.038   6.597
 2531TIP3    H141128   2.826   4.010   6.678
 2531TIP3    H241129   2.790   4.134   6.608
 2532TIP3   OH241130   2.966   5.638   6.410
 2532TIP3    H141131   3.051   5.600   6.432
 2532TIP3    H241132   2.937   5.571   6.344
 2533TIP3   OH241133   3.612   5.490   6.710
 2533TIP3    H141134   3.597   5.406   6.662
 2533TIP3    H241135   3.587   5.557   6.641
 2534TIP3   OH241136   2.185   3.920   7.858
 2534TIP3    H141137   2.131   3.840   7.874
 2534TIP3    H241138   2.255   3.908   7.926
 2535TIP3   OH241139   2.386   3.863   8.051
 2535TIP3    H141140   2.467   3.814   8.024
 2535TIP3    H241141   2.339   3.793   8.100
 2536TIP3   OH241142   3.242   3.777   8.103
 2536TIP3    H141143   3.255   3.735   8.192
 2536TIP3    H241144   3.330   3.762   8.062
 2537TIP3   OH241145   3.571   5.390   7.924
 2537TIP3    H141146   3.496   5.378   7.861
 2537TIP3    H241147   3.553   5.480   7.957
 2538TIP3   OH241148   5.047   4.790   6.922
 2538TIP3    H141149   5.051   4.885   6.945
 2538TIP3    H241150   4.968   4.789   6.867
 2539TIP3   OH241151   4.905   4.671   7.241
 2539TIP3    H141152   4.909   4.624   7.327
 2539TIP3    H241153   4.837   4.624   7.191
 2540TIP3   OH241154   4.111   4.668   7.395
 2540TIP3    H141155   4.099   4.587   7.448
 2540TIP3    H241156   4.184   4.709   7.446
 2541TIP3   OH241157   5.243   4.990   7.126
 2541TIP3    H141158   5.237   4.915   7.187
 2541TIP3    H241159   5.255   5.064   7.187
 2542TIP3   OH241160   4.228   5.132   7.236
 2542TIP3    H141161   4.201   5.039   7.222
 2542TIP3    H241162   4.325   5.120   7.228
 2543TIP3   OH241163   3.886   4.432   6.793
 2543TIP3    H141164   3.894   4.529   6.789
 2543TIP3    H241165   3.810   4.427   6.853
 2544TIP3   OH241166   3.930   4.676   7.027
 2544TIP3    H141167   3.975   4.602   7.073
 2544TIP3    H241168   4.001   4.742   7.016
 2545TIP3   OH241169   4.981   5.530   7.106
 2545TIP3    H141170   5.053   5.479   7.059
 2545TIP3    H241171   4.954   5.459   7.167
 2546TIP3   OH241172   4.724   4.975   7.333
 2546TIP3    H141173   4.739   4.898   7.277
 2546TIP3    H241174   4.812   4.982   7.376
 2547TIP3   OH241175   5.591   4.087   7.353
 2547TIP3    H141176   5.605   4.136   7.436
 2547TIP3    H241177   5.678   4.102   7.310
 2548TIP3   OH241178   5.091   4.402   7.376
 2548TIP3    H141179   5.116   4.310   7.396
 2548TIP3    H241180   5.072   4.392   7.281
 2549TIP3   OH241181   4.369   4.177   7.042
 2549TIP3    H141182   4.391   4.255   6.988
 2549TIP3    H241183   4.335   4.116   6.974
 2550TIP3   OH241184   5.146   4.200   6.919
 2550TIP3    H141185   5.198   4.180   7.001
 2550TIP3    H241186   5.196   4.274   6.882
 2551TIP3   OH241187   4.030   4.458   7.140
 2551TIP3    H141188   4.090   4.414   7.203
 2551TIP3    H241189   4.060   4.418   7.056
 2552TIP3   OH241190   4.501   4.592   7.089
 2552TIP3    H141191   4.589   4.553   7.104
 2552TIP3    H241192   4.461   4.522   7.033
 2553TIP3   OH241193   5.608   4.231   7.592
 2553TIP3    H141194   5.577   4.311   7.545
 2553TIP3    H241195   5.622   4.267   7.681
 2554TIP3   OH241196   4.290   4.099   7.466
 2554TIP3    H141197   4.241   4.140   7.392
 2554TIP3    H241198   4.232   4.121   7.541
 2555TIP3   OH241199   4.971   5.055   6.818
 2555TIP3    H141200   4.953   5.046   6.723
 2555TIP3    H241201   4.949   5.149   6.827
 2556TIP3   OH241202   4.495   4.856   7.433
 2556TIP3    H141203   4.432   4.920   7.476
 2556TIP3    H241204   4.563   4.918   7.399
 2557TIP3   OH241205   5.318   4.188   7.134
 2557TIP3    H141206   5.376   4.111   7.132
 2557TIP3    H241207   5.365   4.245   7.200
 2558TIP3   OH241208   4.222   4.275   7.261
 2558TIP3    H141209   4.287   4.338   7.299
 2558TIP3    H241210   4.271   4.241   7.183
 2559TIP3   OH241211   4.354   5.063   7.542
 2559TIP3    H141212   4.337   5.143   7.489
 2559TIP3    H241213   4.270   5.057   7.593
 2560TIP3   OH241214   3.965   5.018   6.620
 2560TIP3    H141215   3.930   5.059   6.538
 2560TIP3    H241216   3.957   5.090   6.687
 2561TIP3   OH241217   5.325   5.189   7.331
 2561TIP3    H141218   5.231   5.209   7.350
 2561TIP3    H241219   5.348   5.271   7.284
 2562TIP3   OH241220   5.309   4.018   7.450
 2562TIP3    H141221   5.240   4.048   7.388
 2562TIP3    H241222   5.392   4.035   7.400
 2563TIP3   OH241223   4.601   3.813   7.211
 2563TIP3    H141224   4.569   3.721   7.215
 2563TIP3    H241225   4.518   3.862   7.238
 2564TIP3   OH241226   5.164   5.375   6.991
 2564TIP3    H141227   5.180   5.305   6.925
 2564TIP3    H241228   5.239   5.436   6.969
 2565TIP3   OH241229   5.260   5.165   6.818
 2565TIP3    H141230   5.238   5.090   6.759
 2565TIP3    H241231   5.250   5.122   6.905
 2566TIP3   OH241232   5.413   5.014   7.699
 2566TIP3    H141233   5.417   4.940   7.634
 2566TIP3    H241234   5.436   5.088   7.640
 2567TIP3   OH241235   4.869   4.693   6.645
 2567TIP3    H141236   4.828   4.780   6.629
 2567TIP3    H241237   4.959   4.707   6.609
 2568TIP3   OH241238   5.618   4.665   7.475
 2568TIP3    H141239   5.550   4.734   7.473
 2568TIP3    H241240   5.682   4.702   7.411
 2569TIP3   OH241241   5.257   4.716   6.758
 2569TIP3    H141242   5.184   4.742   6.818
 2569TIP3    H241243   5.312   4.662   6.820
 2570TIP3   OH241244   5.213   4.556   7.700
 2570TIP3    H141245   5.214   4.651   7.713
 2570TIP3    H241246   5.152   4.553   7.624
 2571TIP3   OH241247   4.356   4.771   6.950
 2571TIP3    H141248   4.345   4.731   6.861
 2571TIP3    H241249   4.417   4.709   6.995
 2572TIP3   OH241250   4.517   5.119   7.213
 2572TIP3    H141251   4.525   5.112   7.116
 2572TIP3    H241252   4.597   5.073   7.245
 2573TIP3   OH241253   4.395   4.637   7.331
 2573TIP3    H141254   4.431   4.637   7.239
 2573TIP3    H241255   4.441   4.715   7.370
 2574TIP3   OH241256   5.070   5.230   7.389
 2574TIP3    H141257   5.038   5.288   7.461
 2574TIP3    H241258   5.046   5.141   7.424
 2575TIP3   OH241259   4.505   5.092   7.767
 2575TIP3    H141260   4.437   5.148   7.812
 2575TIP3    H241261   4.466   5.085   7.677
 2576TIP3   OH241262   5.124   4.662   6.533
 2576TIP3    H141263   5.192   4.682   6.603
 2576TIP3    H241264   5.160   4.709   6.456
 2577TIP3   OH241265   4.225   4.723   7.659
 2577TIP3    H141266   4.244   4.804   7.708
 2577TIP3    H241267   4.148   4.692   7.710
 2578TIP3   OH241268   4.871   5.342   6.812
 2578TIP3    H141269   4.865   5.328   6.908
 2578TIP3    H241270   4.843   5.436   6.806
 2579TIP3   OH241271   4.342   5.275   7.876
 2579TIP3    H141272   4.333   5.316   7.787
 2579TIP3    H241273   4.248   5.254   7.893
 2580TIP3   OH241274   5.498   3.813   6.565
 2580TIP3    H141275   5.403   3.838   6.575
 2580TIP3    H241276   5.543   3.898   6.566
 2581TIP3   OH241277   4.270   4.685   6.689
 2581TIP3    H141278   4.231   4.761   6.642
 2581TIP3    H241279   4.200   4.619   6.688
 2582TIP3   OH241280   3.926   4.937   7.605
 2582TIP3    H141281   3.879   4.919   7.522
 2582TIP3    H241282   3.954   4.846   7.627
 2583TIP3   OH241283   3.884   5.208   7.267
 2583TIP3    H141284   3.975   5.179   7.249
 2583TIP3    H241285   3.901   5.279   7.332
 2584TIP3   OH241286   5.683   5.270   7.845
 2584TIP3    H141287   5.674   5.173   7.849
 2584TIP3    H241288   5.601   5.294   7.895
 2585TIP3   OH241289   4.758   5.215   7.754
 2585TIP3    H141290   4.782   5.283   7.821
 2585TIP3    H241291   4.668   5.186   7.778
 2586TIP3   OH241292   4.820   5.597   6.702
 2586TIP3    H141293   4.781   5.629   6.619
 2586TIP3    H241294   4.824   5.683   6.751
 2587TIP3   OH241295   4.175   5.497   6.916
 2587TIP3    H141296   4.220   5.472   7.000
 2587TIP3    H241297   4.098   5.438   6.917
 2588TIP3   OH241298   5.104   5.532   6.715
 2588TIP3    H141299   5.011   5.546   6.740
 2588TIP3    H241300   5.110   5.436   6.716
 2589TIP3   OH241301   5.379   4.404   7.887
 2589TIP3    H141302   5.330   4.455   7.820
 2589TIP3    H241303   5.376   4.313   7.850
 2590TIP3   OH241304   4.142   5.062   7.703
 2590TIP3    H141305   4.146   5.031   7.795
 2590TIP3    H241306   4.054   5.029   7.673
 2591TIP3   OH241307   4.394   3.938   7.294
 2591TIP3    H141308   4.304   3.923   7.259
 2591TIP3    H241309   4.373   3.993   7.373
 2592TIP3   OH241310   4.901   3.879   7.601
 2592TIP3    H141311   4.930   3.838   7.686
 2592TIP3    H241312   4.804   3.886   7.613
 2593TIP3   OH241313   5.167   4.279   7.719
 2593TIP3    H141314   5.109   4.242   7.791
 2593TIP3    H241315   5.173   4.372   7.748
 2594TIP3   OH241316   4.854   4.158   6.357
 2594TIP3    H141317   4.800   4.141   6.435
 2594TIP3    H241318   4.843   4.083   6.296
 2595TIP3   OH241319   4.407   4.394   7.428
 2595TIP3    H141320   4.323   4.399   7.478
 2595TIP3    H241321   4.408   4.486   7.391
 2596TIP3   OH241322   4.375   4.407   6.904
 2596TIP3    H141323   4.277   4.392   6.904
 2596TIP3    H241324   4.398   4.387   6.811
 2597TIP3   OH241325   4.957   4.499   6.809
 2597TIP3    H141326   4.919   4.572   6.754
 2597TIP3    H241327   5.004   4.448   6.739
 2598TIP3   OH241328   4.839   4.510   7.949
 2598TIP3    H141329   4.810   4.423   7.982
 2598TIP3    H241330   4.929   4.513   7.986
 2599TIP3   OH241331   5.061   4.453   7.089
 2599TIP3    H141332   5.043   4.537   7.041
 2599TIP3    H241333   5.044   4.390   7.018
 2600TIP3   OH241334   4.148   4.421   7.543
 2600TIP3    H141335   4.185   4.452   7.626
 2600TIP3    H241336   4.116   4.332   7.571
 2601TIP3   OH241337   4.409   4.211   6.263
 2601TIP3    H141338   4.432   4.139   6.323
 2601TIP3    H241339   4.469   4.192   6.186
 2602TIP3   OH241340   3.848   4.139   7.016
 2602TIP3    H141341   3.919   4.129   7.081
 2602TIP3    H241342   3.892   4.174   6.937
 2603TIP3   OH241343   3.917   4.227   6.543
 2603TIP3    H141344   4.011   4.211   6.526
 2603TIP3    H241345   3.917   4.252   6.637
 2604TIP3   OH241346   4.955   4.594   7.508
 2604TIP3    H141347   5.016   4.529   7.464
 2604TIP3    H241348   4.902   4.534   7.565
 2605TIP3   OH241349   4.689   4.154   7.006
 2605TIP3    H141350   4.600   4.155   7.047
 2605TIP3    H241351   4.743   4.106   7.073
 2606TIP3   OH241352   4.122   4.323   6.905
 2606TIP3    H141353   4.049   4.340   6.842
 2606TIP3    H241354   4.158   4.235   6.878
 2607TIP3   OH241355   4.458   4.354   6.652
 2607TIP3    H141356   4.547   4.347   6.693
 2607TIP3    H241357   4.463   4.437   6.604
 2608TIP3   OH241358   5.088   4.106   7.322
 2608TIP3    H141359   5.014   4.090   7.382
 2608TIP3    H241360   5.072   4.044   7.249
 2609TIP3   OH241361   5.379   5.659   7.987
 2609TIP3    H141362   5.423   5.685   7.904
 2609TIP3    H241363   5.453   5.673   8.050
 2610TIP3   OH241364   4.180   4.887   7.930
 2610TIP3    H141365   4.234   4.893   8.012
 2610TIP3    H241366   4.090   4.886   7.969
 2611TIP3   OH241367   4.742   4.463   7.146
 2611TIP3    H141368   4.830   4.428   7.126
 2611TIP3    H241369   4.713   4.407   7.220
 2612TIP3   OH241370   4.229   4.079   6.822
 2612TIP3    H141371   4.189   4.000   6.864
 2612TIP3    H241372   4.250   4.048   6.733
 2613TIP3   OH241373   4.651   4.277   7.421
 2613TIP3    H141374   4.567   4.328   7.420
 2613TIP3    H241375   4.707   4.328   7.483
 2614TIP3   OH241376   4.688   4.907   6.625
 2614TIP3    H141377   4.630   4.838   6.660
 2614TIP3    H241378   4.675   4.970   6.698
 2615TIP3   OH241379   5.433   4.863   7.484
 2615TIP3    H141380   5.485   4.915   7.418
 2615TIP3    H241381   5.348   4.857   7.439
 2616TIP3   OH241382   4.816   4.949   7.728
 2616TIP3    H141383   4.788   4.925   7.817
 2616TIP3    H241384   4.791   5.043   7.726
 2617TIP3   OH241385   5.097   4.387   6.607
 2617TIP3    H141386   5.188   4.389   6.643
 2617TIP3    H241387   5.097   4.466   6.548
 2618TIP3   OH241388   4.211   4.863   7.169
 2618TIP3    H141389   4.260   4.843   7.087
 2618TIP3    H241390   4.229   4.783   7.222
 2619TIP3   OH241391   4.875   5.087   6.562
 2619TIP3    H141392   4.831   5.173   6.549
 2619TIP3    H241393   4.802   5.021   6.562
 2620TIP3   OH241394   3.899   4.684   7.730
 2620TIP3    H141395   3.899   4.620   7.803
 2620TIP3    H241396   3.851   4.635   7.660
 2621TIP3   OH241397   4.596   4.642   7.895
 2621TIP3    H141398   4.547   4.583   7.835
 2621TIP3    H241399   4.686   4.604   7.891
 2622TIP3   OH241400   5.098   5.181   7.751
 2622TIP3    H141401   5.015   5.195   7.704
 2622TIP3    H241402   5.077   5.227   7.834
 2623TIP3   OH241403   5.644   4.402   6.581
 2623TIP3    H141404   5.586   4.376   6.505
 2623TIP3    H241405   5.649   4.499   6.560
 2624TIP3   OH241406   5.663   4.995   7.824
 2624TIP3    H141407   5.568   5.000   7.796
 2624TIP3    H241408   5.707   4.983   7.737
 2625TIP3   OH241409   5.476   5.237   6.633
 2625TIP3    H141410   5.399   5.245   6.694
 2625TIP3    H241411   5.499   5.145   6.649
 2626TIP3   OH241412   5.192   4.763   7.293
 2626TIP3    H141413   5.101   4.756   7.260
 2626TIP3    H241414   5.234   4.692   7.241
 2627TIP3   OH241415   4.438   5.201   6.945
 2627TIP3    H141416   4.492   5.280   6.926
 2627TIP3    H241417   4.356   5.223   6.898
 2628TIP3   OH241418   4.560   4.977   6.858
 2628TIP3    H141419   4.518   5.059   6.891
 2628TIP3    H241420   4.528   4.911   6.921
 2629TIP3   OH241421   4.629   5.391   7.571
 2629TIP3    H141422   4.702   5.447   7.540
 2629TIP3    H241423   4.678   5.339   7.639
 2630TIP3   OH241424   4.465   5.450   6.839
 2630TIP3    H141425   4.371   5.469   6.850
 2630TIP3    H241426   4.501   5.538   6.863
 2631TIP3   OH241427   4.952   4.980   7.484
 2631TIP3    H141428   4.914   4.952   7.571
 2631TIP3    H241429   4.998   4.899   7.456
 2632TIP3   OH241430   5.280   5.438   7.726
 2632TIP3    H141431   5.193   5.400   7.707
 2632TIP3    H241432   5.292   5.500   7.649
 2633TIP3   OH241433   4.108   4.182   7.677
 2633TIP3    H141434   4.036   4.217   7.733
 2633TIP3    H241435   4.119   4.093   7.717
 2634TIP3   OH241436   5.315   4.939   6.614
 2634TIP3    H141437   5.302   4.855   6.661
 2634TIP3    H241438   5.412   4.945   6.613
 2635TIP3   OH241439   4.033   5.338   7.489
 2635TIP3    H141440   4.106   5.280   7.517
 2635TIP3    H241441   4.013   5.390   7.568
 2636TIP3   OH241442   4.178   4.883   6.522
 2636TIP3    H141443   4.097   4.910   6.571
 2636TIP3    H241444   4.216   4.968   6.501
 2637TIP3   OH241445   4.935   4.157   7.595
 2637TIP3    H141446   5.028   4.172   7.621
 2637TIP3    H241447   4.924   4.061   7.607
 2638TIP3   OH241448   4.999   4.106   6.720
 2638TIP3    H141449   5.038   4.143   6.639
 2638TIP3    H241450   5.047   4.157   6.788
 2639TIP3   OH241451   4.779   5.335   6.533
 2639TIP3    H141452   4.693   5.379   6.533
 2639TIP3    H241453   4.815   5.369   6.617
 2640TIP3   OH241454   4.708   4.314   6.775
 2640TIP3    H141455   4.785   4.371   6.794
 2640TIP3    H241456   4.701   4.255   6.853
 2641TIP3   OH241457   4.829   4.415   7.679
 2641TIP3    H141458   4.836   4.436   7.775
 2641TIP3    H241459   4.870   4.326   7.670
 2642TIP3   OH241460   4.822   3.955   6.852
 2642TIP3    H141461   4.775   4.026   6.902
 2642TIP3    H241462   4.898   4.007   6.815
 2643TIP3   OH241463   4.403   4.106   6.546
 2643TIP3    H141464   4.405   4.196   6.584
 2643TIP3    H241465   4.499   4.086   6.548
 2644TIP3   OH241466   5.404   4.154   7.757
 2644TIP3    H141467   5.310   4.166   7.736
 2644TIP3    H241468   5.447   4.166   7.670
 2645TIP3   OH241469   5.312   4.537   7.145
 2645TIP3    H141470   5.230   4.484   7.147
 2645TIP3    H241471   5.373   4.484   7.200
 2646TIP3   OH241472   5.378   5.472   7.313
 2646TIP3    H141473   5.386   5.536   7.238
 2646TIP3    H241474   5.472   5.460   7.334
 2647TIP3   OH241475   4.137   3.875   7.231
 2647TIP3    H141476   4.133   3.856   7.135
 2647TIP3    H241477   4.100   3.792   7.268
 2648TIP3   OH241478   4.007   5.240   6.805
 2648TIP3    H141479   3.942   5.274   6.868
 2648TIP3    H241480   4.001   5.306   6.733
 2649TIP3   OH241481   3.927   5.565   7.952
 2649TIP3    H141482   3.991   5.554   8.027
 2649TIP3    H241483   3.895   5.473   7.947
 2650TIP3   OH241484   4.428   5.394   8.133
 2650TIP3    H141485   4.520   5.362   8.136
 2650TIP3    H241486   4.393   5.347   8.055
 2651TIP3   OH241487   5.038   5.301   7.985
 2651TIP3    H141488   5.019   5.211   8.019
 2651TIP3    H241489   5.128   5.313   8.023
 2652TIP3   OH241490   3.918   4.908   8.041
 2652TIP3    H141491   3.870   4.824   8.048
 2652TIP3    H241492   3.876   4.949   7.961
 2653TIP3   OH241493   4.598   4.905   7.941
 2653TIP3    H141494   4.564   4.963   7.869
 2653TIP3    H241495   4.590   4.812   7.907
 2654TIP3   OH241496   5.164   4.901   7.735
 2654TIP3    H141497   5.248   4.953   7.735
 2654TIP3    H241498   5.105   4.977   7.746
 2655TIP3   OH241499   4.063   4.605   7.993
 2655TIP3    H141500   4.123   4.537   8.027
 2655TIP3    H241501   4.079   4.677   8.058
 2656TIP3   OH241502   4.415   4.526   7.702
 2656TIP3    H141503   4.349   4.597   7.708
 2656TIP3    H241504   4.476   4.565   7.636
 2657TIP3   OH241505   4.956   4.810   8.067
 2657TIP3    H141506   5.004   4.760   7.999
 2657TIP3    H241507   4.925   4.740   8.128
 2658TIP3   OH241508   5.576   4.821   6.252
 2658TIP3    H141509   5.569   4.791   6.161
 2658TIP3    H241510   5.481   4.833   6.271
 2659TIP3   OH241511   4.539   4.297   7.804
 2659TIP3    H141512   4.539   4.236   7.727
 2659TIP3    H241513   4.517   4.381   7.761
 2660TIP3   OH241514   4.534   4.110   7.585
 2660TIP3    H141515   4.591   4.152   7.516
 2660TIP3    H241516   4.446   4.120   7.542
 2661TIP3   OH241517   4.631   4.674   7.583
 2661TIP3    H141518   4.722   4.693   7.555
 2661TIP3    H241519   4.584   4.753   7.548
 2662TIP3   OH241520   5.062   4.448   8.116
 2662TIP3    H141521   5.069   4.363   8.167
 2662TIP3    H241522   5.155   4.469   8.098
 2663TIP3   OH241523   5.246   4.751   7.951
 2663TIP3    H141524   5.204   4.792   7.873
 2663TIP3    H241525   5.338   4.739   7.919
 2664TIP3   OH241526   4.328   4.371   8.009
 2664TIP3    H141527   4.253   4.317   7.972
 2664TIP3    H241528   4.384   4.381   7.930
 2665TIP3   OH241529   4.607   3.856   7.603
 2665TIP3    H141530   4.572   3.948   7.610
 2665TIP3    H241531   4.528   3.809   7.575
 2666TIP3   OH241532   4.718   4.266   8.022
 2666TIP3    H141533   4.649   4.251   8.090
 2666TIP3    H241534   4.661   4.264   7.942
 2667TIP3   OH241535   4.977   4.218   7.908
 2667TIP3    H141536   4.883   4.213   7.935
 2667TIP3    H241537   5.014   4.160   7.979
 2668TIP3   OH241538   5.082   4.043   8.075
 2668TIP3    H141539   5.132   3.961   8.094
 2668TIP3    H241540   5.099   4.100   8.153
 2669TIP3   OH241541   4.122   4.194   7.995
 2669TIP3    H141542   4.100   4.109   7.953
 2669TIP3    H241543   4.114   4.171   8.091
 2670TIP3   OH241544   4.570   3.808   7.866
 2670TIP3    H141545   4.652   3.757   7.879
 2670TIP3    H241546   4.574   3.821   7.769
 2671TIP3   OH241547   4.588   3.908   8.143
 2671TIP3    H141548   4.572   3.869   8.055
 2671TIP3    H241549   4.586   4.003   8.120
 2672TIP3   OH241550   4.615   5.678   6.386
 2672TIP3    H141551   4.589   5.771   6.401
 2672TIP3    H241552   4.536   5.636   6.353
 2673TIP3   OH241553   3.910   5.080   6.363
 2673TIP3    H141554   3.987   5.044   6.318
 2673TIP3    H241555   3.837   5.055   6.303
 2674TIP3   OH241556   3.806   5.613   6.857
 2674TIP3    H141557   3.735   5.555   6.820
 2674TIP3    H241558   3.850   5.551   6.918
 2675TIP3   OH241559   3.904   5.443   7.051
 2675TIP3    H141560   3.835   5.400   7.105
 2675TIP3    H241561   3.966   5.468   7.122
 2676TIP3   OH241562   5.659   5.534   7.324
 2676TIP3    H141563   5.678   5.535   7.419
 2676TIP3    H241564   5.723   5.600   7.293
 2677TIP3   OH241565   5.607   5.474   7.626
 2677TIP3    H141566   5.568   5.398   7.577
 2677TIP3    H241567   5.638   5.427   7.705
 2678TIP3   OH241568   5.489   5.051   8.117
 2678TIP3    H141569   5.400   5.060   8.156
 2678TIP3    H241570   5.526   5.139   8.142
 2679TIP3   OH241571   5.603   4.892   6.647
 2679TIP3    H141572   5.696   4.923   6.650
 2679TIP3    H241573   5.599   4.827   6.722
 2680TIP3   OH241574   5.636   4.697   6.843
 2680TIP3    H141575   5.552   4.648   6.862
 2680TIP3    H241576   5.671   4.710   6.934
 2681TIP3   OH241577   5.590   4.972   7.309
 2681TIP3    H141578   5.661   4.908   7.286
 2681TIP3    H241579   5.632   5.058   7.293
 2682TIP3   OH241580   5.465   5.254   7.553
 2682TIP3    H141581   5.393   5.293   7.605
 2682TIP3    H241582   5.417   5.226   7.471
 2683TIP3   OH241583   5.637   4.660   6.508
 2683TIP3    H141584   5.606   4.703   6.427
 2683TIP3    H241585   5.648   4.739   6.564
 2684TIP3   OH241586   5.509   4.375   6.354
 2684TIP3    H141587   5.491   4.446   6.289
 2684TIP3    H241588   5.433   4.319   6.332
 2685TIP3   OH241589   5.419   4.562   6.905
 2685TIP3    H141590   5.387   4.474   6.879
 2685TIP3    H241591   5.393   4.564   7.000
 2686TIP3   OH241592   3.893   4.775   7.300
 2686TIP3    H141593   3.891   4.734   7.211
 2686TIP3    H241594   3.988   4.763   7.322
 2687TIP3   OH241595   5.521   4.737   7.875
 2687TIP3    H141596   5.560   4.647   7.879
 2687TIP3    H241597   5.594   4.790   7.838
 2688TIP3   OH241598   5.626   4.489   7.911
 2688TIP3    H141599   5.538   4.445   7.906
 2688TIP3    H241600   5.687   4.412   7.922
 2689TIP3   OH241601   5.356   4.337   6.748
 2689TIP3    H141602   5.369   4.241   6.761
 2689TIP3    H241603   5.436   4.355   6.696
 2690TIP3   OH241604   5.465   4.371   7.287
 2690TIP3    H141605   5.563   4.380   7.286
 2690TIP3    H241606   5.448   4.381   7.383
 2691TIP3   OH241607   5.459   4.446   7.548
 2691TIP3    H141608   5.369   4.471   7.576
 2691TIP3    H241609   5.500   4.532   7.524
 2692TIP3   OH241610   3.902   4.279   7.887
 2692TIP3    H141611   3.984   4.258   7.935
 2692TIP3    H241612   3.846   4.200   7.907
 2693TIP3   OH241613   5.665   3.872   8.070
 2693TIP3    H141614   5.712   3.800   8.022
 2693TIP3    H241615   5.662   3.942   8.001
 2694TIP3   OH241616   5.428   4.061   6.754
 2694TIP3    H141617   5.464   4.010   6.831
 2694TIP3    H241618   5.369   3.997   6.711
 2695TIP3   OH241619   3.999   4.104   7.265
 2695TIP3    H141620   4.053   4.022   7.265
 2695TIP3    H241621   4.067   4.174   7.263
 2696TIP3   OH241622   3.839   4.416   7.318
 2696TIP3    H141623   3.901   4.389   7.248
 2696TIP3    H241624   3.880   4.499   7.345
 2697TIP3   OH241625   5.611   4.088   7.924
 2697TIP3    H141626   5.537   4.114   7.983
 2697TIP3    H241627   5.562   4.055   7.846
 2698TIP3   OH241628   3.869   4.045   6.737
 2698TIP3    H141629   3.779   4.022   6.762
 2698TIP3    H241630   3.859   4.070   6.645
 2699TIP3   OH241631   5.347   5.550   6.933
 2699TIP3    H141632   5.406   5.539   6.857
 2699TIP3    H241633   5.389   5.617   6.989
 2700TIP3   OH241634   3.856   3.897   7.544
 2700TIP3    H141635   3.794   3.871   7.614
 2700TIP3    H241636   3.808   3.964   7.493
 2701TIP3   OH241637   4.079   5.216   7.948
 2701TIP3    H141638   3.994   5.255   7.924
 2701TIP3    H241639   4.060   5.174   8.033
 2702TIP3   OH241640   4.362   5.362   7.613
 2702TIP3    H141641   4.357   5.454   7.579
 2702TIP3    H241642   4.459   5.348   7.605
 2703TIP3   OH241643   4.773   5.475   7.870
 2703TIP3    H141644   4.784   5.468   7.967
 2703TIP3    H241645   4.858   5.517   7.846
 2704TIP3   OH241646   4.993   5.634   7.831
 2704TIP3    H141647   5.076   5.588   7.811
 2704TIP3    H241648   5.018   5.689   7.908
 2705TIP3   OH241649   5.523   3.835   7.725
 2705TIP3    H141650   5.438   3.866   7.689
 2705TIP3    H241651   5.533   3.746   7.685
 2706TIP3   OH241652   4.097   5.669   7.579
 2706TIP3    H141653   4.018   5.711   7.541
 2706TIP3    H241654   4.091   5.702   7.670
 2707TIP3   OH241655   4.340   5.616   7.481
 2707TIP3    H141656   4.249   5.635   7.514
 2707TIP3    H241657   4.350   5.685   7.412
 2708TIP3   OH241658   4.800   5.584   7.426
 2708TIP3    H141659   4.720   5.632   7.403
 2708TIP3    H241660   4.847   5.653   7.478
 2709TIP3   OH241661   5.023   5.454   7.550
 2709TIP3    H141662   4.961   5.493   7.486
 2709TIP3    H241663   5.100   5.512   7.535
 2710TIP3   OH241664   5.288   5.615   7.526
 2710TIP3    H141665   5.304   5.706   7.495
 2710TIP3    H241666   5.315   5.567   7.445
 2711TIP3   OH241667   4.060   5.506   7.277
 2711TIP3    H141668   4.039   5.442   7.349
 2711TIP3    H241669   4.151   5.478   7.253
 2712TIP3   OH241670   4.282   5.418   7.154
 2712TIP3    H141671   4.270   5.321   7.164
 2712TIP3    H241672   4.371   5.425   7.196
 2713TIP3   OH241673   4.512   5.405   7.289
 2713TIP3    H141674   4.545   5.314   7.285
 2713TIP3    H241675   4.525   5.428   7.382
 2714TIP3   OH241676   4.811   3.947   7.152
 2714TIP3    H141677   4.727   3.908   7.186
 2714TIP3    H241678   4.849   3.869   7.110
 2715TIP3   OH241679   5.393   3.793   7.142
 2715TIP3    H141680   5.457   3.853   7.099
 2715TIP3    H241681   5.309   3.827   7.104
 2716TIP3   OH241682   5.551   3.936   6.967
 2716TIP3    H141683   5.608   3.867   6.927
 2716TIP3    H241684   5.617   4.006   6.990
 2717TIP3   OH241685   4.117   3.859   6.943
 2717TIP3    H141686   4.029   3.849   6.903
 2717TIP3    H241687   4.157   3.771   6.925
 2718TIP3   OH241688   4.545   3.828   6.924
 2718TIP3    H141689   4.610   3.859   6.860
 2718TIP3    H241690   4.592   3.840   7.008
 2719TIP3   OH241691   5.142   3.861   7.044
 2719TIP3    H141692   5.094   3.885   6.964
 2719TIP3    H241693   5.082   3.795   7.085
 2720TIP3   OH241694   5.241   3.861   6.612
 2720TIP3    H141695   5.167   3.874   6.550
 2720TIP3    H241696   5.210   3.784   6.665
 2721TIP3   OH241697   3.946   5.431   6.606
 2721TIP3    H141698   3.895   5.467   6.529
 2721TIP3    H241699   3.941   5.508   6.664
 2722TIP3   OH241700   4.690   4.097   6.607
 2722TIP3    H141701   4.731   4.037   6.670
 2722TIP3    H241702   4.705   4.184   6.649
 2723TIP3   OH241703   5.513   5.494   6.729
 2723TIP3    H141704   5.505   5.416   6.670
 2723TIP3    H241705   5.504   5.567   6.663
 2724TIP3   OH241706   4.070   3.927   7.863
 2724TIP3    H141707   4.019   3.845   7.874
 2724TIP3    H241708   4.145   3.911   7.926
 2725TIP3   OH241709   4.270   3.867   8.054
 2725TIP3    H141710   4.350   3.817   8.029
 2725TIP3    H241711   4.224   3.801   8.109
 2726TIP3   OH241712   5.127   3.780   8.109
 2726TIP3    H141713   5.141   3.738   8.197
 2726TIP3    H241714   5.214   3.763   8.066
 2727TIP3   OH241715   5.458   5.388   7.923
 2727TIP3    H141716   5.389   5.382   7.853
 2727TIP3    H241717   5.436   5.473   7.964
 2728TIP3   OH241718   6.915   4.797   6.893
 2728TIP3    H141719   6.919   4.895   6.880
 2728TIP3    H241720   6.822   4.786   6.912
 2729TIP3   OH241721   6.813   4.664   7.240
 2729TIP3    H141722   6.825   4.623   7.328
 2729TIP3    H241723   6.732   4.621   7.206
 2730TIP3   OH241724   5.998   4.666   7.408
 2730TIP3    H141725   5.993   4.588   7.467
 2730TIP3    H241726   6.082   4.705   7.440
 2731TIP3   OH241727   7.124   4.997   7.113
 2731TIP3    H141728   7.126   4.919   7.172
 2731TIP3    H241729   7.135   5.069   7.176
 2732TIP3   OH241730   6.109   5.134   7.230
 2732TIP3    H141731   6.083   5.040   7.221
 2732TIP3    H241732   6.204   5.123   7.215
 2733TIP3   OH241733   5.796   4.457   6.799
 2733TIP3    H141734   5.738   4.525   6.834
 2733TIP3    H241735   5.755   4.444   6.711
 2734TIP3   OH241736   5.821   4.683   7.064
 2734TIP3    H141737   5.861   4.594   7.078
 2734TIP3    H241738   5.889   4.731   7.013
 2735TIP3   OH241739   6.874   5.538   7.082
 2735TIP3    H141740   6.942   5.475   7.046
 2735TIP3    H241741   6.849   5.488   7.160
 2736TIP3   OH241742   6.597   4.939   7.364
 2736TIP3    H141743   6.622   4.910   7.276
 2736TIP3    H241744   6.685   4.958   7.404
 2737TIP3   OH241745   7.480   4.084   7.358
 2737TIP3    H141746   7.497   4.137   7.439
 2737TIP3    H241747   7.555   4.111   7.304
 2738TIP3   OH241748   6.987   4.393   7.348
 2738TIP3    H141749   6.988   4.298   7.369
 2738TIP3    H241750   6.987   4.386   7.250
 2739TIP3   OH241751   6.257   4.168   7.045
 2739TIP3    H141752   6.274   4.257   7.008
 2739TIP3    H241753   6.201   4.133   6.973
 2740TIP3   OH241754   7.015   4.203   6.914
 2740TIP3    H141755   7.070   4.174   6.991
 2740TIP3    H241756   7.070   4.275   6.878
 2741TIP3   OH241757   5.911   4.435   7.135
 2741TIP3    H141758   5.982   4.398   7.191
 2741TIP3    H241759   5.939   4.400   7.048
 2742TIP3   OH241760   6.393   4.586   7.095
 2742TIP3    H141761   6.477   4.540   7.116
 2742TIP3    H241762   6.339   4.511   7.061
 2743TIP3   OH241763   7.494   4.229   7.591
 2743TIP3    H141764   7.461   4.315   7.557
 2743TIP3    H241765   7.521   4.255   7.680
 2744TIP3   OH241766   6.176   4.097   7.473
 2744TIP3    H141767   6.127   4.141   7.400
 2744TIP3    H241768   6.115   4.114   7.547
 2745TIP3   OH241769   6.853   5.069   6.829
 2745TIP3    H141770   6.833   5.062   6.734
 2745TIP3    H241771   6.850   5.165   6.841
 2746TIP3   OH241772   6.364   4.851   7.468
 2746TIP3    H141773   6.306   4.926   7.495
 2746TIP3    H241774   6.443   4.897   7.432
 2747TIP3   OH241775   7.206   4.167   7.102
 2747TIP3    H141776   7.203   4.089   7.159
 2747TIP3    H241777   7.287   4.210   7.135
 2748TIP3   OH241778   6.112   4.277   7.266
 2748TIP3    H141779   6.173   4.342   7.308
 2748TIP3    H241780   6.165   4.245   7.190
 2749TIP3   OH241781   6.235   5.065   7.548
 2749TIP3    H141782   6.219   5.144   7.494
 2749TIP3    H241783   6.150   5.061   7.597
 2750TIP3   OH241784   5.845   5.007   6.632
 2750TIP3    H141785   5.851   5.081   6.571
 2750TIP3    H241786   5.855   5.060   6.714
 2751TIP3   OH241787   7.219   5.185   7.341
 2751TIP3    H141788   7.123   5.202   7.355
 2751TIP3    H241789   7.239   5.263   7.287
 2752TIP3   OH241790   7.200   4.016   7.444
 2752TIP3    H141791   7.129   4.048   7.384
 2752TIP3    H241792   7.282   4.045   7.401
 2753TIP3   OH241793   6.491   3.815   7.209
 2753TIP3    H141794   6.456   3.724   7.208
 2753TIP3    H241795   6.408   3.865   7.231
 2754TIP3   OH241796   7.055   5.367   6.986
 2754TIP3    H141797   7.072   5.285   6.935
 2754TIP3    H241798   7.128   5.424   6.953
 2755TIP3   OH241799   7.148   5.150   6.824
 2755TIP3    H141800   7.145   5.082   6.753
 2755TIP3    H241801   7.129   5.096   6.901
 2756TIP3   OH241802   7.301   5.014   7.700
 2756TIP3    H141803   7.312   4.943   7.632
 2756TIP3    H241804   7.319   5.092   7.645
 2757TIP3   OH241805   6.760   4.712   6.629
 2757TIP3    H141806   6.685   4.774   6.627
 2757TIP3    H241807   6.837   4.771   6.635
 2758TIP3   OH241808   7.522   4.669   7.482
 2758TIP3    H141809   7.449   4.733   7.476
 2758TIP3    H241810   7.583   4.703   7.413
 2759TIP3   OH241811   7.112   4.655   6.760
 2759TIP3    H141812   7.042   4.700   6.813
 2759TIP3    H241813   7.181   4.635   6.826
 2760TIP3   OH241814   7.100   4.558   7.683
 2760TIP3    H141815   7.101   4.651   7.710
 2760TIP3    H241816   7.035   4.564   7.611
 2761TIP3   OH241817   6.286   4.772   6.948
 2761TIP3    H141818   6.252   4.734   6.864
 2761TIP3    H241819   6.342   4.699   6.983
 2762TIP3   OH241820   6.403   5.105   7.227
 2762TIP3    H141821   6.422   5.094   7.133
 2762TIP3    H241822   6.471   5.053   7.272
 2763TIP3   OH241823   6.280   4.644   7.332
 2763TIP3    H141824   6.324   4.645   7.244
 2763TIP3    H241825   6.323   4.719   7.378
 2764TIP3   OH241826   6.965   5.231   7.394
 2764TIP3    H141827   6.928   5.288   7.464
 2764TIP3    H241828   6.942   5.142   7.426
 2765TIP3   OH241829   6.395   5.101   7.758
 2765TIP3    H141830   6.325   5.151   7.805
 2765TIP3    H241831   6.349   5.085   7.672
 2766TIP3   OH241832   6.108   4.726   7.665
 2766TIP3    H141833   6.118   4.807   7.716
 2766TIP3    H241834   6.028   4.691   7.706
 2767TIP3   OH241835   6.782   5.397   6.844
 2767TIP3    H141836   6.811   5.443   6.924
 2767TIP3    H241837   6.719   5.459   6.805
 2768TIP3   OH241838   6.220   5.275   7.873
 2768TIP3    H141839   6.208   5.314   7.784
 2768TIP3    H241840   6.127   5.252   7.894
 2769TIP3   OH241841   7.373   3.809   6.593
 2769TIP3    H141842   7.275   3.824   6.585
 2769TIP3    H241843   7.405   3.856   6.514
 2770TIP3   OH241844   6.157   4.672   6.727
 2770TIP3    H141845   6.103   4.747   6.700
 2770TIP3    H241846   6.097   4.597   6.717
 2771TIP3   OH241847   5.797   4.939   7.606
 2771TIP3    H141848   5.749   4.923   7.523
 2771TIP3    H241849   5.839   4.852   7.618
 2772TIP3   OH241850   5.771   5.209   7.274
 2772TIP3    H141851   5.849   5.156   7.298
 2772TIP3    H241852   5.781   5.286   7.331
 2773TIP3   OH241853   7.565   5.280   7.859
 2773TIP3    H141854   7.555   5.183   7.857
 2773TIP3    H241855   7.481   5.304   7.905
 2774TIP3   OH241856   6.653   5.217   7.760
 2774TIP3    H141857   6.671   5.289   7.824
 2774TIP3    H241858   6.558   5.196   7.772
 2775TIP3   OH241859   6.691   5.622   6.664
 2775TIP3    H141860   6.739   5.633   6.578
 2775TIP3    H241861   6.726   5.695   6.717
 2776TIP3   OH241862   6.083   5.471   6.916
 2776TIP3    H141863   6.121   5.454   7.006
 2776TIP3    H241864   5.990   5.453   6.933
 2777TIP3   OH241865   6.998   5.518   6.709
 2777TIP3    H141866   6.917   5.506   6.658
 2777TIP3    H241867   7.003   5.433   6.756
 2778TIP3   OH241868   7.272   4.405   7.894
 2778TIP3    H141869   7.220   4.445   7.821
 2778TIP3    H241870   7.278   4.311   7.867
 2779TIP3   OH241871   6.017   5.065   7.692
 2779TIP3    H141872   6.021   5.029   7.784
 2779TIP3    H241873   5.929   5.033   7.663
 2780TIP3   OH241874   6.277   3.931   7.294
 2780TIP3    H141875   6.196   3.958   7.248
 2780TIP3    H241876   6.264   3.977   7.379
 2781TIP3   OH241877   6.778   3.893   7.611
 2781TIP3    H141878   6.814   3.846   7.690
 2781TIP3    H241879   6.683   3.896   7.633
 2782TIP3   OH241880   7.040   4.287   7.712
 2782TIP3    H141881   6.991   4.251   7.790
 2782TIP3    H241882   7.034   4.382   7.730
 2783TIP3   OH241883   7.152   4.757   6.370
 2783TIP3    H141884   7.185   4.696   6.303
 2783TIP3    H241885   7.230   4.817   6.380
 2784TIP3   OH241886   6.298   4.399   7.423
 2784TIP3    H141887   6.219   4.399   7.481
 2784TIP3    H241888   6.292   4.491   7.388
 2785TIP3   OH241889   6.266   4.406   6.939
 2785TIP3    H141890   6.174   4.400   6.907
 2785TIP3    H241891   6.316   4.385   6.856
 2786TIP3   OH241892   6.815   4.492   6.783
 2786TIP3    H141893   6.795   4.576   6.737
 2786TIP3    H241894   6.898   4.467   6.736
 2787TIP3   OH241895   6.730   4.508   7.946
 2787TIP3    H141896   6.699   4.423   7.982
 2787TIP3    H241897   6.815   4.515   7.992
 2788TIP3   OH241898   6.975   4.445   7.065
 2788TIP3    H141899   6.938   4.527   7.030
 2788TIP3    H241900   6.937   4.379   7.005
 2789TIP3   OH241901   6.043   4.413   7.551
 2789TIP3    H141902   6.075   4.451   7.634
 2789TIP3    H241903   6.011   4.326   7.584
 2790TIP3   OH241904   5.735   4.131   7.015
 2790TIP3    H141905   5.801   4.144   7.085
 2790TIP3    H241906   5.773   4.174   6.938
 2791TIP3   OH241907   5.834   4.214   6.530
 2791TIP3    H141908   5.897   4.258   6.471
 2791TIP3    H241909   5.766   4.284   6.539
 2792TIP3   OH241910   6.849   4.578   7.506
 2792TIP3    H141911   6.902   4.510   7.459
 2792TIP3    H241912   6.793   4.524   7.566
 2793TIP3   OH241913   6.569   4.163   7.013
 2793TIP3    H141914   6.474   4.161   7.033
 2793TIP3    H241915   6.608   4.113   7.087
 2794TIP3   OH241916   6.001   4.331   6.906
 2794TIP3    H141917   5.930   4.368   6.848
 2794TIP3    H241918   6.019   4.245   6.863
 2795TIP3   OH241919   6.361   4.356   6.698
 2795TIP3    H141920   6.459   4.354   6.699
 2795TIP3    H241921   6.341   4.389   6.610
 2796TIP3   OH241922   6.976   4.100   7.316
 2796TIP3    H141923   6.903   4.092   7.380
 2796TIP3    H241924   6.956   4.032   7.249
 2797TIP3   OH241925   6.237   4.472   6.411
 2797TIP3    H141926   6.142   4.486   6.401
 2797TIP3    H241927   6.264   4.466   6.318
 2798TIP3   OH241928   7.276   5.668   7.990
 2798TIP3    H141929   7.295   5.707   7.902
 2798TIP3    H241930   7.359   5.691   8.036
 2799TIP3   OH241931   6.051   4.914   7.923
 2799TIP3    H141932   6.124   4.927   7.988
 2799TIP3    H241933   5.974   4.897   7.982
 2800TIP3   OH241934   6.625   4.470   7.159
 2800TIP3    H141935   6.697   4.426   7.113
 2800TIP3    H241936   6.629   4.430   7.247
 2801TIP3   OH241937   6.097   4.081   6.844
 2801TIP3    H141938   6.054   4.001   6.882
 2801TIP3    H241939   6.165   4.041   6.788
 2802TIP3   OH241940   6.542   4.268   7.430
 2802TIP3    H141941   6.461   4.323   7.425
 2802TIP3    H241942   6.602   4.320   7.486
 2803TIP3   OH241943   6.569   4.916   6.637
 2803TIP3    H141944   6.494   4.862   6.605
 2803TIP3    H241945   6.537   4.947   6.725
 2804TIP3   OH241946   7.325   4.864   7.484
 2804TIP3    H141947   7.374   4.914   7.414
 2804TIP3    H241948   7.238   4.859   7.441
 2805TIP3   OH241949   6.700   4.950   7.728
 2805TIP3    H141950   6.675   4.924   7.817
 2805TIP3    H241951   6.680   5.045   7.731
 2806TIP3   OH241952   7.018   4.443   6.600
 2806TIP3    H141953   7.082   4.400   6.658
 2806TIP3    H241954   7.069   4.519   6.568
 2807TIP3   OH241955   6.109   4.858   7.186
 2807TIP3    H141956   6.184   4.832   7.129
 2807TIP3    H241957   6.102   4.782   7.246
 2808TIP3   OH241958   6.787   5.050   6.556
 2808TIP3    H141959   6.750   5.141   6.566
 2808TIP3    H241960   6.708   4.995   6.573
 2809TIP3   OH241961   5.795   4.684   7.721
 2809TIP3    H141962   5.789   4.632   7.804
 2809TIP3    H241963   5.735   4.633   7.663
 2810TIP3   OH241964   6.502   4.648   7.888
 2810TIP3    H141965   6.458   4.586   7.830
 2810TIP3    H241966   6.594   4.611   7.888
 2811TIP3   OH241967   6.986   5.178   7.754
 2811TIP3    H141968   6.914   5.204   7.696
 2811TIP3    H241969   6.956   5.222   7.836
 2812TIP3   OH241970   7.548   4.383   6.573
 2812TIP3    H141971   7.462   4.399   6.533
 2812TIP3    H241972   7.569   4.466   6.620
 2813TIP3   OH241973   7.549   4.998   7.817
 2813TIP3    H141974   7.457   5.007   7.783
 2813TIP3    H241975   7.598   4.987   7.733
 2814TIP3   OH241976   7.381   5.244   6.596
 2814TIP3    H141977   7.349   5.153   6.603
 2814TIP3    H241978   7.420   5.247   6.507
 2815TIP3   OH241979   7.083   4.781   7.300
 2815TIP3    H141980   6.995   4.762   7.265
 2815TIP3    H241981   7.136   4.712   7.256
 2816TIP3   OH241982   6.335   5.211   6.917
 2816TIP3    H141983   6.386   5.283   6.875
 2816TIP3    H241984   6.247   5.225   6.880
 2817TIP3   OH241985   6.469   4.971   6.890
 2817TIP3    H141986   6.426   5.059   6.896
 2817TIP3    H241987   6.401   4.910   6.925
 2818TIP3   OH241988   6.520   5.393   7.566
 2818TIP3    H141989   6.589   5.452   7.530
 2818TIP3    H241990   6.571   5.345   7.635
 2819TIP3   OH241991   6.357   5.477   6.819
 2819TIP3    H141992   6.266   5.482   6.854
 2819TIP3    H241993   6.391   5.567   6.838
 2820TIP3   OH241994   6.838   4.977   7.488
 2820TIP3    H141995   6.801   4.951   7.576
 2820TIP3    H241996   6.906   4.909   7.472
 2821TIP3   OH241997   7.073   5.101   6.400
 2821TIP3    H141998   7.117   5.020   6.429
 2821TIP3    H241999   7.000   5.106   6.463
 2822TIP3   OH242000   7.162   5.448   7.729
 2822TIP3    H142001   7.076   5.407   7.708
 2822TIP3    H242002   7.173   5.510   7.653
 2823TIP3   OH242003   7.561   5.546   6.415
 2823TIP3    H142004   7.629   5.606   6.450
 2823TIP3    H242005   7.481   5.588   6.452
 2824TIP3   OH242006   5.993   4.181   7.677
 2824TIP3    H142007   5.920   4.219   7.730
 2824TIP3    H242008   5.986   4.088   7.706
 2825TIP3   OH242009   7.169   4.936   6.632
 2825TIP3    H142010   7.150   4.844   6.655
 2825TIP3    H242011   7.247   4.927   6.573
 2826TIP3   OH242012   5.923   5.339   7.497
 2826TIP3    H142013   5.993   5.274   7.516
 2826TIP3    H242014   5.915   5.383   7.582
 2827TIP3   OH242015   6.364   5.148   6.491
 2827TIP3    H142016   6.452   5.120   6.518
 2827TIP3    H242017   6.368   5.243   6.518
 2828TIP3   OH242018   6.829   4.162   7.570
 2828TIP3    H142019   6.914   4.185   7.613
 2828TIP3    H242020   6.808   4.074   7.607
 2829TIP3   OH242021   6.885   4.108   6.697
 2829TIP3    H142022   6.926   4.144   6.617
 2829TIP3    H242023   6.959   4.105   6.760
 2830TIP3   OH242024   6.711   5.317   6.559
 2830TIP3    H142025   6.617   5.346   6.557
 2830TIP3    H242026   6.755   5.402   6.545
 2831TIP3   OH242027   6.623   4.312   6.716
 2831TIP3    H142028   6.696   4.374   6.737
 2831TIP3    H242029   6.616   4.262   6.799
 2832TIP3   OH242030   6.712   4.412   7.683
 2832TIP3    H142031   6.718   4.432   7.779
 2832TIP3    H242032   6.752   4.323   7.673
 2833TIP3   OH242033   6.689   3.973   6.812
 2833TIP3    H142034   6.667   4.032   6.886
 2833TIP3    H242035   6.772   4.017   6.779
 2834TIP3   OH242036   6.428   5.386   6.577
 2834TIP3    H142037   6.446   5.469   6.526
 2834TIP3    H242038   6.386   5.425   6.656
 2835TIP3   OH242039   7.291   4.161   7.767
 2835TIP3    H142040   7.196   4.166   7.745
 2835TIP3    H242041   7.333   4.171   7.680
 2836TIP3   OH242042   7.202   4.556   7.161
 2836TIP3    H142043   7.123   4.500   7.145
 2836TIP3    H242044   7.256   4.498   7.219
 2837TIP3   OH242045   5.945   4.396   6.312
 2837TIP3    H142046   5.991   4.462   6.256
 2837TIP3    H242047   5.853   4.416   6.289
 2838TIP3   OH242048   7.250   5.459   7.311
 2838TIP3    H142049   7.256   5.520   7.236
 2838TIP3    H242050   7.344   5.453   7.336
 2839TIP3   OH242051   6.016   3.878   7.230
 2839TIP3    H142052   6.012   3.869   7.132
 2839TIP3    H242053   5.992   3.786   7.256
 2840TIP3   OH242054   5.848   5.248   6.749
 2840TIP3    H142055   5.795   5.300   6.811
 2840TIP3    H242056   5.909   5.317   6.718
 2841TIP3   OH242057   5.814   5.569   7.957
 2841TIP3    H142058   5.879   5.556   8.031
 2841TIP3    H242059   5.783   5.477   7.947
 2842TIP3   OH242060   6.330   5.401   8.136
 2842TIP3    H142061   6.418   5.361   8.137
 2842TIP3    H242062   6.288   5.354   8.062
 2843TIP3   OH242063   6.921   5.299   7.988
 2843TIP3    H142064   6.900   5.208   8.021
 2843TIP3    H242065   7.012   5.306   8.025
 2844TIP3   OH242066   7.219   5.314   6.233
 2844TIP3    H142067   7.172   5.260   6.298
 2844TIP3    H242068   7.178   5.403   6.239
 2845TIP3   OH242069   5.799   4.909   8.044
 2845TIP3    H142070   5.754   4.824   8.053
 2845TIP3    H242071   5.757   4.945   7.962
 2846TIP3   OH242072   6.486   4.908   7.939
 2846TIP3    H142073   6.456   4.965   7.865
 2846TIP3    H242074   6.496   4.817   7.899
 2847TIP3   OH242075   7.055   4.899   7.741
 2847TIP3    H142076   7.144   4.942   7.745
 2847TIP3    H242077   7.000   4.979   7.754
 2848TIP3   OH242078   5.920   4.615   7.991
 2848TIP3    H142079   5.998   4.559   7.988
 2848TIP3    H242080   5.939   4.670   8.070
 2849TIP3   OH242081   6.372   4.761   6.522
 2849TIP3    H142082   6.323   4.707   6.587
 2849TIP3    H242083   6.324   4.740   6.441
 2850TIP3   OH242084   6.287   4.530   7.675
 2850TIP3    H142085   6.236   4.614   7.675
 2850TIP3    H242086   6.364   4.562   7.624
 2851TIP3   OH242087   6.833   4.809   8.063
 2851TIP3    H142088   6.890   4.760   8.001
 2851TIP3    H242089   6.806   4.739   8.126
 2852TIP3   OH242090   6.404   4.313   7.804
 2852TIP3    H142091   6.414   4.246   7.733
 2852TIP3    H242092   6.380   4.392   7.751
 2853TIP3   OH242093   6.415   4.106   7.588
 2853TIP3    H142094   6.472   4.142   7.516
 2853TIP3    H242095   6.327   4.114   7.545
 2854TIP3   OH242096   6.520   4.675   7.582
 2854TIP3    H142097   6.608   4.711   7.558
 2854TIP3    H242098   6.462   4.750   7.558
 2855TIP3   OH242099   6.926   4.449   8.117
 2855TIP3    H142100   6.941   4.364   8.165
 2855TIP3    H242101   7.016   4.473   8.092
 2856TIP3   OH242102   7.118   4.756   7.962
 2856TIP3    H142103   7.088   4.798   7.879
 2856TIP3    H242104   7.211   4.735   7.938
 2857TIP3   OH242105   6.215   4.373   8.016
 2857TIP3    H142106   6.138   4.319   7.984
 2857TIP3    H242107   6.269   4.378   7.936
 2858TIP3   OH242108   6.493   3.855   7.608
 2858TIP3    H142109   6.460   3.947   7.611
 2858TIP3    H242110   6.415   3.809   7.573
 2859TIP3   OH242111   6.597   4.275   8.024
 2859TIP3    H142112   6.523   4.265   8.088
 2859TIP3    H242113   6.545   4.267   7.941
 2860TIP3   OH242114   6.873   4.216   7.905
 2860TIP3    H142115   6.779   4.212   7.930
 2860TIP3    H242116   6.909   4.160   7.977
 2861TIP3   OH242117   6.960   4.039   8.080
 2861TIP3    H142118   7.009   3.956   8.096
 2861TIP3    H242119   6.980   4.095   8.159
 2862TIP3   OH242120   6.007   4.197   8.000
 2862TIP3    H142121   5.997   4.113   7.952
 2862TIP3    H242122   5.996   4.167   8.094
 2863TIP3   OH242123   6.456   3.799   7.869
 2863TIP3    H142124   6.536   3.746   7.885
 2863TIP3    H242125   6.462   3.808   7.772
 2864TIP3   OH242126   6.474   3.911   8.149
 2864TIP3    H142127   6.457   3.872   8.060
 2864TIP3    H242128   6.466   4.006   8.127
 2865TIP3   OH242129   6.467   5.608   6.443
 2865TIP3    H142130   6.541   5.668   6.450
 2865TIP3    H242131   6.402   5.663   6.399
 2866TIP3   OH242132   5.703   5.617   6.887
 2866TIP3    H142133   5.634   5.566   6.841
 2866TIP3    H242134   5.740   5.552   6.949
 2867TIP3   OH242135   5.811   5.433   7.063
 2867TIP3    H142136   5.749   5.365   7.095
 2867TIP3    H242137   5.857   5.456   7.146
 2868TIP3   OH242138   7.526   5.526   7.316
 2868TIP3    H142139   7.571   5.553   7.398
 2868TIP3    H242140   7.595   5.535   7.248
 2869TIP3   OH242141   7.502   5.465   7.648
 2869TIP3    H142142   7.468   5.392   7.593
 2869TIP3    H242143   7.523   5.417   7.731
 2870TIP3   OH242144   7.376   5.052   8.127
 2870TIP3    H142145   7.288   5.061   8.169
 2870TIP3    H242146   7.414   5.140   8.151
 2871TIP3   OH242147   7.522   4.674   6.835
 2871TIP3    H142148   7.437   4.640   6.872
 2871TIP3    H242149   7.564   4.716   6.912
 2872TIP3   OH242150   7.476   4.974   7.304
 2872TIP3    H142151   7.547   4.908   7.288
 2872TIP3    H242152   7.522   5.059   7.296
 2873TIP3   OH242153   7.354   5.254   7.563
 2873TIP3    H142154   7.283   5.295   7.614
 2873TIP3    H242155   7.308   5.232   7.478
 2874TIP3   OH242156   7.311   4.536   6.916
 2874TIP3    H142157   7.267   4.450   6.904
 2874TIP3    H242158   7.285   4.558   7.009
 2875TIP3   OH242159   5.790   4.782   7.309
 2875TIP3    H142160   5.795   4.747   7.217
 2875TIP3    H242161   5.879   4.754   7.342
 2876TIP3   OH242162   7.398   4.742   7.872
 2876TIP3    H142163   7.449   4.658   7.867
 2876TIP3    H242164   7.464   4.807   7.841
 2877TIP3   OH242165   7.516   4.494   7.910
 2877TIP3    H142166   7.423   4.463   7.901
 2877TIP3    H242167   7.567   4.411   7.920
 2878TIP3   OH242168   7.220   4.313   6.767
 2878TIP3    H142169   7.263   4.229   6.793
 2878TIP3    H242170   7.291   4.344   6.710
 2879TIP3   OH242171   7.347   4.383   7.300
 2879TIP3    H142172   7.445   4.393   7.307
 2879TIP3    H242173   7.322   4.380   7.394
 2880TIP3   OH242174   7.354   4.451   7.570
 2880TIP3    H142175   7.262   4.472   7.594
 2880TIP3    H242176   7.391   4.538   7.542
 2881TIP3   OH242177   5.785   4.279   7.897
 2881TIP3    H142178   5.865   4.250   7.946
 2881TIP3    H242179   5.723   4.204   7.913
 2882TIP3   OH242180   7.545   3.877   8.074
 2882TIP3    H142181   7.595   3.807   8.026
 2882TIP3    H242182   7.543   3.949   8.007
 2883TIP3   OH242183   7.367   4.099   6.770
 2883TIP3    H142184   7.387   4.044   6.849
 2883TIP3    H242185   7.308   4.040   6.722
 2884TIP3   OH242186   5.882   4.108   7.289
 2884TIP3    H142187   5.932   4.024   7.283
 2884TIP3    H242188   5.952   4.176   7.281
 2885TIP3   OH242189   5.724   4.418   7.320
 2885TIP3    H142190   5.785   4.389   7.249
 2885TIP3    H242191   5.757   4.507   7.335
 2886TIP3   OH242192   7.490   4.093   7.930
 2886TIP3    H142193   7.421   4.113   7.997
 2886TIP3    H242194   7.434   4.066   7.854
 2887TIP3   OH242195   7.523   4.025   6.412
 2887TIP3    H142196   7.437   4.029   6.367
 2887TIP3    H242197   7.553   4.117   6.411
 2888TIP3   OH242198   5.716   4.029   6.694
 2888TIP3    H142199   5.632   4.072   6.715
 2888TIP3    H242200   5.758   4.093   6.634
 2889TIP3   OH242201   7.234   5.551   6.919
 2889TIP3    H142202   7.307   5.540   6.854
 2889TIP3    H242203   7.275   5.601   6.992
 2890TIP3   OH242204   5.733   3.899   7.544
 2890TIP3    H142205   5.664   3.870   7.607
 2890TIP3    H242206   5.689   3.972   7.497
 2891TIP3   OH242207   5.962   5.213   7.948
 2891TIP3    H142208   5.874   5.244   7.922
 2891TIP3    H242209   5.945   5.164   8.029
 2892TIP3   OH242210   6.253   5.362   7.614
 2892TIP3    H142211   6.251   5.454   7.583
 2892TIP3    H242212   6.350   5.347   7.611
 2893TIP3   OH242213   6.663   5.477   7.868
 2893TIP3    H142214   6.671   5.473   7.965
 2893TIP3    H242215   6.750   5.513   7.842
 2894TIP3   OH242216   6.885   5.642   7.826
 2894TIP3    H142217   6.967   5.594   7.808
 2894TIP3    H242218   6.909   5.694   7.906
 2895TIP3   OH242219   7.407   3.836   7.735
 2895TIP3    H142220   7.330   3.871   7.688
 2895TIP3    H242221   7.413   3.745   7.699
 2896TIP3   OH242222   5.991   5.676   7.581
 2896TIP3    H142223   5.904   5.709   7.550
 2896TIP3    H242224   5.986   5.707   7.673
 2897TIP3   OH242225   6.232   5.623   7.477
 2897TIP3    H142226   6.138   5.641   7.501
 2897TIP3    H242227   6.251   5.696   7.415
 2898TIP3   OH242228   6.697   5.575   7.415
 2898TIP3    H142229   6.641   5.615   7.346
 2898TIP3    H242230   6.724   5.655   7.466
 2899TIP3   OH242231   6.911   5.458   7.552
 2899TIP3    H142232   6.843   5.494   7.492
 2899TIP3    H242233   6.986   5.517   7.529
 2900TIP3   OH242234   7.171   5.614   7.520
 2900TIP3    H142235   7.186   5.706   7.488
 2900TIP3    H242236   7.205   5.564   7.442
 2901TIP3   OH242237   5.955   5.503   7.282
 2901TIP3    H142238   5.935   5.444   7.358
 2901TIP3    H242239   6.046   5.476   7.259
 2902TIP3   OH242240   6.178   5.417   7.162
 2902TIP3    H142241   6.157   5.324   7.183
 2902TIP3    H242242   6.266   5.424   7.206
 2903TIP3   OH242243   6.407   5.410   7.294
 2903TIP3    H142244   6.438   5.319   7.282
 2903TIP3    H242245   6.423   5.423   7.389
 2904TIP3   OH242246   6.698   3.966   7.167
 2904TIP3    H142247   6.623   3.905   7.188
 2904TIP3    H242248   6.755   3.913   7.110
 2905TIP3   OH242249   7.278   3.807   7.149
 2905TIP3    H142250   7.355   3.855   7.110
 2905TIP3    H242251   7.205   3.851   7.101
 2906TIP3   OH242252   7.445   3.937   6.982
 2906TIP3    H142253   7.496   3.865   6.936
 2906TIP3    H242254   7.512   4.007   6.995
 2907TIP3   OH242255   5.979   3.857   6.959
 2907TIP3    H142256   5.888   3.843   6.928
 2907TIP3    H242257   6.022   3.771   6.936
 2908TIP3   OH242258   5.834   3.835   6.528
 2908TIP3    H142259   5.920   3.877   6.520
 2908TIP3    H242260   5.794   3.880   6.606
 2909TIP3   OH242261   6.429   3.800   6.914
 2909TIP3    H142262   6.489   3.825   6.843
 2909TIP3    H242263   6.477   3.829   6.992
 2910TIP3   OH242264   7.007   3.867   7.060
 2910TIP3    H142265   7.012   3.842   6.966
 2910TIP3    H242266   6.957   3.790   7.096
 2911TIP3   OH242267   7.106   3.831   6.584
 2911TIP3    H142268   7.075   3.796   6.498
 2911TIP3    H242269   7.073   3.762   6.645
 2912TIP3   OH242270   5.874   5.480   6.608
 2912TIP3    H142271   5.793   5.449   6.566
 2912TIP3    H242272   5.878   5.573   6.579
 2913TIP3   OH242273   6.557   4.072   6.596
 2913TIP3    H142274   6.586   4.024   6.676
 2913TIP3    H242275   6.580   4.163   6.623
 2914TIP3   OH242276   6.818   5.561   6.447
 2914TIP3    H142277   6.886   5.595   6.386
 2914TIP3    H242278   6.755   5.529   6.380
 2915TIP3   OH242279   7.407   5.473   6.732
 2915TIP3    H142280   7.386   5.395   6.675
 2915TIP3    H242281   7.413   5.546   6.667
 2916TIP3   OH242282   5.955   3.923   7.865
 2916TIP3    H142283   5.906   3.840   7.880
 2916TIP3    H242284   6.034   3.910   7.923
 2917TIP3   OH242285   6.157   3.864   8.055
 2917TIP3    H142286   6.236   3.814   8.029
 2917TIP3    H242287   6.109   3.796   8.106
 2918TIP3   OH242288   7.010   3.773   8.102
 2918TIP3    H142289   7.026   3.732   8.190
 2918TIP3    H242290   7.095   3.753   8.056
 2919TIP3   OH242291   7.337   5.397   7.930
 2919TIP3    H142292   7.262   5.391   7.867
 2919TIP3    H242293   7.332   5.490   7.957
 2920TIP3   OH242294   8.764   4.773   6.916
 2920TIP3    H142295   8.783   4.863   6.948
 2920TIP3    H242296   8.703   4.793   6.842
 2921TIP3   OH242297   8.672   4.668   7.252
 2921TIP3    H142298   8.679   4.627   7.340
 2921TIP3    H242299   8.591   4.629   7.212
 2922TIP3   OH242300   7.884   4.668   7.399
 2922TIP3    H142301   7.878   4.592   7.459
 2922TIP3    H242302   7.966   4.709   7.432
 2923TIP3   OH242303   9.035   5.010   7.102
 2923TIP3    H142304   9.084   4.944   7.152
 2923TIP3    H242305   9.036   5.088   7.162
 2924TIP3   OH242306   7.981   5.137   7.238
 2924TIP3    H142307   7.955   5.044   7.223
 2924TIP3    H242308   8.077   5.124   7.226
 2925TIP3   OH242309   7.673   4.449   6.805
 2925TIP3    H142310   7.635   4.539   6.816
 2925TIP3    H242311   7.597   4.394   6.827
 2926TIP3   OH242312   7.750   4.697   7.043
 2926TIP3    H142313   7.769   4.607   7.077
 2926TIP3    H242314   7.799   4.700   6.960
 2927TIP3   OH242315   8.755   5.537   7.108
 2927TIP3    H142316   8.817   5.472   7.067
 2927TIP3    H242317   8.737   5.491   7.192
 2928TIP3   OH242318   8.487   4.950   7.342
 2928TIP3    H142319   8.510   4.931   7.250
 2928TIP3    H242320   8.576   4.973   7.378
 2929TIP3   OH242321   9.348   4.139   7.418
 2929TIP3    H142322   9.362   4.234   7.430
 2929TIP3    H242323   9.424   4.121   7.359
 2930TIP3   OH242324   8.830   4.395   7.363
 2930TIP3    H142325   8.857   4.303   7.376
 2930TIP3    H242326   8.802   4.394   7.270
 2931TIP3   OH242327   8.131   4.178   7.039
 2931TIP3    H142328   8.155   4.258   6.988
 2931TIP3    H242329   8.087   4.128   6.967
 2932TIP3   OH242330   8.917   4.193   6.899
 2932TIP3    H142331   8.959   4.162   6.982
 2932TIP3    H242332   8.980   4.261   6.872
 2933TIP3   OH242333   7.793   4.451   7.136
 2933TIP3    H142334   7.863   4.418   7.196
 2933TIP3    H242335   7.817   4.403   7.054
 2934TIP3   OH242336   8.280   4.598   7.083
 2934TIP3    H142337   8.371   4.565   7.099
 2934TIP3    H242338   8.251   4.531   7.019
 2935TIP3   OH242339   8.038   4.093   7.469
 2935TIP3    H142340   8.001   4.144   7.394
 2935TIP3    H242341   7.976   4.117   7.541
 2936TIP3   OH242342   8.715   5.054   6.831
 2936TIP3    H142343   8.649   5.054   6.761
 2936TIP3    H242344   8.700   5.141   6.872
 2937TIP3   OH242345   8.260   4.852   7.441
 2937TIP3    H142346   8.199   4.925   7.468
 2937TIP3    H242347   8.338   4.903   7.410
 2938TIP3   OH242348   9.087   4.181   7.150
 2938TIP3    H142349   9.042   4.104   7.190
 2938TIP3    H242350   9.110   4.236   7.229
 2939TIP3   OH242351   7.998   4.284   7.269
 2939TIP3    H142352   8.060   4.349   7.310
 2939TIP3    H242353   8.049   4.252   7.192
 2940TIP3   OH242354   8.124   5.064   7.547
 2940TIP3    H142355   8.111   5.149   7.503
 2940TIP3    H242356   8.041   5.059   7.600
 2941TIP3   OH242357   9.066   5.214   7.275
 2941TIP3    H142358   8.975   5.227   7.310
 2941TIP3    H242359   9.102   5.304   7.284
 2942TIP3   OH242360   9.128   3.985   7.436
 2942TIP3    H142361   9.054   4.031   7.392
 2942TIP3    H242362   9.202   4.049   7.422
 2943TIP3   OH242363   8.390   3.836   7.207
 2943TIP3    H142364   8.363   3.744   7.215
 2943TIP3    H242365   8.307   3.881   7.239
 2944TIP3   OH242366   8.908   5.353   6.971
 2944TIP3    H142367   8.946   5.274   6.925
 2944TIP3    H242368   8.978   5.419   6.949
 2945TIP3   OH242369   9.022   5.149   6.841
 2945TIP3    H142370   9.029   5.071   6.783
 2945TIP3    H242371   9.037   5.108   6.929
 2946TIP3   OH242372   9.164   5.010   7.710
 2946TIP3    H142373   9.166   4.951   7.631
 2946TIP3    H242374   9.200   5.092   7.672
 2947TIP3   OH242375   8.653   4.747   6.663
 2947TIP3    H142376   8.568   4.729   6.623
 2947TIP3    H242377   8.718   4.726   6.594
 2948TIP3   OH242378   8.675   4.592   6.345
 2948TIP3    H142379   8.733   4.555   6.413
 2948TIP3    H242380   8.596   4.533   6.346
 2949TIP3   OH242381   9.352   4.650   7.462
 2949TIP3    H142382   9.290   4.725   7.476
 2949TIP3    H242383   9.415   4.695   7.401
 2950TIP3   OH242384   8.984   4.749   6.753
 2950TIP3    H142385   8.907   4.749   6.815
 2950TIP3    H242386   9.047   4.695   6.804
 2951TIP3   OH242387   8.982   4.537   7.671
 2951TIP3    H142388   8.973   4.621   7.719
 2951TIP3    H242389   8.917   4.559   7.601
 2952TIP3   OH242390   8.142   4.769   6.933
 2952TIP3    H142391   8.132   4.724   6.847
 2952TIP3    H242392   8.203   4.711   6.984
 2953TIP3   OH242393   8.291   5.126   7.237
 2953TIP3    H142394   8.291   5.110   7.141
 2953TIP3    H242395   8.360   5.067   7.270
 2954TIP3   OH242396   8.163   4.645   7.321
 2954TIP3    H142397   8.199   4.649   7.229
 2954TIP3    H242398   8.208   4.722   7.364
 2955TIP3   OH242399   8.835   5.225   7.405
 2955TIP3    H142400   8.789   5.280   7.470
 2955TIP3    H242401   8.818   5.135   7.442
 2956TIP3   OH242402   8.284   5.112   7.757
 2956TIP3    H142403   8.210   5.157   7.801
 2956TIP3    H242404   8.242   5.090   7.671
 2957TIP3   OH242405   8.897   4.658   6.519
 2957TIP3    H142406   8.936   4.702   6.598
 2957TIP3    H242407   8.962   4.688   6.450
 2958TIP3   OH242408   7.989   4.732   7.663
 2958TIP3    H142409   7.998   4.820   7.703
 2958TIP3    H242410   7.913   4.698   7.714
 2959TIP3   OH242411   8.653   5.336   6.844
 2959TIP3    H142412   8.728   5.350   6.903
 2959TIP3    H242413   8.595   5.410   6.869
 2960TIP3   OH242414   8.110   5.280   7.878
 2960TIP3    H142415   8.095   5.322   7.790
 2960TIP3    H242416   8.018   5.254   7.898
 2961TIP3   OH242417   8.068   4.654   6.692
 2961TIP3    H142418   8.043   4.731   6.635
 2961TIP3    H242419   8.006   4.587   6.660
 2962TIP3   OH242420   0.005   5.235   6.354
 2962TIP3    H142421   0.011   5.330   6.329
 2962TIP3    H242422   0.098   5.206   6.344
 2963TIP3   OH242423   7.699   4.941   7.605
 2963TIP3    H142424   7.652   4.923   7.522
 2963TIP3    H242425   7.726   4.850   7.627
 2964TIP3   OH242426   7.662   5.214   7.270
 2964TIP3    H142427   7.749   5.177   7.251
 2964TIP3    H242428   7.681   5.273   7.344
 2965TIP3   OH242429   8.541   5.231   7.772
 2965TIP3    H142430   8.549   5.297   7.843
 2965TIP3    H242431   8.450   5.195   7.780
 2966TIP3   OH242432   8.590   5.591   6.713
 2966TIP3    H142433   8.572   5.619   6.620
 2966TIP3    H242434   8.591   5.678   6.758
 2967TIP3   OH242435   7.970   5.491   6.914
 2967TIP3    H142436   7.990   5.457   7.004
 2967TIP3    H242437   7.888   5.441   6.889
 2968TIP3   OH242438   8.860   5.517   6.397
 2968TIP3    H142439   8.915   5.440   6.373
 2968TIP3    H242440   8.868   5.514   6.495
 2969TIP3   OH242441   8.845   5.524   6.674
 2969TIP3    H142442   8.753   5.551   6.696
 2969TIP3    H242443   8.847   5.435   6.713
 2970TIP3   OH242444   9.145   4.438   7.897
 2970TIP3    H142445   9.100   4.463   7.816
 2970TIP3    H242446   9.196   4.360   7.872
 2971TIP3   OH242447   7.912   5.070   7.705
 2971TIP3    H142448   7.913   5.032   7.796
 2971TIP3    H242449   7.823   5.043   7.671
 2972TIP3   OH242450   8.161   3.937   7.287
 2972TIP3    H142451   8.073   3.918   7.249
 2972TIP3    H242452   8.136   3.984   7.370
 2973TIP3   OH242453   8.659   3.877   7.612
 2973TIP3    H142454   8.698   3.835   7.693
 2973TIP3    H242455   8.563   3.866   7.626
 2974TIP3   OH242456   8.966   4.241   7.671
 2974TIP3    H142457   8.920   4.232   7.757
 2974TIP3    H242458   8.981   4.338   7.665
 2975TIP3   OH242459   9.080   4.749   6.343
 2975TIP3    H142460   9.032   4.800   6.275
 2975TIP3    H242461   9.169   4.785   6.329
 2976TIP3   OH242462   8.550   4.141   6.378
 2976TIP3    H142463   8.494   4.102   6.447
 2976TIP3    H242464   8.638   4.115   6.409
 2977TIP3   OH242465   8.182   4.406   7.427
 2977TIP3    H142466   8.105   4.409   7.486
 2977TIP3    H242467   8.177   4.496   7.388
 2978TIP3   OH242468   8.163   4.409   6.892
 2978TIP3    H142469   8.067   4.393   6.886
 2978TIP3    H242470   8.186   4.420   6.798
 2979TIP3   OH242471   8.746   4.482   6.770
 2979TIP3    H142472   8.734   4.574   6.743
 2979TIP3    H242473   8.801   4.443   6.699
 2980TIP3   OH242474   8.607   4.512   7.908
 2980TIP3    H142475   8.574   4.425   7.941
 2980TIP3    H242476   8.694   4.516   7.950
 2981TIP3   OH242477   8.789   4.465   7.075
 2981TIP3    H142478   8.781   4.555   7.036
 2981TIP3    H242479   8.811   4.416   6.995
 2982TIP3   OH242480   7.927   4.425   7.547
 2982TIP3    H142481   7.961   4.459   7.631
 2982TIP3    H242482   7.893   4.337   7.576
 2983TIP3   OH242483   7.625   4.149   7.004
 2983TIP3    H142484   7.699   4.130   7.065
 2983TIP3    H242485   7.664   4.145   6.915
 2984TIP3   OH242486   7.737   4.200   6.523
 2984TIP3    H142487   7.810   4.253   6.486
 2984TIP3    H242488   7.675   4.270   6.553
 2985TIP3   OH242489   8.748   4.616   7.500
 2985TIP3    H142490   8.793   4.542   7.452
 2985TIP3    H242491   8.692   4.564   7.561
 2986TIP3   OH242492   8.429   4.172   7.017
 2986TIP3    H142493   8.333   4.164   7.038
 2986TIP3    H242494   8.471   4.137   7.097
 2987TIP3   OH242495   7.896   4.324   6.906
 2987TIP3    H142496   7.826   4.358   6.846
 2987TIP3    H242497   7.909   4.233   6.873
 2988TIP3   OH242498   8.239   4.338   6.622
 2988TIP3    H142499   8.333   4.336   6.643
 2988TIP3    H242500   8.236   4.401   6.548
 2989TIP3   OH242501   8.901   4.071   7.301
 2989TIP3    H142502   8.827   4.082   7.363
 2989TIP3    H242503   8.854   4.024   7.227
 2990TIP3   OH242504   9.141   5.646   8.001
 2990TIP3    H142505   9.168   5.689   7.916
 2990TIP3    H242506   9.214   5.676   8.057
 2991TIP3   OH242507   7.942   4.898   7.932
 2991TIP3    H142508   8.006   4.918   8.004
 2991TIP3    H242509   7.858   4.891   7.982
 2992TIP3   OH242510   8.511   4.469   7.140
 2992TIP3    H142511   8.606   4.447   7.135
 2992TIP3    H242512   8.478   4.390   7.185
 2993TIP3   OH242513   7.995   4.057   6.836
 2993TIP3    H142514   7.935   3.989   6.872
 2993TIP3    H242515   8.051   4.004   6.778
 2994TIP3   OH242516   8.409   4.259   7.421
 2994TIP3    H142517   8.335   4.324   7.420
 2994TIP3    H242518   8.476   4.309   7.471
 2995TIP3   OH242519   9.189   4.860   7.501
 2995TIP3    H142520   9.231   4.921   7.436
 2995TIP3    H242521   9.111   4.826   7.452
 2996TIP3   OH242522   8.595   4.962   7.728
 2996TIP3    H142523   8.569   4.933   7.817
 2996TIP3    H242524   8.581   5.058   7.735
 2997TIP3   OH242525   8.931   4.385   6.587
 2997TIP3    H142526   9.002   4.381   6.654
 2997TIP3    H242527   8.955   4.462   6.533
 2998TIP3   OH242528   8.002   4.867   7.182
 2998TIP3    H142529   8.047   4.843   7.099
 2998TIP3    H242530   7.997   4.782   7.228
 2999TIP3   OH242531   7.660   4.688   7.734
 2999TIP3    H142532   7.656   4.620   7.804
 2999TIP3    H242533   7.618   4.643   7.659
 3000TIP3   OH242534   8.374   4.639   7.890
 3000TIP3    H142535   8.326   4.590   7.823
 3000TIP3    H242536   8.465   4.599   7.886
 3001TIP3   OH242537   8.871   5.173   7.746
 3001TIP3    H142538   8.783   5.197   7.713
 3001TIP3    H242539   8.861   5.197   7.840
 3002TIP3   OH242540   9.284   5.248   6.609
 3002TIP3    H142541   9.193   5.222   6.631
 3002TIP3    H242542   9.288   5.232   6.511
 3003TIP3   OH242543   9.006   4.745   7.348
 3003TIP3    H142544   8.909   4.744   7.348
 3003TIP3    H242545   9.024   4.696   7.266
 3004TIP3   OH242546   8.191   5.196   6.966
 3004TIP3    H142547   8.252   5.271   6.957
 3004TIP3    H242548   8.115   5.231   6.917
 3005TIP3   OH242549   8.347   4.991   6.864
 3005TIP3    H142550   8.280   5.057   6.891
 3005TIP3    H242551   8.310   4.909   6.898
 3006TIP3   OH242552   8.398   5.394   7.572
 3006TIP3    H142553   8.465   5.458   7.543
 3006TIP3    H242554   8.450   5.347   7.640
 3007TIP3   OH242555   8.230   5.456   6.854
 3007TIP3    H142556   8.134   5.472   6.861
 3007TIP3    H242557   8.262   5.548   6.862
 3008TIP3   OH242558   8.718   4.974   7.479
 3008TIP3    H142559   8.682   4.955   7.569
 3008TIP3    H242560   8.752   4.887   7.451
 3009TIP3   OH242561   9.027   5.428   7.714
 3009TIP3    H142562   8.943   5.383   7.692
 3009TIP3    H242563   9.041   5.490   7.640
 3010TIP3   OH242564   7.877   4.185   7.680
 3010TIP3    H142565   7.807   4.222   7.738
 3010TIP3    H242566   7.873   4.092   7.709
 3011TIP3   OH242567   9.056   4.968   6.593
 3011TIP3    H142568   9.016   4.895   6.643
 3011TIP3    H242569   9.148   4.962   6.627
 3012TIP3   OH242570   7.800   5.325   7.514
 3012TIP3    H142571   7.877   5.268   7.530
 3012TIP3    H242572   7.804   5.382   7.592
 3013TIP3   OH242573   8.248   5.154   6.486
 3013TIP3    H142574   8.248   5.072   6.538
 3013TIP3    H242575   8.334   5.193   6.512
 3014TIP3   OH242576   7.949   4.861   6.520
 3014TIP3    H142577   7.852   4.853   6.521
 3014TIP3    H242578   7.958   4.957   6.531
 3015TIP3   OH242579   8.708   4.153   7.605
 3015TIP3    H142580   8.801   4.167   7.631
 3015TIP3    H242581   8.700   4.055   7.617
 3016TIP3   OH242582   8.783   4.086   6.657
 3016TIP3    H142583   8.827   4.125   6.582
 3016TIP3    H242584   8.831   4.128   6.731
 3017TIP3   OH242585   8.499   5.316   6.570
 3017TIP3    H142586   8.528   5.341   6.660
 3017TIP3    H242587   8.562   5.364   6.515
 3018TIP3   OH242588   8.532   4.254   6.769
 3018TIP3    H142589   8.586   4.333   6.782
 3018TIP3    H242590   8.499   4.233   6.859
 3019TIP3   OH242591   8.608   4.409   7.647
 3019TIP3    H142592   8.612   4.433   7.742
 3019TIP3    H242593   8.636   4.314   7.646
 3020TIP3   OH242594   8.591   3.961   6.853
 3020TIP3    H142595   8.533   4.020   6.905
 3020TIP3    H242596   8.654   4.024   6.811
 3021TIP3   OH242597   8.170   4.067   6.523
 3021TIP3    H142598   8.148   4.155   6.560
 3021TIP3    H242599   8.263   4.060   6.551
 3022TIP3   OH242600   9.214   4.150   7.754
 3022TIP3    H142601   9.122   4.163   7.724
 3022TIP3    H242602   9.261   4.161   7.670
 3023TIP3   OH242603   9.042   4.532   7.154
 3023TIP3    H142604   8.953   4.493   7.157
 3023TIP3    H242605   9.092   4.474   7.214
 3024TIP3   OH242606   7.950   5.144   6.424
 3024TIP3    H142607   8.043   5.160   6.444
 3024TIP3    H242608   7.953   5.069   6.363
 3025TIP3   OH242609   7.859   4.396   6.360
 3025TIP3    H142610   7.925   4.462   6.332
 3025TIP3    H242611   7.783   4.454   6.372
 3026TIP3   OH242612   9.200   5.452   7.316
 3026TIP3    H142613   9.178   5.516   7.244
 3026TIP3    H242614   9.292   5.477   7.333
 3027TIP3   OH242615   7.905   3.874   7.225
 3027TIP3    H142616   7.891   3.864   7.128
 3027TIP3    H242617   7.876   3.785   7.254
 3028TIP3   OH242618   7.783   5.331   6.822
 3028TIP3    H142619   7.687   5.329   6.820
 3028TIP3    H242620   7.800   5.344   6.726
 3029TIP3   OH242621   7.699   5.567   7.963
 3029TIP3    H142622   7.762   5.554   8.038
 3029TIP3    H242623   7.664   5.477   7.954
 3030TIP3   OH242624   8.202   5.398   8.140
 3030TIP3    H142625   8.294   5.367   8.139
 3030TIP3    H242626   8.166   5.352   8.062
 3031TIP3   OH242627   8.801   5.305   7.995
 3031TIP3    H142628   8.789   5.218   8.039
 3031TIP3    H242629   8.894   5.319   8.021
 3032TIP3   OH242630   9.050   5.311   6.332
 3032TIP3    H142631   9.104   5.232   6.311
 3032TIP3    H242632   9.117   5.381   6.325
 3033TIP3   OH242633   7.684   4.909   8.040
 3033TIP3    H142634   7.654   4.816   8.036
 3033TIP3    H242635   7.641   4.946   7.960
 3034TIP3   OH242636   8.357   4.907   7.936
 3034TIP3    H142637   8.329   4.968   7.864
 3034TIP3    H242638   8.367   4.819   7.893
 3035TIP3   OH242639   8.926   4.894   7.748
 3035TIP3    H142640   9.013   4.941   7.750
 3035TIP3    H242641   8.870   4.971   7.726
 3036TIP3   OH242642   7.829   4.615   7.995
 3036TIP3    H142643   7.912   4.567   8.005
 3036TIP3    H242644   7.839   4.678   8.070
 3037TIP3   OH242645   8.181   4.535   7.674
 3037TIP3    H142646   8.125   4.615   7.680
 3037TIP3    H242647   8.254   4.570   7.619
 3038TIP3   OH242648   8.706   4.803   8.068
 3038TIP3    H142649   8.773   4.770   8.007
 3038TIP3    H242650   8.676   4.721   8.111
 3039TIP3   OH242651   9.361   4.881   6.240
 3039TIP3    H142652   9.360   4.788   6.211
 3039TIP3    H242653   9.280   4.918   6.199
 3040TIP3   OH242654   8.295   4.315   7.789
 3040TIP3    H142655   8.294   4.245   7.721
 3040TIP3    H242656   8.270   4.393   7.735
 3041TIP3   OH242657   8.274   4.100   7.593
 3041TIP3    H142658   8.314   4.144   7.514
 3041TIP3    H242659   8.179   4.099   7.568
 3042TIP3   OH242660   8.406   4.684   7.586
 3042TIP3    H142661   8.491   4.720   7.556
 3042TIP3    H242662   8.345   4.750   7.546
 3043TIP3   OH242663   8.884   4.423   8.096
 3043TIP3    H142664   8.865   4.331   8.123
 3043TIP3    H242665   8.964   4.413   8.042
 3044TIP3   OH242666   9.015   4.747   7.949
 3044TIP3    H142667   8.981   4.799   7.873
 3044TIP3    H242668   9.110   4.738   7.923
 3045TIP3   OH242669   8.102   4.389   8.025
 3045TIP3    H142670   8.023   4.341   7.992
 3045TIP3    H242671   8.160   4.395   7.947
 3046TIP3   OH242672   8.379   3.853   7.593
 3046TIP3    H142673   8.349   3.946   7.607
 3046TIP3    H242674   8.295   3.813   7.568
 3047TIP3   OH242675   8.487   4.268   8.012
 3047TIP3    H142676   8.420   4.257   8.082
 3047TIP3    H242677   8.431   4.264   7.932
 3048TIP3   OH242678   8.781   4.198   7.888
 3048TIP3    H142679   8.693   4.168   7.914
 3048TIP3    H242680   8.838   4.139   7.943
 3049TIP3   OH242681   8.939   4.050   8.064
 3049TIP3    H142682   8.914   3.955   8.076
 3049TIP3    H242683   8.901   4.093   8.144
 3050TIP3   OH242684   7.893   4.209   8.009
 3050TIP3    H142685   7.896   4.126   7.959
 3050TIP3    H242686   7.877   4.173   8.100
 3051TIP3   OH242687   8.325   3.795   7.864
 3051TIP3    H142688   8.410   3.747   7.878
 3051TIP3    H242689   8.329   3.800   7.766
 3052TIP3   OH242690   8.352   3.911   8.150
 3052TIP3    H142691   8.336   3.874   8.061
 3052TIP3    H242692   8.312   4.000   8.139
 3053TIP3   OH242693   7.588   5.620   6.869
 3053TIP3    H142694   7.526   5.552   6.834
 3053TIP3    H242695   7.624   5.573   6.947
 3054TIP3   OH242696   7.672   5.472   7.076
 3054TIP3    H142697   7.609   5.402   7.096
 3054TIP3    H242698   7.745   5.456   7.140
 3055TIP3   OH242699   9.378   5.479   7.647
 3055TIP3    H142700   9.328   5.417   7.590
 3055TIP3    H242701   9.388   5.423   7.725
 3056TIP3   OH242702   9.235   5.053   8.129
 3056TIP3    H142703   9.151   5.076   8.174
 3056TIP3    H242704   9.280   5.141   8.130
 3057TIP3   OH242705   9.299   4.902   6.692
 3057TIP3    H142706   9.378   4.953   6.667
 3057TIP3    H242707   9.307   4.823   6.639
 3058TIP3   OH242708   0.021   4.993   7.353
 3058TIP3    H142709   0.077   4.919   7.321
 3058TIP3    H242710   0.043   5.065   7.289
 3059TIP3   OH242711   9.224   5.264   7.567
 3059TIP3    H142712   9.138   5.308   7.586
 3059TIP3    H242713   9.212   5.238   7.474
 3060TIP3   OH242714   9.202   4.390   6.324
 3060TIP3    H142715   9.215   4.486   6.306
 3060TIP3    H242716   9.290   4.357   6.301
 3061TIP3   OH242717   9.164   4.547   6.901
 3061TIP3    H142718   9.166   4.457   6.864
 3061TIP3    H242719   9.123   4.534   6.989
 3062TIP3   OH242720   7.677   4.788   7.294
 3062TIP3    H142721   7.688   4.757   7.201
 3062TIP3    H242722   7.769   4.769   7.326
 3063TIP3   OH242723   9.276   4.746   7.892
 3063TIP3    H142724   9.302   4.654   7.875
 3063TIP3    H242725   9.302   4.793   7.811
 3064TIP3   OH242726   9.142   4.326   6.746
 3064TIP3    H142727   9.157   4.230   6.763
 3064TIP3    H242728   9.191   4.333   6.663
 3065TIP3   OH242729   9.180   4.354   7.328
 3065TIP3    H142730   9.273   4.360   7.298
 3065TIP3    H242731   9.193   4.375   7.422
 3066TIP3   OH242732   9.235   4.438   7.581
 3066TIP3    H142733   9.151   4.482   7.602
 3066TIP3    H242734   9.290   4.514   7.548
 3067TIP3   OH242735   7.670   4.282   7.898
 3067TIP3    H142736   7.752   4.263   7.950
 3067TIP3    H242737   7.616   4.201   7.915
 3068TIP3   OH242738   9.179   4.067   6.759
 3068TIP3    H142739   9.204   4.018   6.840
 3068TIP3    H242740   9.125   3.999   6.714
 3069TIP3   OH242741   7.779   4.122   7.254
 3069TIP3    H142742   7.818   4.032   7.253
 3069TIP3    H242743   7.856   4.182   7.256
 3070TIP3   OH242744   7.606   4.421   7.321
 3070TIP3    H142745   7.665   4.388   7.250
 3070TIP3    H242746   7.648   4.506   7.338
 3071TIP3   OH242747   7.638   4.048   6.718
 3071TIP3    H142748   7.542   4.067   6.724
 3071TIP3    H242749   7.657   4.075   6.626
 3072TIP3   OH242750   9.103   5.533   6.917
 3072TIP3    H142751   9.164   5.521   6.841
 3072TIP3    H242752   9.160   5.575   6.983
 3073TIP3   OH242753   7.628   3.906   7.554
 3073TIP3    H142754   7.556   3.871   7.608
 3073TIP3    H242755   7.587   3.977   7.502
 3074TIP3   OH242756   7.845   5.218   7.947
 3074TIP3    H142757   7.758   5.253   7.921
 3074TIP3    H242758   7.826   5.180   8.033
 3075TIP3   OH242759   8.131   5.361   7.613
 3075TIP3    H142760   8.123   5.456   7.589
 3075TIP3    H242761   8.228   5.351   7.610
 3076TIP3   OH242762   8.553   5.522   7.863
 3076TIP3    H142763   8.564   5.521   7.960
 3076TIP3    H242764   8.646   5.533   7.835
 3077TIP3   OH242765   8.781   5.658   7.818
 3077TIP3    H142766   8.861   5.626   7.774
 3077TIP3    H242767   8.813   5.690   7.905
 3078TIP3   OH242768   9.245   3.857   7.745
 3078TIP3    H142769   9.183   3.913   7.696
 3078TIP3    H242770   9.257   3.779   7.687
 3079TIP3   OH242771   7.864   5.684   7.592
 3079TIP3    H142772   7.784   5.729   7.556
 3079TIP3    H242773   7.855   5.713   7.684
 3080TIP3   OH242774   8.094   5.617   7.487
 3080TIP3    H142775   8.005   5.637   7.526
 3080TIP3    H242776   8.087   5.670   7.406
 3081TIP3   OH242777   8.611   5.583   7.393
 3081TIP3    H142778   8.530   5.617   7.352
 3081TIP3    H242779   8.628   5.656   7.457
 3082TIP3   OH242780   8.789   5.450   7.552
 3082TIP3    H142781   8.722   5.487   7.490
 3082TIP3    H242782   8.864   5.508   7.528
 3083TIP3   OH242783   9.078   5.590   7.509
 3083TIP3    H142784   9.106   5.682   7.486
 3083TIP3    H242785   9.120   5.543   7.434
 3084TIP3   OH242786   7.832   5.504   7.300
 3084TIP3    H142787   7.810   5.441   7.371
 3084TIP3    H242788   7.922   5.475   7.274
 3085TIP3   OH242789   8.049   5.418   7.164
 3085TIP3    H142790   8.034   5.324   7.185
 3085TIP3    H242791   8.141   5.428   7.199
 3086TIP3   OH242792   8.277   5.399   7.299
 3086TIP3    H142793   8.308   5.307   7.288
 3086TIP3    H242794   8.286   5.410   7.395
 3087TIP3   OH242795   8.656   3.990   7.175
 3087TIP3    H142796   8.575   3.964   7.220
 3087TIP3    H242797   8.667   3.920   7.109
 3088TIP3   OH242798   9.139   3.782   7.148
 3088TIP3    H142799   9.193   3.849   7.100
 3088TIP3    H242800   9.049   3.818   7.130
 3089TIP3   OH242801   9.281   3.929   6.966
 3089TIP3    H142802   9.346   3.881   6.909
 3089TIP3    H242803   9.337   4.006   6.994
 3090TIP3   OH242804   7.857   3.826   6.967
 3090TIP3    H142805   7.785   3.818   6.902
 3090TIP3    H242806   7.914   3.749   6.941
 3091TIP3   OH242807   7.732   3.819   6.516
 3091TIP3    H142808   7.751   3.914   6.511
 3091TIP3    H242809   7.662   3.821   6.584
 3092TIP3   OH242810   8.314   3.826   6.926
 3092TIP3    H142811   8.400   3.832   6.885
 3092TIP3    H242812   8.336   3.838   7.020
 3093TIP3   OH242813   8.897   3.877   7.062
 3093TIP3    H142814   8.870   3.890   6.969
 3093TIP3    H242815   8.844   3.797   7.086
 3094TIP3   OH242816   9.030   3.836   6.662
 3094TIP3    H142817   9.015   3.859   6.568
 3094TIP3    H242818   8.958   3.772   6.679
 3095TIP3   OH242819   7.753   5.475   6.595
 3095TIP3    H142820   7.668   5.460   6.551
 3095TIP3    H242821   7.767   5.570   6.578
 3096TIP3   OH242822   8.436   4.043   6.618
 3096TIP3    H142823   8.487   3.990   6.682
 3096TIP3    H242824   8.468   4.132   6.644
 3097TIP3   OH242825   8.619   5.630   6.446
 3097TIP3    H142826   8.706   5.599   6.412
 3097TIP3    H242827   8.571   5.648   6.364
 3098TIP3   OH242828   9.288   5.487   6.723
 3098TIP3    H142829   9.291   5.401   6.676
 3098TIP3    H242830   9.282   5.550   6.649
 3099TIP3   OH242831   7.837   3.929   7.860
 3099TIP3    H142832   7.779   3.850   7.874
 3099TIP3    H242833   7.910   3.912   7.922
 3100TIP3   OH242834   8.045   3.862   8.056
 3100TIP3    H142835   8.126   3.817   8.028
 3100TIP3    H242836   8.002   3.789   8.105
 3101TIP3   OH242837   8.893   3.784   8.082
 3101TIP3    H142838   8.908   3.742   8.170
 3101TIP3    H242839   8.982   3.765   8.042
 3102TIP3   OH242840   9.208   5.392   7.914
 3102TIP3    H142841   9.155   5.370   7.834
 3102TIP3    H242842   9.185   5.486   7.926
 3103TIP3   OH242843   1.249   6.666   6.917
 3103TIP3    H142844   1.236   6.762   6.926
 3103TIP3    H242845   1.185   6.648   6.845
 3104TIP3   OH242846   1.138   6.561   7.266
 3104TIP3    H142847   1.147   6.510   7.350
 3104TIP3    H242848   1.065   6.515   7.220
 3105TIP3   OH242849   0.385   6.568   7.392
 3105TIP3    H142850   0.371   6.486   7.442
 3105TIP3    H242851   0.447   6.615   7.451
 3106TIP3   OH242852   1.473   6.865   7.105
 3106TIP3    H142853   1.469   6.805   7.182
 3106TIP3    H242854   1.463   6.951   7.147
 3107TIP3   OH242855   0.399   6.989   7.255
 3107TIP3    H142856   0.392   6.894   7.228
 3107TIP3    H242857   0.495   6.989   7.264
 3108TIP3   OH242858   0.128   6.360   6.780
 3108TIP3    H142859   0.136   6.450   6.818
 3108TIP3    H242860   0.078   6.317   6.850
 3109TIP3   OH242861   0.234   6.557   6.959
 3109TIP3    H142862   0.253   6.492   7.030
 3109TIP3    H242863   0.283   6.635   6.988
 3110TIP3   OH242864   1.234   7.405   7.106
 3110TIP3    H142865   1.302   7.348   7.063
 3110TIP3    H242866   1.192   7.336   7.160
 3111TIP3   OH242867   0.966   6.845   7.327
 3111TIP3    H142868   1.003   6.776   7.270
 3111TIP3    H242869   1.047   6.871   7.376
 3112TIP3   OH242870   1.815   5.982   7.337
 3112TIP3    H142871   1.826   6.028   7.423
 3112TIP3    H242872   1.901   6.001   7.294
 3113TIP3   OH242873   1.311   6.279   7.361
 3113TIP3    H142874   1.332   6.184   7.373
 3113TIP3    H242875   1.274   6.275   7.271
 3114TIP3   OH242876   0.588   6.066   7.047
 3114TIP3    H142877   0.617   6.140   6.990
 3114TIP3    H242878   0.575   5.996   6.980
 3115TIP3   OH242879   1.356   6.080   6.906
 3115TIP3    H142880   1.415   6.076   6.984
 3115TIP3    H242881   1.385   6.158   6.857
 3116TIP3   OH242882   0.280   6.334   7.136
 3116TIP3    H142883   0.347   6.281   7.185
 3116TIP3    H242884   0.287   6.291   7.049
 3117TIP3   OH242885   0.761   6.485   7.081
 3117TIP3    H142886   0.841   6.443   7.120
 3117TIP3    H242887   0.732   6.411   7.023
 3118TIP3   OH242888   1.835   6.112   7.587
 3118TIP3    H142889   1.801   6.195   7.545
 3118TIP3    H242890   1.860   6.146   7.674
 3119TIP3   OH242891   0.500   5.996   7.479
 3119TIP3    H142892   0.456   6.036   7.401
 3119TIP3    H242893   0.435   6.017   7.549
 3120TIP3   OH242894   1.182   6.931   6.814
 3120TIP3    H142895   1.165   6.923   6.719
 3120TIP3    H242896   1.155   7.024   6.831
 3121TIP3   OH242897   0.734   6.748   7.444
 3121TIP3    H142898   0.671   6.823   7.459
 3121TIP3    H242899   0.808   6.798   7.404
 3122TIP3   OH242900   1.563   6.083   7.144
 3122TIP3    H142901   1.628   6.010   7.142
 3122TIP3    H242902   1.613   6.149   7.196
 3123TIP3   OH242903   0.460   6.170   7.262
 3123TIP3    H142904   0.525   6.226   7.311
 3123TIP3    H242905   0.516   6.133   7.189
 3124TIP3   OH242906   0.588   6.964   7.543
 3124TIP3    H142907   0.590   7.055   7.509
 3124TIP3    H242908   0.497   6.957   7.576
 3125TIP3   OH242909   1.555   7.081   7.364
 3125TIP3    H142910   1.460   7.101   7.364
 3125TIP3    H242911   1.583   7.151   7.303
 3126TIP3   OH242912   1.537   5.894   7.447
 3126TIP3    H142913   1.460   5.913   7.389
 3126TIP3    H242914   1.611   5.925   7.393
 3127TIP3   OH242915   0.822   5.704   7.233
 3127TIP3    H142916   0.774   5.619   7.236
 3127TIP3    H242917   0.744   5.763   7.253
 3128TIP3   OH242918   1.403   7.240   6.977
 3128TIP3    H142919   1.426   7.163   6.921
 3128TIP3    H242920   1.475   7.303   6.954
 3129TIP3   OH242921   1.513   7.034   6.822
 3129TIP3    H142922   1.485   6.977   6.747
 3129TIP3    H242923   1.496   6.972   6.896
 3130TIP3   OH242924   1.645   6.901   7.697
 3130TIP3    H142925   1.653   6.831   7.628
 3130TIP3    H242926   1.670   6.979   7.644
 3131TIP3   OH242927   1.112   6.615   6.680
 3131TIP3    H142928   1.046   6.677   6.642
 3131TIP3    H242929   1.180   6.607   6.610
 3132TIP3   OH242930   1.857   6.552   7.492
 3132TIP3    H142931   1.791   6.624   7.493
 3132TIP3    H242932   1.917   6.587   7.423
 3133TIP3   OH242933   1.481   6.618   6.780
 3133TIP3    H142934   1.403   6.637   6.837
 3133TIP3    H242935   1.537   6.563   6.840
 3134TIP3   OH242936   1.464   6.467   7.681
 3134TIP3    H142937   1.455   6.558   7.714
 3134TIP3    H242938   1.387   6.464   7.622
 3135TIP3   OH242939   0.619   6.660   6.952
 3135TIP3    H142940   0.597   6.620   6.865
 3135TIP3    H242941   0.687   6.597   6.985
 3136TIP3   OH242942   0.757   7.007   7.222
 3136TIP3    H142943   0.759   6.985   7.127
 3136TIP3    H242944   0.834   6.957   7.256
 3137TIP3   OH242945   0.646   6.529   7.315
 3137TIP3    H142946   0.685   6.533   7.225
 3137TIP3    H242947   0.694   6.601   7.362
 3138TIP3   OH242948   1.286   7.131   7.377
 3138TIP3    H142949   1.245   7.187   7.446
 3138TIP3    H242950   1.280   7.043   7.418
 3139TIP3   OH242951   0.725   6.983   7.775
 3139TIP3    H142952   0.657   7.032   7.826
 3139TIP3    H242953   0.681   6.973   7.688
 3140TIP3   OH242954   1.343   6.566   6.551
 3140TIP3    H142955   1.398   6.575   6.632
 3140TIP3    H242956   1.404   6.598   6.484
 3141TIP3   OH242957   0.440   6.615   7.688
 3141TIP3    H142958   0.451   6.664   7.771
 3141TIP3    H242959   0.345   6.592   7.695
 3142TIP3   OH242960   1.086   7.205   6.812
 3142TIP3    H142961   1.074   7.223   6.906
 3142TIP3    H242962   1.074   7.294   6.773
 3143TIP3   OH242963   0.559   7.169   7.883
 3143TIP3    H142964   0.540   7.189   7.789
 3143TIP3    H242965   0.469   7.154   7.916
 3144TIP3   OH242966   0.515   6.566   6.706
 3144TIP3    H142967   0.450   6.637   6.707
 3144TIP3    H242968   0.461   6.486   6.709
 3145TIP3   OH242969   0.142   6.819   7.649
 3145TIP3    H142970   0.102   6.829   7.561
 3145TIP3    H242971   0.140   6.722   7.662
 3146TIP3   OH242972   0.137   7.093   7.240
 3146TIP3    H142973   0.222   7.046   7.229
 3146TIP3    H242974   0.163   7.156   7.311
 3147TIP3   OH242975   1.907   7.163   7.856
 3147TIP3    H142976   1.892   7.068   7.837
 3147TIP3    H242977   1.823   7.185   7.902
 3148TIP3   OH242978   0.978   7.100   7.775
 3148TIP3    H142979   0.994   7.171   7.840
 3148TIP3    H242980   0.884   7.076   7.789
 3149TIP3   OH242981   1.072   7.481   6.709
 3149TIP3    H142982   1.073   7.505   6.614
 3149TIP3    H242983   1.065   7.570   6.751
 3150TIP3   OH242984   0.435   7.374   6.910
 3150TIP3    H142985   0.440   7.325   6.995
 3150TIP3    H242986   0.356   7.331   6.872
 3151TIP3   OH242987   1.417   7.445   6.399
 3151TIP3    H142988   1.444   7.377   6.462
 3151TIP3    H242989   1.396   7.518   6.459
 3152TIP3   OH242990   1.341   7.421   6.690
 3152TIP3    H142991   1.247   7.438   6.710
 3152TIP3    H242992   1.354   7.337   6.737
 3153TIP3   OH242993   1.613   6.282   7.898
 3153TIP3    H142994   1.561   6.327   7.828
 3153TIP3    H242995   1.612   6.190   7.864
 3154TIP3   OH242996   0.346   6.977   7.725
 3154TIP3    H142997   0.377   6.913   7.792
 3154TIP3    H242998   0.262   6.931   7.698
 3155TIP3   OH242999   0.610   5.838   7.306
 3155TIP3    H143000   0.522   5.814   7.270
 3155TIP3    H243001   0.584   5.893   7.383
 3156TIP3   OH243002   1.115   5.768   7.609
 3156TIP3    H143003   1.153   5.714   7.682
 3156TIP3    H243004   1.019   5.768   7.628
 3157TIP3   OH243005   1.380   6.187   7.705
 3157TIP3    H143006   1.339   6.153   7.789
 3157TIP3    H243007   1.322   6.262   7.686
 3158TIP3   OH243008   0.630   6.289   7.425
 3158TIP3    H143009   0.573   6.316   7.500
 3158TIP3    H243010   0.642   6.377   7.380
 3159TIP3   OH243011   0.639   6.295   6.918
 3159TIP3    H143012   0.543   6.289   6.899
 3159TIP3    H243013   0.680   6.280   6.829
 3160TIP3   OH243014   1.194   6.364   6.780
 3160TIP3    H143015   1.169   6.453   6.746
 3160TIP3    H243016   1.253   6.330   6.709
 3161TIP3   OH243017   1.084   6.407   7.922
 3161TIP3    H143018   1.038   6.329   7.958
 3161TIP3    H243019   1.166   6.404   7.976
 3162TIP3   OH243020   1.273   6.326   7.083
 3162TIP3    H143021   1.276   6.415   7.043
 3162TIP3    H243022   1.266   6.270   7.004
 3163TIP3   OH243023   0.354   6.309   7.558
 3163TIP3    H143024   0.403   6.333   7.638
 3163TIP3    H243025   0.329   6.216   7.575
 3164TIP3   OH243026   0.108   6.030   7.009
 3164TIP3    H143027   0.188   6.030   7.065
 3164TIP3    H243028   0.140   6.035   6.918
 3165TIP3   OH243029   0.157   6.123   6.517
 3165TIP3    H143030   0.221   6.119   6.444
 3165TIP3    H243031   0.127   6.214   6.504
 3166TIP3   OH243032   1.198   6.468   7.509
 3166TIP3    H143033   1.251   6.397   7.465
 3166TIP3    H243034   1.140   6.414   7.569
 3167TIP3   OH243035   0.902   6.058   7.040
 3167TIP3    H143036   0.814   6.062   7.081
 3167TIP3    H243037   0.950   5.995   7.098
 3168TIP3   OH243038   0.364   6.208   6.893
 3168TIP3    H143039   0.300   6.232   6.824
 3168TIP3    H243040   0.404   6.125   6.859
 3169TIP3   OH243041   0.723   6.243   6.674
 3169TIP3    H143042   0.815   6.211   6.665
 3169TIP3    H243043   0.712   6.297   6.594
 3170TIP3   OH243044   1.306   5.988   7.328
 3170TIP3    H143045   1.230   5.965   7.383
 3170TIP3    H243046   1.289   5.937   7.248
 3171TIP3   OH243047   0.617   6.351   6.437
 3171TIP3    H143048   0.533   6.306   6.452
 3171TIP3    H243049   0.660   6.294   6.371
 3172TIP3   OH243050   1.615   7.550   7.990
 3172TIP3    H143051   1.637   7.601   7.911
 3172TIP3    H243052   1.698   7.561   8.041
 3173TIP3   OH243053   0.419   6.790   7.913
 3173TIP3    H143054   0.471   6.789   7.996
 3173TIP3    H243055   0.327   6.790   7.948
 3174TIP3   OH243056   0.961   6.346   7.174
 3174TIP3    H143057   1.048   6.320   7.139
 3174TIP3    H243058   0.919   6.262   7.196
 3175TIP3   OH243059   0.491   5.936   6.826
 3175TIP3    H143060   0.427   5.875   6.869
 3175TIP3    H243061   0.548   5.874   6.781
 3176TIP3   OH243062   0.849   6.149   7.431
 3176TIP3    H143063   0.765   6.198   7.416
 3176TIP3    H243064   0.905   6.217   7.471
 3177TIP3   OH243065   0.930   6.811   6.623
 3177TIP3    H143066   0.857   6.751   6.602
 3177TIP3    H243067   0.904   6.838   6.715
 3178TIP3   OH243068   1.666   6.745   7.486
 3178TIP3    H143069   1.715   6.803   7.422
 3178TIP3    H243070   1.581   6.739   7.441
 3179TIP3   OH243071   1.035   6.839   7.727
 3179TIP3    H143072   1.026   6.808   7.818
 3179TIP3    H243073   1.007   6.932   7.736
 3180TIP3   OH243074   1.391   6.255   6.617
 3180TIP3    H143075   1.484   6.266   6.643
 3180TIP3    H243076   1.388   6.279   6.523
 3181TIP3   OH243077   0.462   6.738   7.176
 3181TIP3    H143078   0.518   6.722   7.098
 3181TIP3    H243079   0.483   6.661   7.232
 3182TIP3   OH243080   1.121   6.958   6.517
 3182TIP3    H143081   1.083   7.049   6.527
 3182TIP3    H243082   1.050   6.903   6.556
 3183TIP3   OH243083   0.166   6.561   7.700
 3183TIP3    H143084   0.169   6.504   7.780
 3183TIP3    H243085   0.121   6.507   7.632
 3184TIP3   OH243086   0.800   6.538   7.887
 3184TIP3    H143087   0.771   6.481   7.815
 3184TIP3    H243088   0.895   6.514   7.894
 3185TIP3   OH243089   1.325   7.066   7.750
 3185TIP3    H143090   1.243   7.083   7.702
 3185TIP3    H243091   1.302   7.109   7.835
 3186TIP3   OH243092   1.860   6.270   6.588
 3186TIP3    H143093   1.811   6.249   6.505
 3186TIP3    H243094   1.870   6.366   6.576
 3187TIP3   OH243095   1.893   6.883   7.820
 3187TIP3    H143096   1.797   6.885   7.797
 3187TIP3    H243097   1.935   6.875   7.732
 3188TIP3   OH243098   1.683   7.147   6.615
 3188TIP3    H143099   1.626   7.125   6.691
 3188TIP3    H243100   1.723   7.061   6.600
 3189TIP3   OH243101   1.428   6.667   7.306
 3189TIP3    H143102   1.335   6.643   7.290
 3189TIP3    H243103   1.473   6.594   7.258
 3190TIP3   OH243104   0.655   7.065   6.942
 3190TIP3    H143105   0.681   7.159   6.934
 3190TIP3    H243106   0.560   7.074   6.927
 3191TIP3   OH243107   0.806   6.854   6.861
 3191TIP3    H143108   0.762   6.941   6.874
 3191TIP3    H243109   0.756   6.798   6.923
 3192TIP3   OH243110   0.853   7.260   7.560
 3192TIP3    H143111   0.922   7.320   7.526
 3192TIP3    H243112   0.897   7.226   7.640
 3193TIP3   OH243113   0.698   7.315   6.846
 3193TIP3    H143114   0.605   7.341   6.857
 3193TIP3    H243115   0.742   7.400   6.855
 3194TIP3   OH243116   1.189   6.868   7.480
 3194TIP3    H143117   1.146   6.841   7.564
 3194TIP3    H243118   1.245   6.791   7.458
 3195TIP3   OH243119   1.498   7.327   7.730
 3195TIP3    H143120   1.414   7.284   7.707
 3195TIP3    H243121   1.511   7.389   7.654
 3196TIP3   OH243122   1.877   7.423   6.419
 3196TIP3    H143123   1.950   7.486   6.416
 3196TIP3    H243124   1.811   7.472   6.473
 3197TIP3   OH243125   0.305   6.044   7.661
 3197TIP3    H143126   0.274   6.079   7.746
 3197TIP3    H243127   0.279   5.950   7.667
 3198TIP3   OH243128   1.529   6.839   6.626
 3198TIP3    H143129   1.506   6.766   6.687
 3198TIP3    H243130   1.624   6.825   6.614
 3199TIP3   OH243131   0.258   7.226   7.472
 3199TIP3    H143132   0.338   7.187   7.511
 3199TIP3    H243133   0.217   7.274   7.546
 3200TIP3   OH243134   1.166   6.036   7.598
 3200TIP3    H143135   1.256   6.054   7.629
 3200TIP3    H243136   1.152   5.942   7.621
 3201TIP3   OH243137   1.227   5.941   6.622
 3201TIP3    H143138   1.173   6.006   6.574
 3201TIP3    H243139   1.283   6.000   6.675
 3202TIP3   OH243140   1.034   7.220   6.510
 3202TIP3    H143141   0.953   7.244   6.560
 3202TIP3    H243142   1.068   7.311   6.490
 3203TIP3   OH243143   0.987   6.147   6.793
 3203TIP3    H143144   1.044   6.225   6.797
 3203TIP3    H243145   0.952   6.134   6.883
 3204TIP3   OH243146   1.067   6.296   7.665
 3204TIP3    H143147   1.067   6.320   7.759
 3204TIP3    H243148   1.091   6.201   7.661
 3205TIP3   OH243149   1.078   5.846   6.864
 3205TIP3    H143150   1.026   5.927   6.847
 3205TIP3    H243151   1.159   5.872   6.815
 3206TIP3   OH243152   0.775   7.305   6.532
 3206TIP3    H143153   0.797   7.396   6.501
 3206TIP3    H243154   0.723   7.321   6.611
 3207TIP3   OH243155   0.649   6.036   6.491
 3207TIP3    H143156   0.642   6.086   6.575
 3207TIP3    H243157   0.741   6.007   6.490
 3208TIP3   OH243158   1.620   6.058   7.750
 3208TIP3    H143159   1.531   6.092   7.729
 3208TIP3    H243160   1.663   6.063   7.664
 3209TIP3   OH243161   1.525   6.429   7.172
 3209TIP3    H143162   1.451   6.366   7.180
 3209TIP3    H243163   1.598   6.380   7.214
 3210TIP3   OH243164   0.265   6.271   6.303
 3210TIP3    H143165   0.308   6.347   6.259
 3210TIP3    H243166   0.209   6.242   6.229
 3211TIP3   OH243167   1.605   7.356   7.317
 3211TIP3    H143168   1.614   7.427   7.249
 3211TIP3    H243169   1.700   7.342   7.334
 3212TIP3   OH243170   0.375   5.765   7.222
 3212TIP3    H143171   0.366   5.755   7.125
 3212TIP3    H243172   0.332   5.682   7.255
 3213TIP3   OH243173   0.267   7.168   6.823
 3213TIP3    H143174   0.174   7.191   6.814
 3213TIP3    H243175   0.298   7.198   6.737
 3214TIP3   OH243176   0.174   7.462   7.985
 3214TIP3    H143177   0.229   7.440   8.063
 3214TIP3    H243178   0.153   7.372   7.954
 3215TIP3   OH243179   0.687   7.290   8.135
 3215TIP3    H143180   0.780   7.261   8.133
 3215TIP3    H243181   0.655   7.256   8.050
 3216TIP3   OH243182   1.266   7.182   7.985
 3216TIP3    H143183   1.238   7.097   8.026
 3216TIP3    H243184   1.358   7.188   8.021
 3217TIP3   OH243185   0.156   6.829   8.001
 3217TIP3    H143186   0.151   6.739   8.037
 3217TIP3    H243187   0.061   6.849   7.993
 3218TIP3   OH243188   0.825   6.797   7.942
 3218TIP3    H143189   0.797   6.857   7.869
 3218TIP3    H243190   0.808   6.707   7.905
 3219TIP3   OH243191   1.144   6.915   6.237
 3219TIP3    H143192   1.140   6.935   6.333
 3219TIP3    H243193   1.128   6.820   6.235
 3220TIP3   OH243194   1.399   6.790   7.739
 3220TIP3    H143195   1.485   6.839   7.736
 3220TIP3    H243196   1.339   6.867   7.741
 3221TIP3   OH243197   0.273   6.492   7.977
 3221TIP3    H143198   0.303   6.413   8.025
 3221TIP3    H243199   0.282   6.559   8.047
 3222TIP3   OH243200   0.748   6.621   6.497
 3222TIP3    H143201   0.671   6.584   6.543
 3222TIP3    H243202   0.796   6.540   6.472
 3223TIP3   OH243203   0.619   6.423   7.662
 3223TIP3    H143204   0.563   6.504   7.669
 3223TIP3    H243205   0.696   6.459   7.613
 3224TIP3   OH243206   1.184   6.699   8.062
 3224TIP3    H143207   1.244   6.648   8.005
 3224TIP3    H243208   1.158   6.633   8.129
 3225TIP3   OH243209   0.745   6.204   7.790
 3225TIP3    H143210   0.745   6.129   7.728
 3225TIP3    H243211   0.725   6.279   7.731
 3226TIP3   OH243212   0.744   5.991   7.611
 3226TIP3    H143213   0.797   6.031   7.538
 3226TIP3    H243214   0.655   5.999   7.572
 3227TIP3   OH243215   0.872   6.554   7.573
 3227TIP3    H143216   0.964   6.583   7.573
 3227TIP3    H243217   0.825   6.633   7.539
 3228TIP3   OH243218   1.283   6.334   8.117
 3228TIP3    H143219   1.292   6.244   8.156
 3228TIP3    H243220   1.375   6.359   8.104
 3229TIP3   OH243221   1.465   6.638   7.957
 3229TIP3    H143222   1.437   6.687   7.876
 3229TIP3    H243223   1.558   6.616   7.936
 3230TIP3   OH243224   0.579   6.252   8.021
 3230TIP3    H143225   0.487   6.220   8.008
 3230TIP3    H243226   0.608   6.268   7.930
 3231TIP3   OH243227   0.836   5.744   7.612
 3231TIP3    H143228   0.797   5.834   7.622
 3231TIP3    H243229   0.761   5.696   7.576
 3232TIP3   OH243230   0.937   6.188   8.007
 3232TIP3    H143231   0.873   6.171   8.080
 3232TIP3    H243232   0.879   6.163   7.932
 3233TIP3   OH243233   1.211   6.109   7.907
 3233TIP3    H143234   1.116   6.107   7.927
 3233TIP3    H243235   1.241   6.046   7.976
 3234TIP3   OH243236   1.298   5.926   8.077
 3234TIP3    H143237   1.352   5.846   8.093
 3234TIP3    H243238   1.320   5.985   8.153
 3235TIP3   OH243239   0.349   6.076   7.992
 3235TIP3    H143240   0.347   5.988   7.950
 3235TIP3    H243241   0.336   6.053   8.087
 3236TIP3   OH243242   0.802   5.668   7.875
 3236TIP3    H143243   0.886   5.619   7.887
 3236TIP3    H243244   0.808   5.685   7.778
 3237TIP3   OH243245   0.810   5.789   8.163
 3237TIP3    H143246   0.801   5.748   8.075
 3237TIP3    H243247   0.783   5.881   8.142
 3238TIP3   OH243248   0.829   7.559   6.411
 3238TIP3    H143249   0.875   7.644   6.401
 3238TIP3    H243250   0.790   7.542   6.323
 3239TIP3   OH243251   0.088   7.527   6.851
 3239TIP3    H143252   0.039   7.461   6.798
 3239TIP3    H243253   0.097   7.476   6.934
 3240TIP3   OH243254   0.136   7.345   7.052
 3240TIP3    H143255   0.095   7.260   7.075
 3240TIP3    H243256   0.190   7.362   7.132
 3241TIP3   OH243257   1.882   7.408   7.324
 3241TIP3    H143258   1.913   7.400   7.416
 3241TIP3    H243259   1.914   7.497   7.304
 3242TIP3   OH243260   1.837   7.360   7.643
 3242TIP3    H143261   1.806   7.281   7.594
 3242TIP3    H243262   1.863   7.320   7.728
 3243TIP3   OH243263   1.721   6.935   8.126
 3243TIP3    H143264   1.635   6.951   8.172
 3243TIP3    H243265   1.761   7.024   8.137
 3244TIP3   OH243266   1.841   6.780   6.638
 3244TIP3    H143267   1.931   6.817   6.656
 3244TIP3    H243268   1.832   6.720   6.715
 3245TIP3   OH243269   1.848   6.600   6.845
 3245TIP3    H143270   1.772   6.548   6.881
 3245TIP3    H243271   1.906   6.607   6.923
 3246TIP3   OH243272   1.818   6.862   7.310
 3246TIP3    H143273   1.886   6.794   7.292
 3246TIP3    H243274   1.858   6.942   7.270
 3247TIP3   OH243275   1.710   7.141   7.565
 3247TIP3    H143276   1.639   7.185   7.616
 3247TIP3    H243277   1.663   7.114   7.482
 3248TIP3   OH243278   1.872   6.573   6.450
 3248TIP3    H143279   1.823   6.624   6.381
 3248TIP3    H243280   1.870   6.640   6.520
 3249TIP3   OH243281   1.726   6.288   6.333
 3249TIP3    H143282   1.676   6.357   6.284
 3249TIP3    H243283   1.688   6.205   6.303
 3250TIP3   OH243284   1.644   6.444   6.915
 3250TIP3    H143285   1.631   6.353   6.882
 3250TIP3    H243286   1.611   6.439   7.007
 3251TIP3   OH243287   0.165   6.665   7.282
 3251TIP3    H143288   0.156   6.628   7.193
 3251TIP3    H243289   0.258   6.639   7.308
 3252TIP3   OH243290   1.753   6.621   7.880
 3252TIP3    H143291   1.787   6.528   7.880
 3252TIP3    H243292   1.824   6.667   7.834
 3253TIP3   OH243293   1.854   6.370   7.908
 3253TIP3    H143294   1.765   6.328   7.909
 3253TIP3    H243295   1.915   6.292   7.919
 3254TIP3   OH243296   1.629   6.214   6.765
 3254TIP3    H143297   1.633   6.116   6.774
 3254TIP3    H243298   1.712   6.224   6.715
 3255TIP3   OH243299   1.705   6.265   7.295
 3255TIP3    H143300   1.804   6.267   7.299
 3255TIP3    H243301   1.688   6.279   7.390
 3256TIP3   OH243302   1.692   6.333   7.555
 3256TIP3    H143303   1.604   6.357   7.591
 3256TIP3    H243304   1.734   6.421   7.544
 3257TIP3   OH243305   0.116   6.197   7.971
 3257TIP3    H143306   0.207   6.161   7.975
 3257TIP3    H243307   0.063   6.117   7.961
 3258TIP3   OH243308   1.900   5.758   8.071
 3258TIP3    H143309   1.945   5.684   8.025
 3258TIP3    H243310   1.902   5.826   8.000
 3259TIP3   OH243311   1.705   5.959   6.752
 3259TIP3    H143312   1.712   5.907   6.835
 3259TIP3    H243313   1.637   5.907   6.704
 3260TIP3   OH243314   0.255   6.007   7.266
 3260TIP3    H143315   0.284   5.916   7.247
 3260TIP3    H243316   0.337   6.060   7.252
 3261TIP3   OH243317   0.097   6.284   7.328
 3261TIP3    H143318   0.163   6.270   7.257
 3261TIP3    H243319   0.108   6.379   7.344
 3262TIP3   OH243320   1.843   5.966   7.916
 3262TIP3    H143321   1.773   5.989   7.981
 3262TIP3    H243322   1.791   5.935   7.841
 3263TIP3   OH243323   0.101   5.951   6.715
 3263TIP3    H143324   0.004   5.951   6.700
 3263TIP3    H243325   0.128   5.993   6.631
 3264TIP3   OH243326   1.563   7.442   6.929
 3264TIP3    H143327   1.634   7.441   6.861
 3264TIP3    H243328   1.606   7.487   7.005
 3265TIP3   OH243329   0.083   5.795   7.540
 3265TIP3    H143330   0.040   5.790   7.627
 3265TIP3    H243331   0.036   5.868   7.496
 3266TIP3   OH243332   0.303   7.088   7.971
 3266TIP3    H143333   0.293   7.062   7.877
 3266TIP3    H243334   0.278   7.002   8.011
 3267TIP3   OH243335   0.593   7.249   7.605
 3267TIP3    H143336   0.589   7.342   7.577
 3267TIP3    H243337   0.690   7.236   7.600
 3268TIP3   OH243338   1.012   7.365   7.858
 3268TIP3    H143339   1.022   7.356   7.954
 3268TIP3    H243340   1.101   7.399   7.833
 3269TIP3   OH243341   1.234   7.525   7.827
 3269TIP3    H143342   1.314   7.474   7.807
 3269TIP3    H243343   1.263   7.577   7.905
 3270TIP3   OH243344   1.740   5.721   7.727
 3270TIP3    H143345   1.661   5.757   7.683
 3270TIP3    H243346   1.751   5.634   7.684
 3271TIP3   OH243347   0.321   7.553   7.577
 3271TIP3    H143348   0.237   7.590   7.540
 3271TIP3    H243349   0.296   7.537   7.669
 3272TIP3   OH243350   0.585   7.511   7.473
 3272TIP3    H143351   0.494   7.529   7.507
 3272TIP3    H243352   0.595   7.582   7.407
 3273TIP3   OH243353   1.031   7.471   7.418
 3273TIP3    H143354   0.956   7.524   7.390
 3273TIP3    H243355   1.072   7.534   7.481
 3274TIP3   OH243356   1.245   7.345   7.548
 3274TIP3    H143357   1.187   7.385   7.480
 3274TIP3    H243358   1.326   7.395   7.528
 3275TIP3   OH243359   1.515   7.495   7.525
 3275TIP3    H143360   1.534   7.584   7.490
 3275TIP3    H243361   1.543   7.442   7.447
 3276TIP3   OH243362   0.284   7.403   7.271
 3276TIP3    H143363   0.261   7.349   7.349
 3276TIP3    H243364   0.368   7.359   7.242
 3277TIP3   OH243365   0.470   7.246   7.158
 3277TIP3    H143366   0.460   7.156   7.194
 3277TIP3    H243367   0.559   7.270   7.192
 3278TIP3   OH243368   0.714   7.281   7.273
 3278TIP3    H143369   0.758   7.193   7.264
 3278TIP3    H243370   0.747   7.310   7.359
 3279TIP3   OH243371   1.045   5.824   7.164
 3279TIP3    H143372   0.968   5.769   7.188
 3279TIP3    H243373   1.064   5.803   7.071
 3280TIP3   OH243374   1.626   5.672   7.139
 3280TIP3    H143375   1.674   5.745   7.095
 3280TIP3    H243376   1.534   5.687   7.110
 3281TIP3   OH243377   1.775   5.824   6.979
 3281TIP3    H143378   1.842   5.762   6.940
 3281TIP3    H243379   1.835   5.901   6.999
 3282TIP3   OH243380   0.354   5.749   6.944
 3282TIP3    H143381   0.266   5.740   6.900
 3282TIP3    H243382   0.392   5.659   6.936
 3283TIP3   OH243383   0.234   5.712   6.516
 3283TIP3    H143384   0.237   5.774   6.442
 3283TIP3    H243385   0.168   5.751   6.575
 3284TIP3   OH243386   0.776   5.712   6.942
 3284TIP3    H143387   0.852   5.737   6.889
 3284TIP3    H243388   0.809   5.722   7.033
 3285TIP3   OH243389   1.363   5.733   7.064
 3285TIP3    H143390   1.318   5.756   6.982
 3285TIP3    H243391   1.298   5.672   7.105
 3286TIP3   OH243392   1.452   5.779   6.654
 3286TIP3    H143393   1.369   5.819   6.623
 3286TIP3    H243394   1.423   5.692   6.686
 3287TIP3   OH243395   0.174   7.354   6.564
 3287TIP3    H143396   0.160   7.358   6.468
 3287TIP3    H243397   0.204   7.445   6.578
 3288TIP3   OH243398   0.412   5.917   6.371
 3288TIP3    H143399   0.439   5.851   6.437
 3288TIP3    H243400   0.484   5.983   6.374
 3289TIP3   OH243401   1.107   7.463   6.431
 3289TIP3    H143402   1.188   7.491   6.386
 3289TIP3    H243403   1.044   7.468   6.357
 3290TIP3   OH243404   1.735   7.390   6.732
 3290TIP3    H143405   1.725   7.310   6.675
 3290TIP3    H243406   1.723   7.462   6.667
 3291TIP3   OH243407   0.297   5.798   7.868
 3291TIP3    H143408   0.234   5.731   7.902
 3291TIP3    H243409   0.378   5.771   7.916
 3292TIP3   OH243410   0.512   5.754   8.053
 3292TIP3    H143411   0.579   5.693   8.018
 3292TIP3    H243412   0.468   5.695   8.116
 3293TIP3   OH243413   0.385   7.361   6.335
 3293TIP3    H143414   0.359   7.432   6.396
 3293TIP3    H243415   0.439   7.405   6.268
 3294TIP3   OH243416   1.360   5.661   8.096
 3294TIP3    H143417   1.375   5.620   8.184
 3294TIP3    H243418   1.449   5.650   8.056
 3295TIP3   OH243419   1.677   7.288   7.925
 3295TIP3    H143420   1.598   7.280   7.866
 3295TIP3    H243421   1.667   7.380   7.954
 3296TIP3   OH243422   3.130   6.647   6.917
 3296TIP3    H143423   3.132   6.738   6.953
 3296TIP3    H243424   3.063   6.657   6.846
 3297TIP3   OH243425   3.024   6.567   7.278
 3297TIP3    H143426   3.038   6.526   7.366
 3297TIP3    H243427   2.951   6.513   7.245
 3298TIP3   OH243428   2.231   6.557   7.403
 3298TIP3    H143429   2.230   6.466   7.438
 3298TIP3    H243430   2.295   6.599   7.462
 3299TIP3   OH243431   3.364   6.834   7.087
 3299TIP3    H143432   3.350   6.769   7.158
 3299TIP3    H243433   3.380   6.914   7.141
 3300TIP3   OH243434   2.338   7.013   7.221
 3300TIP3    H143435   2.310   6.920   7.209
 3300TIP3    H243436   2.434   6.998   7.227
 3301TIP3   OH243437   2.008   6.333   6.814
 3301TIP3    H143438   1.980   6.425   6.823
 3301TIP3    H243439   1.945   6.300   6.748
 3302TIP3   OH243440   2.053   6.594   7.052
 3302TIP3    H143441   2.093   6.506   7.071
 3302TIP3    H243442   2.129   6.652   7.042
 3303TIP3   OH243443   3.098   7.400   7.106
 3303TIP3    H143444   3.170   7.349   7.063
 3303TIP3    H243445   3.075   7.335   7.173
 3304TIP3   OH243446   2.837   6.871   7.344
 3304TIP3    H143447   2.851   6.803   7.277
 3304TIP3    H243448   2.929   6.882   7.378
 3305TIP3   OH243449   3.702   5.976   7.343
 3305TIP3    H143450   3.721   6.023   7.427
 3305TIP3    H243451   3.780   5.999   7.290
 3306TIP3   OH243452   3.215   6.286   7.364
 3306TIP3    H143453   3.232   6.191   7.379
 3306TIP3    H243454   3.164   6.279   7.281
 3307TIP3   OH243455   2.490   6.049   7.034
 3307TIP3    H143456   2.500   6.137   6.991
 3307TIP3    H243457   2.429   6.007   6.970
 3308TIP3   OH243458   3.265   6.063   6.908
 3308TIP3    H143459   3.312   6.047   6.994
 3308TIP3    H243460   3.293   6.152   6.883
 3309TIP3   OH243461   2.154   6.359   7.141
 3309TIP3    H143462   2.217   6.318   7.202
 3309TIP3    H243463   2.177   6.312   7.057
 3310TIP3   OH243464   2.643   6.482   7.078
 3310TIP3    H143465   2.724   6.440   7.113
 3310TIP3    H243466   2.609   6.411   7.021
 3311TIP3   OH243467   3.722   6.117   7.591
 3311TIP3    H143468   3.687   6.197   7.546
 3311TIP3    H243469   3.737   6.152   7.680
 3312TIP3   OH243470   2.373   5.979   7.478
 3312TIP3    H143471   2.342   6.026   7.398
 3312TIP3    H243472   2.308   6.010   7.545
 3313TIP3   OH243473   3.064   6.946   6.810
 3313TIP3    H143474   3.002   6.923   6.738
 3313TIP3    H243475   3.036   7.037   6.832
 3314TIP3   OH243476   2.603   6.737   7.441
 3314TIP3    H143477   2.537   6.807   7.464
 3314TIP3    H243478   2.677   6.793   7.412
 3315TIP3   OH243479   3.415   6.032   7.136
 3315TIP3    H143480   3.489   5.970   7.142
 3315TIP3    H243481   3.447   6.102   7.196
 3316TIP3   OH243482   2.339   6.166   7.262
 3316TIP3    H143483   2.402   6.225   7.310
 3316TIP3    H243484   2.394   6.137   7.187
 3317TIP3   OH243485   2.465   6.947   7.541
 3317TIP3    H143486   2.452   7.034   7.502
 3317TIP3    H243487   2.383   6.939   7.596
 3318TIP3   OH243488   2.079   6.906   6.646
 3318TIP3    H143489   2.061   6.961   6.567
 3318TIP3    H243490   2.082   6.974   6.717
 3319TIP3   OH243491   3.438   7.069   7.316
 3319TIP3    H143492   3.347   7.095   7.343
 3319TIP3    H243493   3.461   7.150   7.267
 3320TIP3   OH243494   3.419   5.897   7.441
 3320TIP3    H143495   3.347   5.926   7.382
 3320TIP3    H243496   3.498   5.930   7.395
 3321TIP3   OH243497   2.729   5.715   7.206
 3321TIP3    H143498   2.698   5.623   7.219
 3321TIP3    H243499   2.653   5.766   7.245
 3322TIP3   OH243500   3.274   7.226   7.000
 3322TIP3    H143501   3.283   7.160   6.929
 3322TIP3    H243502   3.353   7.283   6.980
 3323TIP3   OH243503   3.381   7.033   6.832
 3323TIP3    H143504   3.359   6.970   6.762
 3323TIP3    H243505   3.369   6.975   6.909
 3324TIP3   OH243506   3.531   6.904   7.702
 3324TIP3    H143507   3.553   6.840   7.631
 3324TIP3    H243508   3.550   6.987   7.654
 3325TIP3   OH243509   2.988   6.609   6.671
 3325TIP3    H143510   2.931   6.681   6.636
 3325TIP3    H243511   3.035   6.581   6.592
 3326TIP3   OH243512   3.737   6.552   7.490
 3326TIP3    H143513   3.668   6.621   7.484
 3326TIP3    H243514   3.799   6.585   7.421
 3327TIP3   OH243515   3.375   6.639   6.792
 3327TIP3    H143516   3.291   6.640   6.844
 3327TIP3    H243517   3.431   6.585   6.852
 3328TIP3   OH243518   3.319   6.457   7.678
 3328TIP3    H143519   3.330   6.548   7.707
 3328TIP3    H243520   3.248   6.471   7.613
 3329TIP3   OH243521   2.489   6.663   6.963
 3329TIP3    H143522   2.460   6.622   6.879
 3329TIP3    H243523   2.557   6.600   6.994
 3330TIP3   OH243524   2.633   7.000   7.223
 3330TIP3    H143525   2.647   6.987   7.128
 3330TIP3    H243526   2.712   6.957   7.263
 3331TIP3   OH243527   2.518   6.520   7.318
 3331TIP3    H143528   2.560   6.524   7.230
 3331TIP3    H243529   2.556   6.600   7.362
 3332TIP3   OH243530   3.193   7.128   7.394
 3332TIP3    H143531   3.154   7.182   7.465
 3332TIP3    H243532   3.174   7.038   7.424
 3333TIP3   OH243533   2.621   6.975   7.760
 3333TIP3    H143534   2.552   7.031   7.803
 3333TIP3    H243535   2.579   6.957   7.673
 3334TIP3   OH243536   3.232   6.520   6.558
 3334TIP3    H143537   3.295   6.563   6.620
 3334TIP3    H243538   3.248   6.565   6.473
 3335TIP3   OH243539   2.335   6.611   7.665
 3335TIP3    H143540   2.351   6.684   7.726
 3335TIP3    H243541   2.258   6.573   7.710
 3336TIP3   OH243542   2.998   7.215   6.832
 3336TIP3    H143543   3.003   7.266   6.915
 3336TIP3    H243544   2.931   7.262   6.781
 3337TIP3   OH243545   2.457   7.160   7.875
 3337TIP3    H143546   2.444   7.200   7.787
 3337TIP3    H243547   2.364   7.133   7.894
 3338TIP3   OH243548   3.557   5.689   6.541
 3338TIP3    H143549   3.474   5.715   6.588
 3338TIP3    H243550   3.578   5.774   6.500
 3339TIP3   OH243551   2.376   6.558   6.737
 3339TIP3    H143552   2.351   6.640   6.690
 3339TIP3    H243553   2.327   6.491   6.688
 3340TIP3   OH243554   2.041   6.821   7.607
 3340TIP3    H143555   2.003   6.801   7.520
 3340TIP3    H243556   2.068   6.730   7.632
 3341TIP3   OH243557   2.000   7.094   7.265
 3341TIP3    H143558   2.088   7.056   7.262
 3341TIP3    H243559   2.011   7.160   7.335
 3342TIP3   OH243560   3.799   7.162   7.857
 3342TIP3    H143561   3.788   7.066   7.850
 3342TIP3    H243562   3.713   7.187   7.899
 3343TIP3   OH243563   2.881   7.097   7.761
 3343TIP3    H143564   2.900   7.170   7.824
 3343TIP3    H243565   2.787   7.076   7.776
 3344TIP3   OH243566   2.923   7.514   6.677
 3344TIP3    H143567   2.977   7.573   6.623
 3344TIP3    H243568   2.931   7.562   6.762
 3345TIP3   OH243569   2.306   7.352   6.918
 3345TIP3    H143570   2.347   7.333   7.005
 3345TIP3    H243571   2.219   7.311   6.933
 3346TIP3   OH243572   3.334   7.465   6.464
 3346TIP3    H143573   3.351   7.411   6.386
 3346TIP3    H243574   3.258   7.419   6.505
 3347TIP3   OH243575   3.183   7.387   6.701
 3347TIP3    H143576   3.092   7.415   6.720
 3347TIP3    H243577   3.185   7.299   6.741
 3348TIP3   OH243578   3.497   6.284   7.895
 3348TIP3    H143579   3.444   6.329   7.826
 3348TIP3    H243580   3.497   6.192   7.860
 3349TIP3   OH243581   2.258   6.946   7.708
 3349TIP3    H143582   2.256   6.904   7.796
 3349TIP3    H243583   2.172   6.917   7.669
 3350TIP3   OH243584   2.518   5.835   7.309
 3350TIP3    H143585   2.433   5.830   7.261
 3350TIP3    H243586   2.486   5.878   7.391
 3351TIP3   OH243587   3.021   5.767   7.613
 3351TIP3    H143588   3.060   5.722   7.690
 3351TIP3    H243589   2.928   5.775   7.641
 3352TIP3   OH243590   3.274   6.188   7.694
 3352TIP3    H143591   3.228   6.160   7.777
 3352TIP3    H243592   3.252   6.283   7.689
 3353TIP3   OH243593   2.954   5.966   6.381
 3353TIP3    H143594   2.905   5.944   6.463
 3353TIP3    H243595   2.968   5.878   6.343
 3354TIP3   OH243596   2.518   6.282   7.425
 3354TIP3    H143597   2.438   6.291   7.480
 3354TIP3    H243598   2.526   6.375   7.392
 3355TIP3   OH243599   2.497   6.278   6.906
 3355TIP3    H143600   2.405   6.287   6.879
 3355TIP3    H243601   2.543   6.281   6.818
 3356TIP3   OH243602   3.083   6.347   6.770
 3356TIP3    H143603   3.087   6.442   6.744
 3356TIP3    H243604   3.145   6.306   6.707
 3357TIP3   OH243605   2.957   6.399   7.941
 3357TIP3    H143606   2.925   6.314   7.978
 3357TIP3    H243607   3.046   6.402   7.981
 3358TIP3   OH243608   3.155   6.327   7.079
 3358TIP3    H143609   3.146   6.417   7.042
 3358TIP3    H243610   3.140   6.276   6.999
 3359TIP3   OH243611   2.266   6.305   7.545
 3359TIP3    H143612   2.303   6.338   7.628
 3359TIP3    H243613   2.235   6.217   7.577
 3360TIP3   OH243614   1.946   6.033   7.012
 3360TIP3    H143615   2.026   6.028   7.066
 3360TIP3    H243616   1.976   6.082   6.934
 3361TIP3   OH243617   2.069   6.094   6.529
 3361TIP3    H143618   2.126   6.160   6.486
 3361TIP3    H243619   2.000   6.153   6.566
 3362TIP3   OH243620   3.081   6.462   7.515
 3362TIP3    H143621   3.134   6.392   7.470
 3362TIP3    H243622   3.019   6.408   7.571
 3363TIP3   OH243623   2.803   6.079   7.003
 3363TIP3    H143624   2.711   6.057   7.026
 3363TIP3    H243625   2.854   6.013   7.054
 3364TIP3   OH243626   2.227   6.212   6.912
 3364TIP3    H143627   2.153   6.232   6.852
 3364TIP3    H243628   2.264   6.128   6.876
 3365TIP3   OH243629   2.600   6.283   6.659
 3365TIP3    H143630   2.683   6.233   6.672
 3365TIP3    H243631   2.613   6.323   6.572
 3366TIP3   OH243632   3.196   5.988   7.321
 3366TIP3    H143633   3.122   5.965   7.379
 3366TIP3    H243634   3.188   5.928   7.244
 3367TIP3   OH243635   3.511   7.545   7.992
 3367TIP3    H143636   3.532   7.589   7.908
 3367TIP3    H243637   3.592   7.568   8.041
 3368TIP3   OH243638   2.292   6.771   7.929
 3368TIP3    H143639   2.348   6.787   8.008
 3368TIP3    H243640   2.203   6.775   7.969
 3369TIP3   OH243641   2.860   6.355   7.194
 3369TIP3    H143642   2.916   6.325   7.121
 3369TIP3    H243643   2.844   6.273   7.243
 3370TIP3   OH243644   2.317   5.962   6.844
 3370TIP3    H143645   2.261   5.889   6.878
 3370TIP3    H243646   2.378   5.911   6.790
 3371TIP3   OH243647   2.757   6.153   7.434
 3371TIP3    H143648   2.682   6.214   7.419
 3371TIP3    H243649   2.819   6.205   7.487
 3372TIP3   OH243650   2.833   6.844   6.633
 3372TIP3    H143651   2.774   6.785   6.582
 3372TIP3    H243652   2.779   6.849   6.715
 3373TIP3   OH243653   3.557   6.754   7.489
 3373TIP3    H143654   3.607   6.815   7.428
 3373TIP3    H243655   3.473   6.744   7.442
 3374TIP3   OH243656   2.931   6.829   7.716
 3374TIP3    H143657   2.913   6.801   7.806
 3374TIP3    H243658   2.906   6.923   7.719
 3375TIP3   OH243659   3.295   6.237   6.594
 3375TIP3    H143660   3.369   6.266   6.650
 3375TIP3    H243661   3.276   6.317   6.543
 3376TIP3   OH243662   2.329   6.744   7.174
 3376TIP3    H143663   2.387   6.725   7.097
 3376TIP3    H243664   2.338   6.665   7.228
 3377TIP3   OH243665   2.005   6.573   7.736
 3377TIP3    H143666   2.007   6.505   7.806
 3377TIP3    H243667   1.962   6.524   7.663
 3378TIP3   OH243668   2.703   6.529   7.898
 3378TIP3    H143669   2.657   6.465   7.843
 3378TIP3    H243670   2.794   6.491   7.898
 3379TIP3   OH243671   3.216   7.058   7.760
 3379TIP3    H143672   3.134   7.062   7.709
 3379TIP3    H243673   3.189   7.114   7.837
 3380TIP3   OH243674   3.760   6.247   6.562
 3380TIP3    H143675   3.712   6.283   6.484
 3380TIP3    H243676   3.826   6.315   6.581
 3381TIP3   OH243677   3.780   6.884   7.824
 3381TIP3    H143678   3.687   6.884   7.791
 3381TIP3    H243679   3.829   6.869   7.739
 3382TIP3   OH243680   3.585   7.129   6.576
 3382TIP3    H143681   3.503   7.118   6.626
 3382TIP3    H243682   3.554   7.162   6.489
 3383TIP3   OH243683   3.312   6.658   7.296
 3383TIP3    H143684   3.218   6.633   7.295
 3383TIP3    H243685   3.354   6.580   7.256
 3384TIP3   OH243686   2.551   7.088   6.958
 3384TIP3    H143687   2.589   7.178   6.954
 3384TIP3    H243688   2.460   7.102   6.930
 3385TIP3   OH243689   2.686   6.847   6.865
 3385TIP3    H143690   2.647   6.936   6.875
 3385TIP3    H243691   2.625   6.791   6.916
 3386TIP3   OH243692   2.742   7.273   7.572
 3386TIP3    H143693   2.808   7.337   7.537
 3386TIP3    H243694   2.797   7.230   7.641
 3387TIP3   OH243695   2.570   7.351   6.827
 3387TIP3    H143696   2.473   7.355   6.837
 3387TIP3    H243697   2.595   7.436   6.869
 3388TIP3   OH243698   3.074   6.869   7.478
 3388TIP3    H143699   3.034   6.836   7.563
 3388TIP3    H243700   3.114   6.789   7.442
 3389TIP3   OH243701   3.351   6.962   6.379
 3389TIP3    H143702   3.332   6.936   6.472
 3389TIP3    H243703   3.354   6.874   6.337
 3390TIP3   OH243704   3.392   7.332   7.731
 3390TIP3    H143705   3.306   7.290   7.711
 3390TIP3    H243706   3.403   7.392   7.653
 3391TIP3   OH243707   3.742   7.378   6.475
 3391TIP3    H143708   3.811   7.404   6.412
 3391TIP3    H243709   3.664   7.375   6.418
 3392TIP3   OH243710   2.217   6.069   7.680
 3392TIP3    H143711   2.145   6.107   7.735
 3392TIP3    H243712   2.207   5.975   7.702
 3393TIP3   OH243713   3.405   6.827   6.612
 3393TIP3    H143714   3.391   6.758   6.681
 3393TIP3    H243715   3.501   6.842   6.617
 3394TIP3   OH243716   2.150   7.221   7.492
 3394TIP3    H143717   2.226   7.164   7.514
 3394TIP3    H243718   2.148   7.279   7.569
 3395TIP3   OH243719   2.607   7.040   6.500
 3395TIP3    H143720   2.694   7.016   6.536
 3395TIP3    H243721   2.608   7.138   6.509
 3396TIP3   OH243722   2.293   6.782   6.536
 3396TIP3    H143723   2.211   6.812   6.580
 3396TIP3    H243724   2.333   6.866   6.512
 3397TIP3   OH243725   3.042   6.055   7.590
 3397TIP3    H143726   3.134   6.074   7.612
 3397TIP3    H243727   3.034   5.959   7.606
 3398TIP3   OH243728   3.142   5.937   6.714
 3398TIP3    H143729   3.164   5.997   6.642
 3398TIP3    H243730   3.187   5.981   6.789
 3399TIP3   OH243731   2.902   7.228   6.512
 3399TIP3    H143732   2.829   7.283   6.544
 3399TIP3    H243733   2.954   7.289   6.455
 3400TIP3   OH243734   2.822   6.151   6.734
 3400TIP3    H143735   2.897   6.212   6.745
 3400TIP3    H243736   2.805   6.127   6.827
 3401TIP3   OH243737   2.943   6.299   7.679
 3401TIP3    H143738   2.945   6.319   7.775
 3401TIP3    H243739   2.978   6.208   7.670
 3402TIP3   OH243740   2.904   5.844   6.826
 3402TIP3    H143741   2.892   5.894   6.909
 3402TIP3    H243742   2.988   5.886   6.796
 3403TIP3   OH243743   2.603   7.310   6.560
 3403TIP3    H143744   2.648   7.384   6.515
 3403TIP3    H243745   2.586   7.345   6.650
 3404TIP3   OH243746   3.510   6.059   7.757
 3404TIP3    H143747   3.421   6.086   7.726
 3404TIP3    H243748   3.559   6.056   7.672
 3405TIP3   OH243749   3.405   6.423   7.153
 3405TIP3    H143750   3.327   6.365   7.156
 3405TIP3    H243751   3.473   6.372   7.203
 3406TIP3   OH243752   2.344   7.048   6.391
 3406TIP3    H143753   2.433   7.040   6.431
 3406TIP3    H243754   2.357   7.110   6.317
 3407TIP3   OH243755   2.156   6.338   6.403
 3407TIP3    H143756   2.201   6.417   6.370
 3407TIP3    H243757   2.067   6.344   6.367
 3408TIP3   OH243758   3.485   7.361   7.317
 3408TIP3    H143759   3.490   7.429   7.245
 3408TIP3    H243760   3.580   7.361   7.341
 3409TIP3   OH243761   2.268   5.769   7.232
 3409TIP3    H143762   2.260   5.747   7.137
 3409TIP3    H243763   2.235   5.684   7.271
 3410TIP3   OH243764   2.103   7.142   6.813
 3410TIP3    H143765   2.033   7.205   6.833
 3410TIP3    H243766   2.146   7.191   6.740
 3411TIP3   OH243767   2.039   7.454   7.957
 3411TIP3    H143768   2.104   7.444   8.031
 3411TIP3    H243769   2.013   7.361   7.947
 3412TIP3   OH243770   2.548   7.279   8.140
 3412TIP3    H143771   2.640   7.248   8.136
 3412TIP3    H243772   2.511   7.237   8.061
 3413TIP3   OH243773   3.149   7.181   7.990
 3413TIP3    H143774   3.127   7.090   8.019
 3413TIP3    H243775   3.240   7.189   8.027
 3414TIP3   OH243776   3.475   7.217   6.334
 3414TIP3    H143777   3.426   7.131   6.331
 3414TIP3    H243778   3.462   7.250   6.244
 3415TIP3   OH243779   2.032   6.798   8.039
 3415TIP3    H143780   1.987   6.712   8.043
 3415TIP3    H243781   1.990   6.838   7.959
 3416TIP3   OH243782   2.704   6.791   7.942
 3416TIP3    H143783   2.681   6.850   7.866
 3416TIP3    H243784   2.699   6.699   7.903
 3417TIP3   OH243785   3.283   6.788   7.737
 3417TIP3    H143786   3.371   6.834   7.739
 3417TIP3    H243787   3.228   6.869   7.739
 3418TIP3   OH243788   2.174   6.500   7.997
 3418TIP3    H143789   2.257   6.452   8.010
 3418TIP3    H243790   2.184   6.569   8.066
 3419TIP3   OH243791   2.645   6.661   6.505
 3419TIP3    H143792   2.559   6.623   6.530
 3419TIP3    H243793   2.670   6.606   6.426
 3420TIP3   OH243794   2.515   6.406   7.680
 3420TIP3    H143795   2.460   6.487   7.682
 3420TIP3    H243796   2.593   6.439   7.630
 3421TIP3   OH243797   3.075   6.700   8.060
 3421TIP3    H143798   3.129   6.651   7.996
 3421TIP3    H243799   3.044   6.630   8.120
 3422TIP3   OH243800   2.655   6.200   7.803
 3422TIP3    H143801   2.657   6.135   7.731
 3422TIP3    H243802   2.624   6.279   7.754
 3423TIP3   OH243803   2.623   5.975   7.585
 3423TIP3    H143804   2.668   6.031   7.517
 3423TIP3    H243805   2.529   5.987   7.560
 3424TIP3   OH243806   2.744   6.563   7.587
 3424TIP3    H143807   2.831   6.594   7.558
 3424TIP3    H243808   2.686   6.634   7.553
 3425TIP3   OH243809   3.173   6.337   8.118
 3425TIP3    H143810   3.180   6.251   8.166
 3425TIP3    H243811   3.266   6.357   8.100
 3426TIP3   OH243812   3.356   6.636   7.953
 3426TIP3    H143813   3.315   6.682   7.877
 3426TIP3    H243814   3.445   6.619   7.918
 3427TIP3   OH243815   2.445   6.256   8.011
 3427TIP3    H143816   2.367   6.205   7.978
 3427TIP3    H243817   2.500   6.261   7.932
 3428TIP3   OH243818   2.736   5.738   7.617
 3428TIP3    H143819   2.702   5.830   7.611
 3428TIP3    H243820   2.660   5.690   7.581
 3429TIP3   OH243821   2.832   6.159   8.024
 3429TIP3    H143822   2.760   6.146   8.090
 3429TIP3    H243823   2.778   6.152   7.943
 3430TIP3   OH243824   3.104   6.112   7.904
 3430TIP3    H143825   3.010   6.105   7.928
 3430TIP3    H243826   3.139   6.050   7.973
 3431TIP3   OH243827   3.191   5.930   8.077
 3431TIP3    H143828   3.241   5.848   8.095
 3431TIP3    H243829   3.209   5.987   8.156
 3432TIP3   OH243830   2.239   6.083   7.995
 3432TIP3    H143831   2.234   5.997   7.950
 3432TIP3    H243832   2.224   6.057   8.089
 3433TIP3   OH243833   2.683   5.676   7.886
 3433TIP3    H143834   2.740   5.598   7.900
 3433TIP3    H243835   2.699   5.691   7.790
 3434TIP3   OH243836   2.697   5.793   8.151
 3434TIP3    H143837   2.690   5.755   8.061
 3434TIP3    H243838   2.692   5.887   8.130
 3435TIP3   OH243839   2.713   7.524   6.417
 3435TIP3    H143840   2.788   7.554   6.471
 3435TIP3    H243841   2.729   7.576   6.337
 3436TIP3   OH243842   2.052   7.024   6.398
 3436TIP3    H143843   2.146   7.031   6.373
 3436TIP3    H243844   2.013   6.961   6.337
 3437TIP3   OH243845   1.951   7.495   6.864
 3437TIP3    H143846   1.874   7.443   6.831
 3437TIP3    H243847   1.978   7.439   6.940
 3438TIP3   OH243848   2.011   7.326   7.069
 3438TIP3    H143849   1.958   7.247   7.088
 3438TIP3    H243850   2.022   7.360   7.160
 3439TIP3   OH243851   3.748   7.426   7.319
 3439TIP3    H143852   3.788   7.425   7.408
 3439TIP3    H243853   3.812   7.477   7.269
 3440TIP3   OH243854   3.724   7.352   7.630
 3440TIP3    H143855   3.690   7.277   7.577
 3440TIP3    H243856   3.746   7.307   7.714
 3441TIP3   OH243857   3.607   6.932   8.120
 3441TIP3    H143858   3.516   6.944   8.156
 3441TIP3    H243859   3.644   7.020   8.144
 3442TIP3   OH243860   3.745   6.798   6.627
 3442TIP3    H143861   3.732   6.882   6.672
 3442TIP3    H243862   3.740   6.734   6.701
 3443TIP3   OH243863   3.748   6.602   6.854
 3443TIP3    H143864   3.660   6.570   6.885
 3443TIP3    H243865   3.804   6.591   6.934
 3444TIP3   OH243866   3.711   6.865   7.308
 3444TIP3    H143867   3.779   6.797   7.293
 3444TIP3    H243868   3.748   6.946   7.268
 3445TIP3   OH243869   3.581   7.137   7.555
 3445TIP3    H143870   3.507   7.179   7.602
 3445TIP3    H243871   3.540   7.109   7.470
 3446TIP3   OH243872   3.617   6.301   6.321
 3446TIP3    H143873   3.564   6.383   6.318
 3446TIP3    H243874   3.567   6.248   6.258
 3447TIP3   OH243875   3.523   6.459   6.912
 3447TIP3    H143876   3.507   6.372   6.870
 3447TIP3    H243877   3.496   6.443   7.005
 3448TIP3   OH243878   2.013   6.666   7.314
 3448TIP3    H143879   2.016   6.635   7.221
 3448TIP3    H243880   2.104   6.639   7.343
 3449TIP3   OH243881   3.642   6.627   7.878
 3449TIP3    H143882   3.678   6.535   7.879
 3449TIP3    H243883   3.716   6.678   7.841
 3450TIP3   OH243884   3.742   6.369   7.910
 3450TIP3    H143885   3.655   6.322   7.912
 3450TIP3    H243886   3.806   6.295   7.918
 3451TIP3   OH243887   3.517   6.217   6.760
 3451TIP3    H143888   3.503   6.125   6.788
 3451TIP3    H243889   3.589   6.202   6.697
 3452TIP3   OH243890   3.571   6.255   7.283
 3452TIP3    H143891   3.669   6.270   7.287
 3452TIP3    H243892   3.552   6.260   7.378
 3453TIP3   OH243893   3.574   6.329   7.539
 3453TIP3    H143894   3.482   6.353   7.564
 3453TIP3    H243895   3.617   6.416   7.526
 3454TIP3   OH243896   2.012   6.162   7.897
 3454TIP3    H143897   2.096   6.142   7.944
 3454TIP3    H243898   1.963   6.078   7.908
 3455TIP3   OH243899   3.787   5.756   8.072
 3455TIP3    H143900   3.827   5.682   8.023
 3455TIP3    H243901   3.787   5.826   8.003
 3456TIP3   OH243902   3.561   5.949   6.755
 3456TIP3    H143903   3.592   5.902   6.836
 3456TIP3    H243904   3.486   5.892   6.729
 3457TIP3   OH243905   2.113   5.994   7.270
 3457TIP3    H143906   2.158   5.908   7.261
 3457TIP3    H243907   2.183   6.058   7.249
 3458TIP3   OH243908   1.964   6.292   7.317
 3458TIP3    H143909   2.026   6.266   7.247
 3458TIP3    H243910   1.998   6.381   7.337
 3459TIP3   OH243911   3.724   5.970   7.926
 3459TIP3    H143912   3.655   5.993   7.991
 3459TIP3    H243913   3.672   5.942   7.848
 3460TIP3   OH243914   1.978   5.949   6.739
 3460TIP3    H143915   1.881   5.960   6.733
 3460TIP3    H243916   2.004   5.966   6.646
 3461TIP3   OH243917   3.456   7.408   6.934
 3461TIP3    H143918   3.509   7.402   6.852
 3461TIP3    H243919   3.512   7.466   6.988
 3462TIP3   OH243920   1.969   5.785   7.546
 3462TIP3    H143921   1.900   5.757   7.609
 3462TIP3    H243922   1.930   5.861   7.500
 3463TIP3   OH243923   2.192   7.102   7.948
 3463TIP3    H143924   2.108   7.141   7.919
 3463TIP3    H243925   2.165   7.060   8.030
 3464TIP3   OH243926   2.471   7.244   7.606
 3464TIP3    H143927   2.474   7.339   7.582
 3464TIP3    H243928   2.567   7.225   7.605
 3465TIP3   OH243929   2.887   7.359   7.875
 3465TIP3    H143930   2.899   7.348   7.971
 3465TIP3    H243931   2.973   7.395   7.849
 3466TIP3   OH243932   3.109   7.543   7.821
 3466TIP3    H143933   3.189   7.494   7.797
 3466TIP3    H243934   3.136   7.589   7.902
 3467TIP3   OH243935   3.631   5.722   7.725
 3467TIP3    H143936   3.547   5.754   7.689
 3467TIP3    H243937   3.639   5.633   7.683
 3468TIP3   OH243938   2.214   7.557   7.582
 3468TIP3    H143939   2.133   7.591   7.539
 3468TIP3    H243940   2.201   7.591   7.673
 3469TIP3   OH243941   2.454   7.498   7.484
 3469TIP3    H143942   2.362   7.521   7.513
 3469TIP3    H243943   2.470   7.566   7.416
 3470TIP3   OH243944   2.926   7.455   7.433
 3470TIP3    H143945   2.867   7.500   7.371
 3470TIP3    H243946   2.962   7.535   7.480
 3471TIP3   OH243947   3.143   7.346   7.561
 3471TIP3    H143948   3.070   7.376   7.501
 3471TIP3    H243949   3.214   7.406   7.532
 3472TIP3   OH243950   3.397   7.502   7.524
 3472TIP3    H143951   3.413   7.594   7.492
 3472TIP3    H243952   3.423   7.453   7.443
 3473TIP3   OH243953   2.193   7.401   7.289
 3473TIP3    H143954   2.167   7.332   7.353
 3473TIP3    H243955   2.278   7.366   7.255
 3474TIP3   OH243956   2.414   7.289   7.159
 3474TIP3    H143957   2.400   7.195   7.182
 3474TIP3    H243958   2.500   7.304   7.205
 3475TIP3   OH243959   2.645   7.287   7.297
 3475TIP3    H143960   2.675   7.195   7.285
 3475TIP3    H243961   2.645   7.296   7.394
 3476TIP3   OH243962   2.933   5.861   7.091
 3476TIP3    H143963   2.851   5.822   7.127
 3476TIP3    H243964   2.988   5.782   7.087
 3477TIP3   OH243965   3.503   5.677   7.138
 3477TIP3    H143966   3.568   5.736   7.096
 3477TIP3    H243967   3.418   5.714   7.104
 3478TIP3   OH243968   3.671   5.819   6.972
 3478TIP3    H143969   3.726   5.749   6.930
 3478TIP3    H243970   3.739   5.879   7.011
 3479TIP3   OH243971   2.221   5.729   6.964
 3479TIP3    H143972   2.128   5.721   6.934
 3479TIP3    H243973   2.259   5.643   6.936
 3480TIP3   OH243974   2.632   5.727   6.907
 3480TIP3    H143975   2.726   5.744   6.885
 3480TIP3    H243976   2.630   5.741   7.003
 3481TIP3   OH243977   3.257   5.748   7.060
 3481TIP3    H143978   3.228   5.761   6.970
 3481TIP3    H243979   3.204   5.671   7.090
 3482TIP3   OH243980   3.345   5.766   6.674
 3482TIP3    H143981   3.267   5.820   6.697
 3482TIP3    H243982   3.309   5.675   6.693
 3483TIP3   OH243983   2.092   7.325   6.614
 3483TIP3    H143984   2.035   7.275   6.554
 3483TIP3    H243985   2.089   7.413   6.576
 3484TIP3   OH243986   2.778   5.919   6.587
 3484TIP3    H143987   2.794   5.873   6.672
 3484TIP3    H243988   2.783   6.012   6.619
 3485TIP3   OH243989   3.614   7.377   6.723
 3485TIP3    H143990   3.628   7.293   6.675
 3485TIP3    H243991   3.581   7.434   6.652
 3486TIP3   OH243992   2.187   5.809   7.871
 3486TIP3    H143993   2.135   5.727   7.883
 3486TIP3    H243994   2.263   5.793   7.931
 3487TIP3   OH243995   2.388   5.751   8.055
 3487TIP3    H143996   2.465   5.700   8.021
 3487TIP3    H243997   2.343   5.682   8.108
 3488TIP3   OH243998   3.241   5.665   8.108
 3488TIP3    H143999   3.256   5.625   8.197
 3488TIP3    H244000   3.326   5.645   8.064
 3489TIP3   OH244001   3.574   7.280   7.923
 3489TIP3    H144002   3.499   7.273   7.859
 3489TIP3    H244003   3.559   7.369   7.959
 3490TIP3   OH244004   5.010   6.668   6.911
 3490TIP3    H144005   5.003   6.762   6.933
 3490TIP3    H244006   4.940   6.659   6.845
 3491TIP3   OH244007   4.911   6.557   7.262
 3491TIP3    H144008   4.916   6.516   7.351
 3491TIP3    H244009   4.843   6.504   7.216
 3492TIP3   OH244010   4.116   6.555   7.400
 3492TIP3    H144011   4.105   6.474   7.453
 3492TIP3    H244012   4.192   6.594   7.445
 3493TIP3   OH244013   5.233   6.862   7.120
 3493TIP3    H144014   5.209   6.790   7.181
 3493TIP3    H244015   5.265   6.930   7.180
 3494TIP3   OH244016   4.227   7.008   7.229
 3494TIP3    H144017   4.204   6.913   7.225
 3494TIP3    H244018   4.323   7.000   7.217
 3495TIP3   OH244019   3.898   6.345   6.794
 3495TIP3    H144020   3.855   6.421   6.834
 3495TIP3    H244021   3.822   6.293   6.764
 3496TIP3   OH244022   3.948   6.590   7.041
 3496TIP3    H144023   3.998   6.510   7.070
 3496TIP3    H244024   4.018   6.655   7.031
 3497TIP3   OH244025   4.985   7.407   7.079
 3497TIP3    H144026   5.043   7.335   7.045
 3497TIP3    H244027   4.962   7.370   7.165
 3498TIP3   OH244028   4.707   6.823   7.362
 3498TIP3    H144029   4.733   6.789   7.275
 3498TIP3    H244030   4.796   6.845   7.400
 3499TIP3   OH244031   5.595   5.979   7.350
 3499TIP3    H144032   5.611   6.027   7.434
 3499TIP3    H244033   5.674   6.003   7.299
 3500TIP3   OH244034   5.083   6.280   7.362
 3500TIP3    H144035   5.105   6.185   7.370
 3500TIP3    H244036   5.046   6.279   7.272
 3501TIP3   OH244037   4.367   6.050   7.045
 3501TIP3    H144038   4.388   6.133   6.997
 3501TIP3    H244039   4.320   6.001   6.976
 3502TIP3   OH244040   5.125   6.098   6.911
 3502TIP3    H144041   5.183   6.067   6.985
 3502TIP3    H244042   5.180   6.166   6.869
 3503TIP3   OH244043   4.048   6.361   7.151
 3503TIP3    H144044   4.110   6.314   7.208
 3503TIP3    H244045   4.061   6.315   7.066
 3504TIP3   OH244046   4.518   6.485   7.094
 3504TIP3    H144047   4.604   6.448   7.123
 3504TIP3    H244048   4.488   6.411   7.038
 3505TIP3   OH244049   5.608   6.111   7.591
 3505TIP3    H144050   5.571   6.194   7.550
 3505TIP3    H244051   5.630   6.146   7.678
 3506TIP3   OH244052   4.294   5.987   7.468
 3506TIP3    H144053   4.243   6.030   7.395
 3506TIP3    H244054   4.236   6.006   7.544
 3507TIP3   OH244055   4.961   6.946   6.814
 3507TIP3    H144056   4.944   6.922   6.721
 3507TIP3    H244057   4.944   7.042   6.814
 3508TIP3   OH244058   4.475   6.729   7.464
 3508TIP3    H144059   4.413   6.801   7.491
 3508TIP3    H244060   4.552   6.782   7.431
 3509TIP3   OH244061   5.313   6.052   7.111
 3509TIP3    H144062   5.330   5.987   7.180
 3509TIP3    H244063   5.399   6.098   7.108
 3510TIP3   OH244064   4.220   6.162   7.261
 3510TIP3    H144065   4.286   6.222   7.302
 3510TIP3    H244066   4.271   6.127   7.184
 3511TIP3   OH244067   4.347   6.955   7.549
 3511TIP3    H144068   4.333   7.037   7.498
 3511TIP3    H244069   4.263   6.951   7.601
 3512TIP3   OH244070   5.337   7.076   7.331
 3512TIP3    H144071   5.241   7.094   7.341
 3512TIP3    H244072   5.360   7.155   7.280
 3513TIP3   OH244073   5.310   5.903   7.441
 3513TIP3    H144074   5.232   5.940   7.396
 3513TIP3    H244075   5.384   5.937   7.387
 3514TIP3   OH244076   4.612   5.713   7.205
 3514TIP3    H144077   4.589   5.619   7.206
 3514TIP3    H244078   4.527   5.753   7.239
 3515TIP3   OH244079   5.177   7.228   6.982
 3515TIP3    H144080   5.203   7.158   6.919
 3515TIP3    H244081   5.253   7.289   6.976
 3516TIP3   OH244082   5.311   7.028   6.816
 3516TIP3    H144083   5.274   6.970   6.746
 3516TIP3    H244084   5.292   6.971   6.893
 3517TIP3   OH244085   5.414   6.899   7.697
 3517TIP3    H144086   5.421   6.827   7.630
 3517TIP3    H244087   5.441   6.976   7.642
 3518TIP3   OH244088   4.883   6.605   6.652
 3518TIP3    H144089   4.823   6.595   6.574
 3518TIP3    H244090   4.968   6.604   6.605
 3519TIP3   OH244091   5.620   6.557   7.501
 3519TIP3    H144092   5.548   6.623   7.492
 3519TIP3    H244093   5.681   6.591   7.432
 3520TIP3   OH244094   5.240   6.599   6.770
 3520TIP3    H144095   5.161   6.619   6.827
 3520TIP3    H244096   5.302   6.556   6.833
 3521TIP3   OH244097   5.239   6.455   7.670
 3521TIP3    H144098   5.223   6.542   7.709
 3521TIP3    H244099   5.163   6.451   7.609
 3522TIP3   OH244100   4.386   6.653   6.945
 3522TIP3    H144101   4.379   6.615   6.855
 3522TIP3    H244102   4.449   6.592   6.988
 3523TIP3   OH244103   4.523   7.009   7.225
 3523TIP3    H144104   4.538   6.986   7.133
 3523TIP3    H244105   4.585   6.953   7.275
 3524TIP3   OH244106   4.397   6.517   7.331
 3524TIP3    H144107   4.439   6.521   7.242
 3524TIP3    H244108   4.437   6.594   7.377
 3525TIP3   OH244109   5.080   7.122   7.375
 3525TIP3    H144110   5.037   7.177   7.443
 3525TIP3    H244111   5.062   7.032   7.409
 3526TIP3   OH244112   4.511   6.980   7.761
 3526TIP3    H144113   4.441   7.033   7.805
 3526TIP3    H244114   4.467   6.963   7.674
 3527TIP3   OH244115   5.126   6.547   6.527
 3527TIP3    H144116   5.180   6.571   6.606
 3527TIP3    H244117   5.156   6.611   6.461
 3528TIP3   OH244118   4.220   6.606   7.667
 3528TIP3    H144119   4.237   6.689   7.716
 3528TIP3    H244120   4.144   6.576   7.718
 3529TIP3   OH244121   4.854   7.241   6.789
 3529TIP3    H144122   4.858   7.230   6.885
 3529TIP3    H244123   4.821   7.333   6.780
 3530TIP3   OH244124   4.337   7.156   7.875
 3530TIP3    H144125   4.328   7.195   7.785
 3530TIP3    H244126   4.243   7.133   7.893
 3531TIP3   OH244127   5.457   5.690   6.555
 3531TIP3    H144128   5.363   5.718   6.564
 3531TIP3    H244129   5.497   5.762   6.504
 3532TIP3   OH244130   4.275   6.549   6.705
 3532TIP3    H144131   4.234   6.635   6.717
 3532TIP3    H244132   4.199   6.489   6.709
 3533TIP3   OH244133   3.914   6.818   7.609
 3533TIP3    H144134   3.865   6.799   7.527
 3533TIP3    H244135   3.952   6.730   7.626
 3534TIP3   OH244136   3.878   7.099   7.271
 3534TIP3    H144137   3.956   7.058   7.232
 3534TIP3    H244138   3.917   7.141   7.351
 3535TIP3   OH244139   5.681   7.158   7.846
 3535TIP3    H144140   5.668   7.062   7.837
 3535TIP3    H244141   5.595   7.182   7.891
 3536TIP3   OH244142   4.769   7.100   7.765
 3536TIP3    H144143   4.786   7.173   7.828
 3536TIP3    H244144   4.676   7.076   7.780
 3537TIP3   OH244145   4.821   7.518   6.679
 3537TIP3    H144146   4.865   7.564   6.607
 3537TIP3    H244147   4.824   7.590   6.747
 3538TIP3   OH244148   4.183   7.379   6.909
 3538TIP3    H144149   4.218   7.351   6.997
 3538TIP3    H244150   4.101   7.328   6.904
 3539TIP3   OH244151   5.097   7.348   6.388
 3539TIP3    H144152   5.099   7.438   6.354
 3539TIP3    H244153   5.101   7.360   6.486
 3540TIP3   OH244154   5.100   7.423   6.661
 3540TIP3    H144155   5.016   7.435   6.709
 3540TIP3    H244156   5.156   7.379   6.726
 3541TIP3   OH244157   5.393   6.292   7.889
 3541TIP3    H144158   5.332   6.325   7.821
 3541TIP3    H244159   5.402   6.198   7.865
 3542TIP3   OH244160   4.131   6.949   7.705
 3542TIP3    H144161   4.132   6.919   7.798
 3542TIP3    H244162   4.043   6.918   7.674
 3543TIP3   OH244163   4.394   5.816   7.298
 3543TIP3    H144164   4.307   5.811   7.255
 3543TIP3    H244165   4.373   5.873   7.375
 3544TIP3   OH244166   4.899   5.760   7.610
 3544TIP3    H144167   4.932   5.717   7.692
 3544TIP3    H244168   4.802   5.759   7.625
 3545TIP3   OH244169   5.161   6.177   7.695
 3545TIP3    H144170   5.116   6.147   7.777
 3545TIP3    H244171   5.104   6.251   7.668
 3546TIP3   OH244172   4.408   6.273   7.418
 3546TIP3    H144173   4.330   6.282   7.476
 3546TIP3    H244174   4.414   6.365   7.385
 3547TIP3   OH244175   4.393   6.284   6.927
 3547TIP3    H144176   4.295   6.288   6.916
 3547TIP3    H244177   4.419   6.257   6.836
 3548TIP3   OH244178   4.943   6.350   6.756
 3548TIP3    H144179   4.935   6.446   6.740
 3548TIP3    H244180   5.017   6.323   6.698
 3549TIP3   OH244181   4.837   6.399   7.951
 3549TIP3    H144182   4.805   6.313   7.986
 3549TIP3    H244183   4.926   6.400   7.993
 3550TIP3   OH244184   5.023   6.338   7.079
 3550TIP3    H144185   5.031   6.426   7.039
 3550TIP3    H244186   5.023   6.282   6.999
 3551TIP3   OH244187   4.142   6.305   7.536
 3551TIP3    H144188   4.183   6.352   7.610
 3551TIP3    H244189   4.116   6.220   7.578
 3552TIP3   OH244190   3.850   6.036   7.038
 3552TIP3    H144191   3.928   6.027   7.096
 3552TIP3    H244192   3.883   6.066   6.952
 3553TIP3   OH244193   4.966   6.474   7.510
 3553TIP3    H144194   5.017   6.406   7.460
 3553TIP3    H244195   4.909   6.418   7.568
 3554TIP3   OH244196   4.683   6.063   7.010
 3554TIP3    H144197   4.595   6.041   7.043
 3554TIP3    H244198   4.742   6.000   7.059
 3555TIP3   OH244199   4.125   6.225   6.897
 3555TIP3    H144200   4.050   6.245   6.837
 3555TIP3    H244201   4.156   6.137   6.866
 3556TIP3   OH244202   4.433   6.209   6.667
 3556TIP3    H144203   4.530   6.202   6.674
 3556TIP3    H244204   4.421   6.278   6.600
 3557TIP3   OH244205   5.087   5.987   7.316
 3557TIP3    H144206   5.013   5.955   7.369
 3557TIP3    H244207   5.085   5.931   7.236
 3558TIP3   OH244208   4.386   6.357   6.427
 3558TIP3    H144209   4.347   6.284   6.378
 3558TIP3    H244210   4.473   6.361   6.386
 3559TIP3   OH244211   5.384   7.541   7.992
 3559TIP3    H144212   5.418   7.590   7.915
 3559TIP3    H244213   5.460   7.549   8.053
 3560TIP3   OH244214   4.175   6.772   7.925
 3560TIP3    H144215   4.239   6.803   7.993
 3560TIP3    H244216   4.089   6.774   7.974
 3561TIP3   OH244217   4.732   6.348   7.163
 3561TIP3    H144218   4.816   6.315   7.125
 3561TIP3    H244219   4.693   6.266   7.196
 3562TIP3   OH244220   4.211   5.967   6.841
 3562TIP3    H144221   4.170   5.884   6.876
 3562TIP3    H244222   4.271   5.934   6.773
 3563TIP3   OH244223   4.651   6.154   7.435
 3563TIP3    H144224   4.573   6.208   7.413
 3563TIP3    H244225   4.706   6.215   7.485
 3564TIP3   OH244226   4.674   6.855   6.623
 3564TIP3    H144227   4.628   6.772   6.597
 3564TIP3    H244228   4.658   6.857   6.719
 3565TIP3   OH244229   5.435   6.748   7.485
 3565TIP3    H144230   5.484   6.807   7.423
 3565TIP3    H244231   5.351   6.736   7.438
 3566TIP3   OH244232   4.980   6.116   6.446
 3566TIP3    H144233   4.997   6.141   6.354
 3566TIP3    H244234   5.033   6.185   6.489
 3567TIP3   OH244235   4.784   6.824   7.732
 3567TIP3    H144236   4.771   6.805   7.826
 3567TIP3    H244237   4.783   6.922   7.732
 3568TIP3   OH244238   5.151   6.286   6.578
 3568TIP3    H144239   5.235   6.303   6.624
 3568TIP3    H244240   5.143   6.369   6.526
 3569TIP3   OH244241   4.232   6.734   7.195
 3569TIP3    H144242   4.291   6.717   7.119
 3569TIP3    H244243   4.235   6.649   7.243
 3570TIP3   OH244244   4.895   6.955   6.527
 3570TIP3    H144245   4.833   7.027   6.549
 3570TIP3    H244246   4.838   6.878   6.544
 3571TIP3   OH244247   3.905   6.560   7.724
 3571TIP3    H144248   3.891   6.498   7.798
 3571TIP3    H244249   3.848   6.522   7.655
 3572TIP3   OH244250   4.592   6.530   7.897
 3572TIP3    H144251   4.559   6.471   7.830
 3572TIP3    H244252   4.685   6.500   7.905
 3573TIP3   OH244253   5.097   7.066   7.745
 3573TIP3    H144254   5.022   7.095   7.691
 3573TIP3    H244255   5.073   7.108   7.830
 3574TIP3   OH244256   5.663   6.884   7.822
 3574TIP3    H144257   5.567   6.884   7.799
 3574TIP3    H244258   5.706   6.867   7.735
 3575TIP3   OH244259   5.459   7.138   6.596
 3575TIP3    H144260   5.406   7.126   6.678
 3575TIP3    H244261   5.496   7.049   6.591
 3576TIP3   OH244262   5.188   6.665   7.307
 3576TIP3    H144263   5.097   6.636   7.291
 3576TIP3    H244264   5.239   6.595   7.263
 3577TIP3   OH244265   4.424   7.098   6.926
 3577TIP3    H144266   4.442   7.191   6.898
 3577TIP3    H244267   4.329   7.095   6.911
 3578TIP3   OH244268   4.577   6.866   6.884
 3578TIP3    H144269   4.527   6.950   6.891
 3578TIP3    H244270   4.515   6.799   6.916
 3579TIP3   OH244271   4.624   7.272   7.572
 3579TIP3    H144272   4.694   7.328   7.535
 3579TIP3    H244273   4.674   7.226   7.641
 3580TIP3   OH244274   4.448   7.349   6.818
 3580TIP3    H144275   4.354   7.368   6.838
 3580TIP3    H244276   4.488   7.436   6.839
 3581TIP3   OH244277   4.948   6.855   7.481
 3581TIP3    H144278   4.917   6.822   7.569
 3581TIP3    H244279   4.997   6.779   7.446
 3582TIP3   OH244280   5.281   7.337   7.729
 3582TIP3    H144281   5.194   7.298   7.706
 3582TIP3    H244282   5.296   7.397   7.652
 3583TIP3   OH244283   4.106   6.065   7.675
 3583TIP3    H144284   4.032   6.101   7.729
 3583TIP3    H244285   4.110   5.974   7.708
 3584TIP3   OH244286   5.274   6.833   6.640
 3584TIP3    H144287   5.249   6.749   6.685
 3584TIP3    H244288   5.368   6.819   6.623
 3585TIP3   OH244289   4.032   7.215   7.492
 3585TIP3    H144290   4.108   7.159   7.515
 3585TIP3    H244291   4.025   7.272   7.570
 3586TIP3   OH244292   4.478   7.060   6.498
 3586TIP3    H144293   4.526   6.990   6.545
 3586TIP3    H244294   4.471   7.131   6.563
 3587TIP3   OH244295   4.946   6.032   7.588
 3587TIP3    H144296   5.040   6.042   7.610
 3587TIP3    H244297   4.927   5.939   7.613
 3588TIP3   OH244298   5.035   5.953   6.714
 3588TIP3    H144299   5.045   6.021   6.645
 3588TIP3    H244300   5.073   5.999   6.793
 3589TIP3   OH244301   4.836   7.238   6.513
 3589TIP3    H144302   4.844   7.243   6.611
 3589TIP3    H244303   4.928   7.225   6.486
 3590TIP3   OH244304   4.722   6.150   6.748
 3590TIP3    H144305   4.794   6.217   6.754
 3590TIP3    H244306   4.704   6.127   6.842
 3591TIP3   OH244307   4.831   6.298   7.680
 3591TIP3    H144308   4.827   6.312   7.778
 3591TIP3    H244309   4.864   6.207   7.670
 3592TIP3   OH244310   4.799   5.852   6.808
 3592TIP3    H144311   4.777   5.906   6.886
 3592TIP3    H244312   4.883   5.895   6.778
 3593TIP3   OH244313   4.384   5.960   6.560
 3593TIP3    H144314   4.380   6.052   6.590
 3593TIP3    H244315   4.479   5.940   6.571
 3594TIP3   OH244316   5.401   6.048   7.762
 3594TIP3    H144317   5.308   6.066   7.740
 3594TIP3    H244318   5.442   6.045   7.674
 3595TIP3   OH244319   5.295   6.424   7.142
 3595TIP3    H144320   5.220   6.363   7.153
 3595TIP3    H244321   5.366   6.379   7.193
 3596TIP3   OH244322   5.378   7.355   7.309
 3596TIP3    H144323   5.383   7.420   7.236
 3596TIP3    H244324   5.474   7.346   7.327
 3597TIP3   OH244325   4.139   5.768   7.231
 3597TIP3    H144326   4.132   5.755   7.134
 3597TIP3    H244327   4.110   5.681   7.263
 3598TIP3   OH244328   4.001   7.163   6.846
 3598TIP3    H144329   3.921   7.205   6.881
 3598TIP3    H244330   4.009   7.207   6.760
 3599TIP3   OH244331   3.933   7.456   7.960
 3599TIP3    H144332   4.000   7.445   8.032
 3599TIP3    H244333   3.903   7.363   7.954
 3600TIP3   OH244334   4.431   7.278   8.140
 3600TIP3    H144335   4.523   7.247   8.139
 3600TIP3    H244336   4.394   7.235   8.061
 3601TIP3   OH244337   5.041   7.184   7.976
 3601TIP3    H144338   5.015   7.095   8.009
 3601TIP3    H244339   5.130   7.190   8.019
 3602TIP3   OH244340   3.919   6.792   8.039
 3602TIP3    H144341   3.875   6.706   8.041
 3602TIP3    H244342   3.874   6.835   7.962
 3603TIP3   OH244343   4.591   6.789   7.946
 3603TIP3    H144344   4.572   6.850   7.871
 3603TIP3    H244345   4.588   6.699   7.905
 3604TIP3   OH244346   5.170   6.787   7.742
 3604TIP3    H144347   5.254   6.839   7.739
 3604TIP3    H244348   5.107   6.861   7.739
 3605TIP3   OH244349   4.056   6.500   7.995
 3605TIP3    H144350   4.146   6.466   7.981
 3605TIP3    H244351   4.071   6.565   8.066
 3606TIP3   OH244352   4.520   6.653   6.534
 3606TIP3    H144353   4.459   6.586   6.567
 3606TIP3    H244354   4.591   6.600   6.491
 3607TIP3   OH244355   4.400   6.412   7.672
 3607TIP3    H144356   4.346   6.494   7.673
 3607TIP3    H244357   4.477   6.445   7.623
 3608TIP3   OH244358   4.960   6.695   8.069
 3608TIP3    H144359   5.018   6.650   8.006
 3608TIP3    H244360   4.929   6.622   8.125
 3609TIP3   OH244361   4.528   6.189   7.799
 3609TIP3    H144362   4.525   6.119   7.730
 3609TIP3    H244363   4.508   6.268   7.745
 3610TIP3   OH244364   4.528   5.993   7.601
 3610TIP3    H144365   4.580   6.031   7.526
 3610TIP3    H244366   4.438   6.007   7.566
 3611TIP3   OH244367   4.644   6.554   7.583
 3611TIP3    H144368   4.727   6.602   7.565
 3611TIP3    H244369   4.581   6.626   7.562
 3612TIP3   OH244370   5.055   6.334   8.115
 3612TIP3    H144371   5.066   6.249   8.165
 3612TIP3    H244372   5.148   6.355   8.098
 3613TIP3   OH244373   5.238   6.638   7.958
 3613TIP3    H144374   5.203   6.685   7.879
 3613TIP3    H244375   5.326   6.610   7.925
 3614TIP3   OH244376   4.331   6.252   8.011
 3614TIP3    H144377   4.254   6.203   7.974
 3614TIP3    H244378   4.388   6.261   7.932
 3615TIP3   OH244379   4.612   5.739   7.600
 3615TIP3    H144380   4.577   5.832   7.608
 3615TIP3    H244381   4.531   5.692   7.573
 3616TIP3   OH244382   4.715   6.151   8.023
 3616TIP3    H144383   4.645   6.140   8.090
 3616TIP3    H244384   4.660   6.146   7.942
 3617TIP3   OH244385   4.983   6.104   7.901
 3617TIP3    H144386   4.888   6.100   7.924
 3617TIP3    H244387   5.015   6.045   7.972
 3618TIP3   OH244388   5.068   5.927   8.079
 3618TIP3    H144389   5.122   5.846   8.096
 3618TIP3    H244390   5.088   5.986   8.155
 3619TIP3   OH244391   4.121   6.074   7.993
 3619TIP3    H144392   4.110   5.987   7.951
 3619TIP3    H244393   4.106   6.051   8.089
 3620TIP3   OH244394   4.564   5.691   7.856
 3620TIP3    H144395   4.648   5.646   7.877
 3620TIP3    H244396   4.577   5.700   7.759
 3621TIP3   OH244397   4.587   5.792   8.147
 3621TIP3    H144398   4.568   5.758   8.057
 3621TIP3    H244399   4.581   5.888   8.131
 3622TIP3   OH244400   3.803   7.523   6.852
 3622TIP3    H144401   3.733   7.466   6.811
 3622TIP3    H244402   3.847   7.459   6.911
 3623TIP3   OH244403   3.899   7.355   7.056
 3623TIP3    H144404   3.824   7.316   7.107
 3623TIP3    H244405   3.965   7.363   7.128
 3624TIP3   OH244406   5.649   7.407   7.324
 3624TIP3    H144407   5.671   7.413   7.418
 3624TIP3    H244408   5.716   7.464   7.285
 3625TIP3   OH244409   5.609   7.351   7.618
 3625TIP3    H144410   5.575   7.274   7.569
 3625TIP3    H244411   5.631   7.307   7.702
 3626TIP3   OH244412   5.491   6.934   8.119
 3626TIP3    H144413   5.403   6.948   8.160
 3626TIP3    H244414   5.529   7.025   8.130
 3627TIP3   OH244415   5.588   6.825   6.643
 3627TIP3    H144416   5.672   6.850   6.683
 3627TIP3    H244417   5.570   6.746   6.698
 3628TIP3   OH244418   5.622   6.628   6.857
 3628TIP3    H144419   5.553   6.561   6.874
 3628TIP3    H244420   5.684   6.609   6.930
 3629TIP3   OH244421   5.596   6.861   7.310
 3629TIP3    H144422   5.665   6.792   7.297
 3629TIP3    H244423   5.635   6.937   7.264
 3630TIP3   OH244424   5.469   7.134   7.557
 3630TIP3    H144425   5.395   7.176   7.604
 3630TIP3    H244426   5.425   7.104   7.473
 3631TIP3   OH244427   5.434   6.446   6.906
 3631TIP3    H144428   5.417   6.355   6.875
 3631TIP3    H244429   5.395   6.445   6.997
 3632TIP3   OH244430   3.900   6.662   7.304
 3632TIP3    H144431   3.903   6.633   7.211
 3632TIP3    H244432   3.992   6.636   7.331
 3633TIP3   OH244433   5.523   6.624   7.876
 3633TIP3    H144434   5.564   6.534   7.878
 3633TIP3    H244435   5.595   6.676   7.835
 3634TIP3   OH244436   5.632   6.381   7.914
 3634TIP3    H144437   5.540   6.349   7.900
 3634TIP3    H244438   5.683   6.296   7.918
 3635TIP3   OH244439   5.423   6.071   6.267
 3635TIP3    H144440   5.464   6.152   6.304
 3635TIP3    H244441   5.331   6.098   6.260
 3636TIP3   OH244442   5.371   6.214   6.754
 3636TIP3    H144443   5.374   6.123   6.792
 3636TIP3    H244444   5.400   6.194   6.664
 3637TIP3   OH244445   5.469   6.276   7.291
 3637TIP3    H144446   5.567   6.284   7.292
 3637TIP3    H244447   5.451   6.278   7.387
 3638TIP3   OH244448   5.468   6.330   7.557
 3638TIP3    H144449   5.380   6.354   7.593
 3638TIP3    H244450   5.508   6.419   7.539
 3639TIP3   OH244451   3.901   6.162   7.884
 3639TIP3    H144452   3.982   6.144   7.937
 3639TIP3    H244453   3.848   6.081   7.901
 3640TIP3   OH244454   5.668   5.758   8.077
 3640TIP3    H144455   5.712   5.685   8.030
 3640TIP3    H244456   5.669   5.828   8.008
 3641TIP3   OH244457   5.390   5.941   6.800
 3641TIP3    H144458   5.447   5.904   6.870
 3641TIP3    H244459   5.381   5.867   6.738
 3642TIP3   OH244460   3.996   5.993   7.271
 3642TIP3    H144461   4.048   5.910   7.264
 3642TIP3    H244462   4.066   6.060   7.265
 3643TIP3   OH244463   3.836   6.304   7.307
 3643TIP3    H144464   3.902   6.275   7.240
 3643TIP3    H244465   3.883   6.381   7.343
 3644TIP3   OH244466   5.611   5.968   7.931
 3644TIP3    H144467   5.540   5.992   7.994
 3644TIP3    H244468   5.561   5.938   7.852
 3645TIP3   OH244469   3.843   5.992   6.759
 3645TIP3    H144470   3.747   6.004   6.754
 3645TIP3    H244471   3.857   5.918   6.700
 3646TIP3   OH244472   5.350   7.418   6.928
 3646TIP3    H144473   5.414   7.401   6.855
 3646TIP3    H244474   5.400   7.477   6.988
 3647TIP3   OH244475   3.851   5.781   7.543
 3647TIP3    H144476   3.787   5.755   7.611
 3647TIP3    H244477   3.810   5.856   7.497
 3648TIP3   OH244478   4.077   7.099   7.947
 3648TIP3    H144479   3.994   7.141   7.920
 3648TIP3    H244480   4.055   7.061   8.032
 3649TIP3   OH244481   4.362   7.244   7.615
 3649TIP3    H144482   4.353   7.335   7.581
 3649TIP3    H244483   4.460   7.236   7.611
 3650TIP3   OH244484   4.774   7.366   7.869
 3650TIP3    H144485   4.790   7.360   7.965
 3650TIP3    H244486   4.861   7.398   7.838
 3651TIP3   OH244487   4.999   7.531   7.828
 3651TIP3    H144488   5.080   7.482   7.807
 3651TIP3    H244489   5.024   7.582   7.908
 3652TIP3   OH244490   5.516   5.725   7.735
 3652TIP3    H144491   5.437   5.758   7.690
 3652TIP3    H244492   5.526   5.636   7.695
 3653TIP3   OH244493   4.098   7.571   7.584
 3653TIP3    H144494   4.018   7.612   7.547
 3653TIP3    H244495   4.089   7.596   7.678
 3654TIP3   OH244496   4.326   7.485   7.481
 3654TIP3    H144497   4.236   7.513   7.508
 3654TIP3    H244498   4.346   7.552   7.412
 3655TIP3   OH244499   4.812   7.466   7.402
 3655TIP3    H144500   4.732   7.514   7.376
 3655TIP3    H244501   4.846   7.527   7.472
 3656TIP3   OH244502   5.030   7.336   7.552
 3656TIP3    H144503   4.974   7.378   7.483
 3656TIP3    H244504   5.112   7.386   7.537
 3657TIP3   OH244505   5.285   7.501   7.517
 3657TIP3    H144506   5.302   7.593   7.489
 3657TIP3    H244507   5.313   7.453   7.436
 3658TIP3   OH244508   4.063   7.393   7.278
 3658TIP3    H144509   4.046   7.328   7.350
 3658TIP3    H244510   4.153   7.367   7.248
 3659TIP3   OH244511   4.284   7.313   7.153
 3659TIP3    H144512   4.268   7.217   7.161
 3659TIP3    H244513   4.372   7.315   7.199
 3660TIP3   OH244514   4.516   7.291   7.293
 3660TIP3    H144515   4.545   7.199   7.277
 3660TIP3    H244516   4.524   7.297   7.389
 3661TIP3   OH244517   4.814   5.853   7.107
 3661TIP3    H144518   4.738   5.817   7.158
 3661TIP3    H244519   4.866   5.773   7.095
 3662TIP3   OH244520   5.395   5.698   7.150
 3662TIP3    H144521   5.465   5.750   7.103
 3662TIP3    H244522   5.313   5.734   7.110
 3663TIP3   OH244523   5.557   5.827   6.980
 3663TIP3    H144524   5.623   5.765   6.942
 3663TIP3    H244525   5.615   5.904   7.000
 3664TIP3   OH244526   4.092   5.753   6.956
 3664TIP3    H144527   4.002   5.736   6.926
 3664TIP3    H244528   4.135   5.666   6.937
 3665TIP3   OH244529   4.542   5.691   6.934
 3665TIP3    H144530   4.602   5.740   6.876
 3665TIP3    H244531   4.576   5.710   7.022
 3666TIP3   OH244532   5.138   5.752   7.060
 3666TIP3    H144533   5.115   5.763   6.967
 3666TIP3    H244534   5.087   5.672   7.084
 3667TIP3   OH244535   5.199   5.757   6.601
 3667TIP3    H144536   5.133   5.817   6.643
 3667TIP3    H244537   5.181   5.673   6.650
 3668TIP3   OH244538   3.972   7.354   6.635
 3668TIP3    H144539   3.879   7.350   6.603
 3668TIP3    H244540   3.997   7.443   6.604
 3669TIP3   OH244541   4.676   5.921   6.554
 3669TIP3    H144542   4.703   5.884   6.640
 3669TIP3    H244543   4.723   6.006   6.556
 3670TIP3   OH244544   5.505   7.372   6.722
 3670TIP3    H144545   5.498   7.299   6.656
 3670TIP3    H244546   5.491   7.451   6.663
 3671TIP3   OH244547   4.068   5.809   7.865
 3671TIP3    H144548   4.017   5.726   7.877
 3671TIP3    H244549   4.145   5.794   7.925
 3672TIP3   OH244550   4.269   5.751   8.057
 3672TIP3    H144551   4.347   5.698   8.033
 3672TIP3    H244552   4.216   5.687   8.108
 3673TIP3   OH244553   4.197   7.398   6.341
 3673TIP3    H144554   4.119   7.454   6.352
 3673TIP3    H244555   4.160   7.310   6.330
 3674TIP3   OH244556   5.122   5.665   8.102
 3674TIP3    H144557   5.137   5.623   8.190
 3674TIP3    H244558   5.207   5.646   8.057
 3675TIP3   OH244559   5.458   7.280   7.928
 3675TIP3    H144560   5.386   7.269   7.863
 3675TIP3    H244561   5.438   7.370   7.960
 3676TIP3   OH244562   6.921   6.678   6.915
 3676TIP3    H144563   6.928   6.773   6.938
 3676TIP3    H244564   6.844   6.683   6.855
 3677TIP3   OH244565   6.798   6.552   7.263
 3677TIP3    H144566   6.811   6.515   7.353
 3677TIP3    H244567   6.739   6.483   7.225
 3678TIP3   OH244568   6.004   6.546   7.399
 3678TIP3    H144569   5.987   6.467   7.453
 3678TIP3    H244570   6.081   6.582   7.447
 3679TIP3   OH244571   7.123   6.863   7.103
 3679TIP3    H144572   7.114   6.793   7.170
 3679TIP3    H244573   7.125   6.943   7.156
 3680TIP3   OH244574   6.104   7.011   7.243
 3680TIP3    H144575   6.078   6.918   7.227
 3680TIP3    H244576   6.200   6.999   7.229
 3681TIP3   OH244577   5.784   6.350   6.795
 3681TIP3    H144578   5.798   6.421   6.731
 3681TIP3    H244579   5.688   6.340   6.791
 3682TIP3   OH244580   5.820   6.584   7.060
 3682TIP3    H144581   5.863   6.497   7.077
 3682TIP3    H244582   5.895   6.641   7.037
 3683TIP3   OH244583   6.883   7.412   7.094
 3683TIP3    H144584   6.949   7.353   7.050
 3683TIP3    H244585   6.854   7.352   7.164
 3684TIP3   OH244586   6.621   6.792   7.351
 3684TIP3    H144587   6.657   6.752   7.270
 3684TIP3    H244588   6.699   6.838   7.387
 3685TIP3   OH244589   7.472   5.970   7.342
 3685TIP3    H144590   7.489   6.031   7.416
 3685TIP3    H244591   7.554   5.979   7.290
 3686TIP3   OH244592   6.964   6.279   7.358
 3686TIP3    H144593   6.990   6.186   7.374
 3686TIP3    H244594   6.939   6.272   7.263
 3687TIP3   OH244595   6.249   6.060   7.042
 3687TIP3    H144596   6.265   6.142   6.991
 3687TIP3    H244597   6.199   6.009   6.975
 3688TIP3   OH244598   7.023   6.083   6.895
 3688TIP3    H144599   7.062   6.061   6.982
 3688TIP3    H244600   7.060   6.171   6.878
 3689TIP3   OH244601   5.919   6.338   7.129
 3689TIP3    H144602   5.985   6.304   7.192
 3689TIP3    H244603   5.948   6.295   7.046
 3690TIP3   OH244604   6.398   6.473   7.081
 3690TIP3    H144605   6.473   6.429   7.122
 3690TIP3    H244606   6.362   6.402   7.023
 3691TIP3   OH244607   7.492   6.117   7.589
 3691TIP3    H144608   7.455   6.199   7.551
 3691TIP3    H244609   7.514   6.147   7.679
 3692TIP3   OH244610   6.153   5.970   7.474
 3692TIP3    H144611   6.113   6.017   7.398
 3692TIP3    H244612   6.094   5.998   7.547
 3693TIP3   OH244613   6.846   6.942   6.817
 3693TIP3    H144614   6.837   6.944   6.720
 3693TIP3    H244615   6.815   7.033   6.837
 3694TIP3   OH244616   6.372   6.742   7.440
 3694TIP3    H144617   6.318   6.815   7.476
 3694TIP3    H244618   6.455   6.788   7.412
 3695TIP3   OH244619   7.215   6.073   7.126
 3695TIP3    H144620   7.215   5.978   7.145
 3695TIP3    H244621   7.292   6.104   7.178
 3696TIP3   OH244622   6.107   6.168   7.259
 3696TIP3    H144623   6.170   6.228   7.306
 3696TIP3    H244624   6.162   6.135   7.185
 3697TIP3   OH244625   6.243   6.956   7.547
 3697TIP3    H144626   6.216   7.021   7.481
 3697TIP3    H244627   6.158   6.947   7.599
 3698TIP3   OH244628   5.865   6.942   6.586
 3698TIP3    H144629   5.778   6.946   6.541
 3698TIP3    H244630   5.855   6.999   6.663
 3699TIP3   OH244631   7.203   7.067   7.319
 3699TIP3    H144632   7.113   7.093   7.346
 3699TIP3    H244633   7.222   7.145   7.264
 3700TIP3   OH244634   7.197   5.897   7.439
 3700TIP3    H144635   7.119   5.917   7.384
 3700TIP3    H244636   7.271   5.930   7.386
 3701TIP3   OH244637   6.482   5.702   7.214
 3701TIP3    H144638   6.440   5.614   7.222
 3701TIP3    H244639   6.404   5.758   7.238
 3702TIP3   OH244640   7.063   7.224   7.014
 3702TIP3    H144641   7.068   7.153   6.946
 3702TIP3    H244642   7.124   7.290   6.971
 3703TIP3   OH244643   7.156   7.037   6.833
 3703TIP3    H144644   7.137   6.982   6.754
 3703TIP3    H244645   7.136   6.974   6.904
 3704TIP3   OH244646   7.301   6.896   7.699
 3704TIP3    H144647   7.314   6.823   7.634
 3704TIP3    H244648   7.325   6.973   7.643
 3705TIP3   OH244649   6.756   6.623   6.670
 3705TIP3    H144650   6.702   6.705   6.661
 3705TIP3    H244651   6.812   6.628   6.592
 3706TIP3   OH244652   6.811   6.404   6.390
 3706TIP3    H144653   6.877   6.470   6.420
 3706TIP3    H244654   6.855   6.319   6.408
 3707TIP3   OH244655   7.507   6.548   7.496
 3707TIP3    H144656   7.447   6.624   7.494
 3707TIP3    H244657   7.569   6.575   7.425
 3708TIP3   OH244658   7.151   6.594   6.781
 3708TIP3    H144659   7.069   6.629   6.823
 3708TIP3    H244660   7.202   6.566   6.859
 3709TIP3   OH244661   7.099   6.450   7.674
 3709TIP3    H144662   7.105   6.539   7.710
 3709TIP3    H244663   7.025   6.462   7.611
 3710TIP3   OH244664   6.261   6.671   6.968
 3710TIP3    H144665   6.226   6.646   6.880
 3710TIP3    H244666   6.325   6.598   6.983
 3711TIP3   OH244667   6.399   6.998   7.212
 3711TIP3    H144668   6.399   6.995   7.115
 3711TIP3    H244669   6.480   6.951   7.236
 3712TIP3   OH244670   6.284   6.526   7.330
 3712TIP3    H144671   6.311   6.537   7.236
 3712TIP3    H244672   6.325   6.606   7.371
 3713TIP3   OH244673   6.952   7.118   7.395
 3713TIP3    H144674   6.926   7.170   7.472
 3713TIP3    H244675   6.933   7.027   7.426
 3714TIP3   OH244676   6.397   6.993   7.766
 3714TIP3    H144677   6.329   7.045   7.815
 3714TIP3    H244678   6.352   6.983   7.679
 3715TIP3   OH244679   7.008   6.560   6.520
 3715TIP3    H144680   7.065   6.609   6.583
 3715TIP3    H244681   7.010   6.618   6.440
 3716TIP3   OH244682   6.102   6.613   7.665
 3716TIP3    H144683   6.121   6.693   7.717
 3716TIP3    H244684   6.036   6.572   7.724
 3717TIP3   OH244685   6.754   7.217   6.821
 3717TIP3    H144686   6.734   7.248   6.910
 3717TIP3    H244687   6.718   7.288   6.764
 3718TIP3   OH244688   6.221   7.165   7.872
 3718TIP3    H144689   6.209   7.200   7.781
 3718TIP3    H244690   6.129   7.138   7.892
 3719TIP3   OH244691   7.381   5.684   6.564
 3719TIP3    H144692   7.290   5.692   6.598
 3719TIP3    H244693   7.373   5.739   6.485
 3720TIP3   OH244694   6.161   6.575   6.738
 3720TIP3    H144695   6.106   6.633   6.682
 3720TIP3    H244696   6.144   6.489   6.696
 3721TIP3   OH244697   7.535   7.176   6.390
 3721TIP3    H144698   7.554   7.256   6.336
 3721TIP3    H244699   7.584   7.108   6.342
 3722TIP3   OH244700   5.806   6.824   7.606
 3722TIP3    H144701   5.770   6.810   7.518
 3722TIP3    H244702   5.838   6.733   7.626
 3723TIP3   OH244703   5.778   7.082   7.256
 3723TIP3    H144704   5.875   7.074   7.248
 3723TIP3    H244705   5.772   7.151   7.323
 3724TIP3   OH244706   7.564   7.161   7.857
 3724TIP3    H144707   7.554   7.065   7.850
 3724TIP3    H244708   7.479   7.185   7.904
 3725TIP3   OH244709   6.654   7.105   7.765
 3725TIP3    H144710   6.665   7.178   7.830
 3725TIP3    H244711   6.560   7.076   7.775
 3726TIP3   OH244712   6.707   7.490   6.754
 3726TIP3    H144713   6.728   7.486   6.660
 3726TIP3    H244714   6.705   7.587   6.772
 3727TIP3   OH244715   6.069   7.393   6.924
 3727TIP3    H144716   6.118   7.373   7.008
 3727TIP3    H244717   6.004   7.321   6.926
 3728TIP3   OH244718   6.976   7.415   6.689
 3728TIP3    H144719   6.898   7.430   6.745
 3728TIP3    H244720   6.997   7.323   6.709
 3729TIP3   OH244721   7.269   6.284   7.893
 3729TIP3    H144722   7.223   6.324   7.818
 3729TIP3    H244723   7.275   6.190   7.865
 3730TIP3   OH244724   6.023   6.957   7.701
 3730TIP3    H144725   6.024   6.924   7.793
 3730TIP3    H244726   5.936   6.923   7.670
 3731TIP3   OH244727   6.272   5.824   7.296
 3731TIP3    H144728   6.181   5.812   7.260
 3731TIP3    H244729   6.251   5.879   7.374
 3732TIP3   OH244730   6.781   5.763   7.603
 3732TIP3    H144731   6.825   5.725   7.682
 3732TIP3    H244732   6.687   5.763   7.631
 3733TIP3   OH244733   7.044   6.185   7.691
 3733TIP3    H144734   6.990   6.169   7.773
 3733TIP3    H244735   7.055   6.282   7.693
 3734TIP3   OH244736   6.291   6.276   7.419
 3734TIP3    H144737   6.218   6.291   7.482
 3734TIP3    H244738   6.302   6.368   7.385
 3735TIP3   OH244739   6.275   6.290   6.920
 3735TIP3    H144740   6.181   6.293   6.895
 3735TIP3    H244741   6.321   6.279   6.832
 3736TIP3   OH244742   6.824   6.397   6.807
 3736TIP3    H144743   6.794   6.482   6.767
 3736TIP3    H244744   6.890   6.370   6.740
 3737TIP3   OH244745   6.738   6.403   7.939
 3737TIP3    H144746   6.700   6.320   7.973
 3737TIP3    H244747   6.824   6.401   7.985
 3738TIP3   OH244748   6.947   6.349   7.079
 3738TIP3    H144749   6.923   6.437   7.042
 3738TIP3    H244750   6.921   6.292   7.006
 3739TIP3   OH244751   6.033   6.306   7.547
 3739TIP3    H144752   6.076   6.353   7.620
 3739TIP3    H244753   6.009   6.220   7.590
 3740TIP3   OH244754   5.735   6.038   7.012
 3740TIP3    H144755   5.796   6.033   7.088
 3740TIP3    H244756   5.779   6.101   6.954
 3741TIP3   OH244757   5.825   6.149   6.558
 3741TIP3    H144758   5.807   6.093   6.481
 3741TIP3    H244759   5.801   6.237   6.525
 3742TIP3   OH244760   6.853   6.466   7.512
 3742TIP3    H144761   6.903   6.394   7.464
 3742TIP3    H244762   6.794   6.412   7.571
 3743TIP3   OH244763   6.528   6.070   7.026
 3743TIP3    H144764   6.432   6.068   7.049
 3743TIP3    H244765   6.568   6.013   7.094
 3744TIP3   OH244766   5.999   6.222   6.898
 3744TIP3    H144767   5.937   6.256   6.830
 3744TIP3    H244768   6.025   6.133   6.863
 3745TIP3   OH244769   6.394   6.272   6.675
 3745TIP3    H144770   6.462   6.226   6.625
 3745TIP3    H244771   6.334   6.301   6.604
 3746TIP3   OH244772   6.975   5.981   7.316
 3746TIP3    H144773   6.896   5.969   7.372
 3746TIP3    H244774   6.957   5.920   7.243
 3747TIP3   OH244775   6.244   6.397   6.455
 3747TIP3    H144776   6.174   6.332   6.431
 3747TIP3    H244777   6.310   6.376   6.386
 3748TIP3   OH244778   7.278   7.558   7.987
 3748TIP3    H144779   7.301   7.602   7.904
 3748TIP3    H244780   7.361   7.575   8.036
 3749TIP3   OH244781   6.064   6.780   7.929
 3749TIP3    H144782   6.117   6.785   8.011
 3749TIP3    H244783   5.973   6.778   7.967
 3750TIP3   OH244784   6.669   6.335   7.190
 3750TIP3    H144785   6.727   6.302   7.120
 3750TIP3    H244786   6.642   6.254   7.236
 3751TIP3   OH244787   6.093   5.974   6.847
 3751TIP3    H144788   6.046   5.893   6.880
 3751TIP3    H244789   6.111   5.948   6.755
 3752TIP3   OH244790   6.535   6.149   7.435
 3752TIP3    H144791   6.457   6.208   7.426
 3752TIP3    H244792   6.599   6.202   7.484
 3753TIP3   OH244793   6.589   6.838   6.644
 3753TIP3    H144794   6.530   6.781   6.590
 3753TIP3    H244795   6.539   6.848   6.729
 3754TIP3   OH244796   7.320   6.742   7.491
 3754TIP3    H144797   7.367   6.794   7.421
 3754TIP3    H244798   7.230   6.743   7.453
 3755TIP3   OH244799   6.941   6.157   6.387
 3755TIP3    H144800   6.924   6.061   6.399
 3755TIP3    H244801   6.961   6.187   6.478
 3756TIP3   OH244802   6.700   6.835   7.733
 3756TIP3    H144803   6.668   6.807   7.819
 3756TIP3    H244804   6.689   6.932   7.742
 3757TIP3   OH244805   7.001   6.308   6.620
 3757TIP3    H144806   7.087   6.277   6.653
 3757TIP3    H244807   7.026   6.394   6.582
 3758TIP3   OH244808   6.107   6.742   7.191
 3758TIP3    H144809   6.172   6.721   7.120
 3758TIP3    H244810   6.104   6.660   7.244
 3759TIP3   OH244811   6.783   6.985   6.549
 3759TIP3    H144812   6.739   7.072   6.539
 3759TIP3    H244813   6.709   6.923   6.559
 3760TIP3   OH244814   5.785   6.570   7.727
 3760TIP3    H144815   5.778   6.505   7.800
 3760TIP3    H244816   5.734   6.527   7.656
 3761TIP3   OH244817   6.488   6.528   7.899
 3761TIP3    H144818   6.459   6.458   7.840
 3761TIP3    H244819   6.583   6.510   7.905
 3762TIP3   OH244820   6.982   7.069   7.754
 3762TIP3    H144821   6.904   7.089   7.701
 3762TIP3    H244822   6.956   7.111   7.839
 3763TIP3   OH244823   7.497   6.272   6.578
 3763TIP3    H144824   7.449   6.264   6.493
 3763TIP3    H244825   7.532   6.364   6.571
 3764TIP3   OH244826   7.550   6.889   7.821
 3764TIP3    H144827   7.460   6.884   7.783
 3764TIP3    H244828   7.605   6.869   7.743
 3765TIP3   OH244829   7.353   7.172   6.592
 3765TIP3    H144830   7.260   7.152   6.579
 3765TIP3    H244831   7.389   7.172   6.502
 3766TIP3   OH244832   7.073   6.658   7.297
 3766TIP3    H144833   6.983   6.626   7.280
 3766TIP3    H244834   7.126   6.582   7.266
 3767TIP3   OH244835   6.323   7.085   6.946
 3767TIP3    H144836   6.382   7.158   6.918
 3767TIP3    H244837   6.242   7.105   6.895
 3768TIP3   OH244838   5.897   6.601   6.306
 3768TIP3    H144839   5.952   6.626   6.381
 3768TIP3    H244840   5.829   6.546   6.349
 3769TIP3   OH244841   6.454   6.857   6.876
 3769TIP3    H144842   6.401   6.935   6.905
 3769TIP3    H244843   6.407   6.782   6.918
 3770TIP3   OH244844   6.518   7.276   7.573
 3770TIP3    H144845   6.584   7.334   7.533
 3770TIP3    H244846   6.571   7.228   7.639
 3771TIP3   OH244847   6.356   7.348   6.842
 3771TIP3    H144848   6.262   7.363   6.858
 3771TIP3    H244849   6.391   7.436   6.865
 3772TIP3   OH244850   6.842   6.865   7.481
 3772TIP3    H144851   6.803   6.836   7.567
 3772TIP3    H244852   6.875   6.780   7.445
 3773TIP3   OH244853   7.163   7.312   7.731
 3773TIP3    H144854   7.073   7.277   7.717
 3773TIP3    H244855   7.168   7.378   7.658
 3774TIP3   OH244856   5.992   6.066   7.679
 3774TIP3    H144857   5.919   6.105   7.731
 3774TIP3    H244858   5.988   5.975   7.712
 3775TIP3   OH244859   7.188   6.816   6.640
 3775TIP3    H144860   7.187   6.732   6.690
 3775TIP3    H244861   7.282   6.827   6.619
 3776TIP3   OH244862   5.925   7.223   7.494
 3776TIP3    H144863   5.996   7.162   7.518
 3776TIP3    H244864   5.915   7.274   7.576
 3777TIP3   OH244865   6.048   6.737   6.542
 3777TIP3    H144866   5.976   6.800   6.565
 3777TIP3    H244867   6.118   6.798   6.517
 3778TIP3   OH244868   6.815   6.049   7.580
 3778TIP3    H144869   6.904   6.070   7.614
 3778TIP3    H244870   6.805   5.954   7.596
 3779TIP3   OH244871   6.932   5.972   6.619
 3779TIP3    H144872   7.025   5.959   6.594
 3779TIP3    H244873   6.943   6.018   6.704
 3780TIP3   OH244874   6.702   7.269   6.517
 3780TIP3    H144875   6.630   7.317   6.476
 3780TIP3    H244876   6.764   7.267   6.439
 3781TIP3   OH244877   6.668   6.147   6.798
 3781TIP3    H144878   6.695   6.241   6.802
 3781TIP3    H244879   6.603   6.138   6.870
 3782TIP3   OH244880   6.713   6.303   7.678
 3782TIP3    H144881   6.718   6.324   7.774
 3782TIP3    H244882   6.749   6.213   7.667
 3783TIP3   OH244883   6.708   5.839   6.855
 3783TIP3    H144884   6.644   5.903   6.888
 3783TIP3    H244885   6.777   5.900   6.825
 3784TIP3   OH244886   7.280   6.052   7.754
 3784TIP3    H144887   7.185   6.070   7.735
 3784TIP3    H244888   7.321   6.062   7.666
 3785TIP3   OH244889   7.195   6.435   7.168
 3785TIP3    H144890   7.115   6.379   7.166
 3785TIP3    H244891   7.258   6.377   7.216
 3786TIP3   OH244892   7.257   7.353   7.333
 3786TIP3    H144893   7.253   7.409   7.253
 3786TIP3    H244894   7.353   7.346   7.343
 3787TIP3   OH244895   6.021   5.763   7.233
 3787TIP3    H144896   6.021   5.747   7.136
 3787TIP3    H244897   5.989   5.677   7.267
 3788TIP3   OH244898   5.899   7.195   6.829
 3788TIP3    H144899   5.825   7.245   6.865
 3788TIP3    H244900   5.911   7.237   6.742
 3789TIP3   OH244901   5.816   7.453   7.960
 3789TIP3    H144902   5.885   7.437   8.029
 3789TIP3    H244903   5.783   7.362   7.949
 3790TIP3   OH244904   6.318   7.284   8.138
 3790TIP3    H144905   6.410   7.252   8.136
 3790TIP3    H244906   6.282   7.237   8.061
 3791TIP3   OH244907   6.922   7.182   7.991
 3791TIP3    H144908   6.898   7.090   8.022
 3791TIP3    H244909   7.011   7.189   8.032
 3792TIP3   OH244910   5.805   6.792   8.037
 3792TIP3    H144911   5.755   6.710   8.048
 3792TIP3    H244912   5.759   6.833   7.960
 3793TIP3   OH244913   6.481   6.793   7.937
 3793TIP3    H144914   6.453   6.855   7.865
 3793TIP3    H244915   6.477   6.703   7.897
 3794TIP3   OH244916   7.052   6.793   7.751
 3794TIP3    H144917   7.137   6.844   7.746
 3794TIP3    H244918   6.992   6.870   7.753
 3795TIP3   OH244919   5.953   6.490   7.994
 3795TIP3    H144920   6.004   6.420   8.039
 3795TIP3    H244921   5.968   6.564   8.056
 3796TIP3   OH244922   6.427   6.643   6.506
 3796TIP3    H144923   6.344   6.624   6.550
 3796TIP3    H244924   6.440   6.562   6.454
 3797TIP3   OH244925   6.278   6.415   7.666
 3797TIP3    H144926   6.225   6.498   7.664
 3797TIP3    H244927   6.358   6.450   7.623
 3798TIP3   OH244928   6.848   6.700   8.065
 3798TIP3    H144929   6.898   6.653   7.996
 3798TIP3    H244930   6.817   6.628   8.122
 3799TIP3   OH244931   6.412   6.193   7.799
 3799TIP3    H144932   6.415   6.123   7.730
 3799TIP3    H244933   6.387   6.270   7.743
 3800TIP3   OH244934   6.396   5.991   7.597
 3800TIP3    H144935   6.451   6.030   7.525
 3800TIP3    H244936   6.308   5.989   7.554
 3801TIP3   OH244937   6.517   6.571   7.596
 3801TIP3    H144938   6.603   6.591   7.556
 3801TIP3    H244939   6.462   6.641   7.554
 3802TIP3   OH244940   6.933   6.341   8.118
 3802TIP3    H144941   6.941   6.254   8.164
 3802TIP3    H244942   7.025   6.360   8.097
 3803TIP3   OH244943   7.129   6.636   7.955
 3803TIP3    H144944   7.090   6.687   7.880
 3803TIP3    H244945   7.218   6.616   7.919
 3804TIP3   OH244946   6.211   6.260   8.013
 3804TIP3    H144947   6.134   6.207   7.980
 3804TIP3    H244948   6.269   6.260   7.935
 3805TIP3   OH244949   6.494   5.742   7.606
 3805TIP3    H144950   6.457   5.832   7.618
 3805TIP3    H244951   6.415   5.694   7.577
 3806TIP3   OH244952   6.601   6.155   8.022
 3806TIP3    H144953   6.530   6.142   8.089
 3806TIP3    H244954   6.545   6.152   7.942
 3807TIP3   OH244955   6.885   6.113   7.904
 3807TIP3    H144956   6.791   6.107   7.926
 3807TIP3    H244957   6.918   6.050   7.972
 3808TIP3   OH244958   6.963   5.929   8.078
 3808TIP3    H144959   7.011   5.846   8.097
 3808TIP3    H244960   6.983   5.985   8.157
 3809TIP3   OH244961   6.005   6.085   7.998
 3809TIP3    H144962   5.993   5.998   7.955
 3809TIP3    H244963   5.994   6.060   8.093
 3810TIP3   OH244964   6.456   5.692   7.865
 3810TIP3    H144965   6.540   5.646   7.880
 3810TIP3    H244966   6.460   5.696   7.768
 3811TIP3   OH244967   6.463   5.791   8.154
 3811TIP3    H144968   6.456   5.754   8.064
 3811TIP3    H244969   6.458   5.886   8.131
 3812TIP3   OH244970   6.452   7.546   6.396
 3812TIP3    H144971   6.519   7.560   6.463
 3812TIP3    H244972   6.386   7.614   6.417
 3813TIP3   OH244973   5.772   6.951   6.328
 3813TIP3    H144974   5.851   6.943   6.384
 3813TIP3    H244975   5.798   6.904   6.248
 3814TIP3   OH244976   5.690   7.517   6.866
 3814TIP3    H144977   5.622   7.454   6.831
 3814TIP3    H244978   5.737   7.463   6.932
 3815TIP3   OH244979   5.793   7.346   7.049
 3815TIP3    H144980   5.725   7.294   7.098
 3815TIP3    H244981   5.857   7.361   7.122
 3816TIP3   OH244982   7.530   7.418   7.329
 3816TIP3    H144983   7.575   7.433   7.414
 3816TIP3    H244984   7.581   7.473   7.267
 3817TIP3   OH244985   7.499   7.354   7.642
 3817TIP3    H144986   7.463   7.279   7.589
 3817TIP3    H244987   7.515   7.310   7.727
 3818TIP3   OH244988   7.376   6.929   8.120
 3818TIP3    H144989   7.289   6.941   8.165
 3818TIP3    H244990   7.414   7.019   8.136
 3819TIP3   OH244991   7.486   6.771   6.634
 3819TIP3    H144992   7.574   6.812   6.641
 3819TIP3    H244993   7.484   6.714   6.713
 3820TIP3   OH244994   7.511   6.587   6.835
 3820TIP3    H144995   7.437   6.530   6.868
 3820TIP3    H244996   7.564   6.592   6.917
 3821TIP3   OH244997   7.473   6.858   7.310
 3821TIP3    H144998   7.545   6.794   7.293
 3821TIP3    H244999   7.502   6.938   7.263
 3822TIP3   OH245000   7.360   7.134   7.557
 3822TIP3    H145001   7.286   7.173   7.607
 3822TIP3    H245002   7.317   7.115   7.470
 3823TIP3   OH245003   7.545   6.524   6.513
 3823TIP3    H145004   7.456   6.559   6.502
 3823TIP3    H245005   7.590   6.602   6.548
 3824TIP3   OH245006   7.339   6.250   6.307
 3824TIP3    H145007   7.346   6.289   6.220
 3824TIP3    H245008   7.245   6.224   6.310
 3825TIP3   OH245009   7.336   6.416   6.927
 3825TIP3    H145010   7.281   6.348   6.884
 3825TIP3    H245011   7.289   6.432   7.011
 3826TIP3   OH245012   5.787   6.670   7.328
 3826TIP3    H145013   5.787   6.639   7.234
 3826TIP3    H245014   5.880   6.646   7.351
 3827TIP3   OH245015   7.411   6.623   7.873
 3827TIP3    H145016   7.451   6.532   7.872
 3827TIP3    H245017   7.483   6.678   7.840
 3828TIP3   OH245018   7.515   6.365   7.901
 3828TIP3    H145019   7.426   6.323   7.902
 3828TIP3    H245020   7.576   6.287   7.914
 3829TIP3   OH245021   7.256   6.228   6.716
 3829TIP3    H145022   7.282   6.143   6.758
 3829TIP3    H245023   7.346   6.258   6.691
 3830TIP3   OH245024   7.362   6.268   7.301
 3830TIP3    H145025   7.460   6.282   7.302
 3830TIP3    H245026   7.347   6.282   7.396
 3831TIP3   OH245027   7.345   6.332   7.560
 3831TIP3    H145028   7.252   6.361   7.567
 3831TIP3    H245029   7.393   6.415   7.537
 3832TIP3   OH245030   5.780   6.166   7.891
 3832TIP3    H145031   5.862   6.150   7.942
 3832TIP3    H245032   5.728   6.084   7.908
 3833TIP3   OH245033   7.543   5.764   8.069
 3833TIP3    H145034   7.593   5.691   8.026
 3833TIP3    H245035   7.546   5.834   7.999
 3834TIP3   OH245036   7.373   5.995   6.767
 3834TIP3    H145037   7.383   5.941   6.849
 3834TIP3    H245038   7.315   5.939   6.714
 3835TIP3   OH245039   5.878   5.997   7.261
 3835TIP3    H145040   5.925   5.911   7.258
 3835TIP3    H245041   5.950   6.063   7.256
 3836TIP3   OH245042   5.729   6.302   7.313
 3836TIP3    H145043   5.795   6.275   7.246
 3836TIP3    H245044   5.770   6.384   7.343
 3837TIP3   OH245045   7.488   5.979   7.922
 3837TIP3    H145046   7.419   5.991   7.991
 3837TIP3    H245047   7.435   5.947   7.846
 3838TIP3   OH245048   5.757   5.923   6.727
 3838TIP3    H145049   5.690   5.989   6.747
 3838TIP3    H245050   5.765   5.930   6.631
 3839TIP3   OH245051   7.186   7.433   6.922
 3839TIP3    H145052   7.263   7.416   6.863
 3839TIP3    H245053   7.225   7.488   6.993
 3840TIP3   OH245054   5.746   5.784   7.546
 3840TIP3    H145055   5.674   5.751   7.603
 3840TIP3    H245056   5.706   5.858   7.498
 3841TIP3   OH245057   5.964   7.097   7.953
 3841TIP3    H145058   5.878   7.131   7.923
 3841TIP3    H245059   5.945   7.063   8.041
 3842TIP3   OH245060   6.248   7.252   7.608
 3842TIP3    H145061   6.245   7.345   7.577
 3842TIP3    H245062   6.345   7.236   7.603
 3843TIP3   OH245063   6.663   7.362   7.872
 3843TIP3    H145064   6.673   7.358   7.969
 3843TIP3    H245065   6.748   7.403   7.845
 3844TIP3   OH245066   6.877   7.527   7.831
 3844TIP3    H145067   6.963   7.499   7.796
 3844TIP3    H245068   6.901   7.575   7.913
 3845TIP3   OH245069   7.400   5.715   7.730
 3845TIP3    H145070   7.323   5.751   7.684
 3845TIP3    H245071   7.410   5.626   7.690
 3846TIP3   OH245072   5.986   7.554   7.577
 3846TIP3    H145073   5.904   7.600   7.550
 3846TIP3    H245074   5.986   7.579   7.671
 3847TIP3   OH245075   6.229   7.506   7.484
 3847TIP3    H145076   6.136   7.523   7.513
 3847TIP3    H245077   6.242   7.573   7.415
 3848TIP3   OH245078   6.692   7.469   7.416
 3848TIP3    H145079   6.608   7.514   7.397
 3848TIP3    H245080   6.729   7.533   7.480
 3849TIP3   OH245081   6.914   7.344   7.560
 3849TIP3    H145082   6.855   7.379   7.489
 3849TIP3    H245083   6.995   7.394   7.539
 3850TIP3   OH245084   7.168   7.493   7.539
 3850TIP3    H145085   7.186   7.586   7.514
 3850TIP3    H245086   7.201   7.449   7.457
 3851TIP3   OH245087   5.945   7.383   7.277
 3851TIP3    H145088   5.930   7.326   7.357
 3851TIP3    H245089   6.037   7.358   7.253
 3852TIP3   OH245090   6.172   7.309   7.154
 3852TIP3    H145091   6.158   7.213   7.161
 3852TIP3    H245092   6.261   7.314   7.197
 3853TIP3   OH245093   6.397   7.284   7.298
 3853TIP3    H145094   6.437   7.197   7.280
 3853TIP3    H245095   6.410   7.290   7.394
 3854TIP3   OH245096   6.702   5.836   7.171
 3854TIP3    H145097   6.621   5.781   7.184
 3854TIP3    H245098   6.745   5.794   7.096
 3855TIP3   OH245099   7.283   5.684   7.144
 3855TIP3    H145100   7.347   5.747   7.104
 3855TIP3    H245101   7.198   5.712   7.103
 3856TIP3   OH245102   7.442   5.823   6.972
 3856TIP3    H145103   7.496   5.751   6.933
 3856TIP3    H245104   7.508   5.894   6.989
 3857TIP3   OH245105   5.995   5.736   6.944
 3857TIP3    H145106   5.910   5.737   6.897
 3857TIP3    H245107   6.031   5.649   6.920
 3858TIP3   OH245108   6.450   5.717   6.898
 3858TIP3    H145109   6.539   5.698   6.866
 3858TIP3    H245110   6.466   5.741   6.989
 3859TIP3   OH245111   7.031   5.755   7.045
 3859TIP3    H145112   6.996   5.757   6.954
 3859TIP3    H245113   6.990   5.672   7.077
 3860TIP3   OH245114   7.127   5.744   6.626
 3860TIP3    H145115   7.037   5.772   6.603
 3860TIP3    H245116   7.108   5.656   6.666
 3861TIP3   OH245117   5.857   7.333   6.590
 3861TIP3    H145118   5.773   7.310   6.549
 3861TIP3    H245119   5.871   7.424   6.559
 3862TIP3   OH245120   6.549   5.902   6.606
 3862TIP3    H145121   6.592   5.849   6.674
 3862TIP3    H245122   6.567   5.993   6.632
 3863TIP3   OH245123   7.379   7.375   6.751
 3863TIP3    H145124   7.387   7.293   6.695
 3863TIP3    H245125   7.388   7.442   6.680
 3864TIP3   OH245126   5.954   5.808   7.869
 3864TIP3    H145127   5.905   5.724   7.880
 3864TIP3    H245128   6.031   5.794   7.929
 3865TIP3   OH245129   6.155   5.751   8.056
 3865TIP3    H145130   6.234   5.699   8.030
 3865TIP3    H245131   6.108   5.685   8.110
 3866TIP3   OH245132   7.011   5.663   8.105
 3866TIP3    H145133   7.027   5.621   8.192
 3866TIP3    H245134   7.097   5.653   8.061
 3867TIP3   OH245135   7.342   7.290   7.923
 3867TIP3    H145136   7.270   7.274   7.857
 3867TIP3    H245137   7.324   7.384   7.944
 3868TIP3   OH245138   8.780   6.660   6.928
 3868TIP3    H145139   8.791   6.756   6.941
 3868TIP3    H245140   8.713   6.659   6.857
 3869TIP3   OH245141   8.655   6.565   7.292
 3869TIP3    H145142   8.690   6.522   7.373
 3869TIP3    H245143   8.581   6.506   7.269
 3870TIP3   OH245144   7.882   6.541   7.396
 3870TIP3    H145145   7.874   6.463   7.453
 3870TIP3    H245146   7.969   6.574   7.425
 3871TIP3   OH245147   9.037   6.876   7.080
 3871TIP3    H145148   9.075   6.805   7.133
 3871TIP3    H245149   9.027   6.946   7.148
 3872TIP3   OH245150   7.980   7.017   7.225
 3872TIP3    H145151   7.957   6.922   7.212
 3872TIP3    H245152   8.076   7.010   7.214
 3873TIP3   OH245153   7.669   6.343   6.810
 3873TIP3    H145154   7.641   6.435   6.823
 3873TIP3    H245155   7.585   6.297   6.810
 3874TIP3   OH245156   7.699   6.565   7.062
 3874TIP3    H145157   7.745   6.480   7.087
 3874TIP3    H245158   7.774   6.623   7.039
 3875TIP3   OH245159   8.760   7.421   7.093
 3875TIP3    H145160   8.824   7.351   7.066
 3875TIP3    H245161   8.712   7.379   7.165
 3876TIP3   OH245162   8.491   6.836   7.333
 3876TIP3    H145163   8.520   6.790   7.253
 3876TIP3    H245164   8.577   6.853   7.377
 3877TIP3   OH245165   9.347   6.034   7.405
 3877TIP3    H145166   9.366   6.129   7.416
 3877TIP3    H245167   9.430   6.011   7.359
 3878TIP3   OH245168   8.836   6.277   7.362
 3878TIP3    H145169   8.856   6.184   7.381
 3878TIP3    H245170   8.826   6.272   7.266
 3879TIP3   OH245171   8.132   6.056   7.038
 3879TIP3    H145172   8.150   6.140   6.991
 3879TIP3    H245173   8.094   6.003   6.965
 3880TIP3   OH245174   8.911   6.075   6.907
 3880TIP3    H145175   8.947   6.051   6.995
 3880TIP3    H245176   8.965   6.152   6.885
 3881TIP3   OH245177   7.816   6.333   7.134
 3881TIP3    H145178   7.876   6.285   7.194
 3881TIP3    H245179   7.844   6.296   7.048
 3882TIP3   OH245180   8.287   6.475   7.095
 3882TIP3    H145181   8.375   6.435   7.111
 3882TIP3    H245182   8.248   6.407   7.035
 3883TIP3   OH245183   8.050   5.971   7.465
 3883TIP3    H145184   8.002   6.018   7.394
 3883TIP3    H245185   7.991   5.987   7.540
 3884TIP3   OH245186   8.739   6.924   6.812
 3884TIP3    H145187   8.686   6.904   6.732
 3884TIP3    H245188   8.700   7.007   6.845
 3885TIP3   OH245189   8.258   6.743   7.439
 3885TIP3    H145190   8.197   6.814   7.470
 3885TIP3    H245191   8.335   6.795   7.406
 3886TIP3   OH245192   9.081   6.078   7.140
 3886TIP3    H145193   9.100   5.986   7.161
 3886TIP3    H245194   9.111   6.128   7.219
 3887TIP3   OH245195   7.993   6.165   7.264
 3887TIP3    H145196   8.057   6.226   7.308
 3887TIP3    H245197   8.041   6.140   7.183
 3888TIP3   OH245198   8.119   6.948   7.543
 3888TIP3    H145199   8.110   7.036   7.504
 3888TIP3    H245200   8.036   6.942   7.597
 3889TIP3   OH245201   7.727   6.916   6.639
 3889TIP3    H145202   7.689   6.980   6.576
 3889TIP3    H245203   7.726   6.968   6.723
 3890TIP3   OH245204   9.057   7.081   7.257
 3890TIP3    H145205   8.971   7.099   7.301
 3890TIP3    H245206   9.102   7.166   7.271
 3891TIP3   OH245207   9.139   5.843   7.432
 3891TIP3    H145208   9.061   5.890   7.396
 3891TIP3    H245209   9.211   5.904   7.404
 3892TIP3   OH245210   8.385   5.721   7.218
 3892TIP3    H145211   8.356   5.630   7.203
 3892TIP3    H245212   8.296   5.762   7.242
 3893TIP3   OH245213   8.918   7.236   6.977
 3893TIP3    H145214   8.947   7.157   6.925
 3893TIP3    H245215   8.998   7.293   6.968
 3894TIP3   OH245216   9.026   7.024   6.837
 3894TIP3    H145217   8.951   6.968   6.810
 3894TIP3    H245218   9.052   6.977   6.919
 3895TIP3   OH245219   9.167   6.891   7.705
 3895TIP3    H145220   9.175   6.838   7.623
 3895TIP3    H245221   9.214   6.971   7.678
 3896TIP3   OH245222   8.662   6.572   6.684
 3896TIP3    H145223   8.602   6.651   6.684
 3896TIP3    H245224   8.662   6.546   6.590
 3897TIP3   OH245225   8.671   6.440   6.425
 3897TIP3    H145226   8.765   6.437   6.400
 3897TIP3    H245227   8.632   6.375   6.363
 3898TIP3   OH245228   9.358   6.534   7.454
 3898TIP3    H145229   9.287   6.601   7.464
 3898TIP3    H245230   9.419   6.581   7.393
 3899TIP3   OH245231   9.005   6.631   6.775
 3899TIP3    H145232   8.928   6.632   6.835
 3899TIP3    H245233   9.062   6.562   6.816
 3900TIP3   OH245234   8.976   6.431   7.664
 3900TIP3    H145235   8.988   6.519   7.704
 3900TIP3    H245236   8.895   6.450   7.611
 3901TIP3   OH245237   8.151   6.657   6.953
 3901TIP3    H145238   8.126   6.620   6.865
 3901TIP3    H245239   8.213   6.590   6.987
 3902TIP3   OH245240   8.296   7.018   7.216
 3902TIP3    H145241   8.297   7.004   7.119
 3902TIP3    H245242   8.363   6.956   7.249
 3903TIP3   OH245243   8.167   6.527   7.327
 3903TIP3    H145244   8.202   6.526   7.235
 3903TIP3    H245245   8.213   6.606   7.364
 3904TIP3   OH245246   8.834   7.117   7.398
 3904TIP3    H145247   8.791   7.171   7.466
 3904TIP3    H245248   8.823   7.027   7.435
 3905TIP3   OH245249   8.281   6.993   7.759
 3905TIP3    H145250   8.204   7.037   7.801
 3905TIP3    H245251   8.242   6.971   7.672
 3906TIP3   OH245252   8.933   6.520   6.521
 3906TIP3    H145253   8.938   6.563   6.608
 3906TIP3    H245254   8.915   6.597   6.464
 3907TIP3   OH245255   7.998   6.610   7.665
 3907TIP3    H145256   8.013   6.693   7.713
 3907TIP3    H245257   7.917   6.582   7.710
 3908TIP3   OH245258   8.639   7.200   6.846
 3908TIP3    H145259   8.704   7.205   6.917
 3908TIP3    H245260   8.589   7.281   6.863
 3909TIP3   OH245261   8.095   7.166   7.871
 3909TIP3    H145262   8.087   7.203   7.780
 3909TIP3    H245263   8.002   7.136   7.887
 3910TIP3   OH245264   9.233   5.701   6.559
 3910TIP3    H145265   9.138   5.720   6.546
 3910TIP3    H245266   9.260   5.672   6.470
 3911TIP3   OH245267   8.051   6.561   6.707
 3911TIP3    H145268   8.003   6.640   6.675
 3911TIP3    H245269   7.988   6.490   6.690
 3912TIP3   OH245270   7.690   6.821   7.609
 3912TIP3    H145271   7.645   6.812   7.523
 3912TIP3    H245272   7.722   6.729   7.620
 3913TIP3   OH245273   7.655   7.096   7.266
 3913TIP3    H145274   7.742   7.059   7.248
 3913TIP3    H245275   7.675   7.157   7.338
 3914TIP3   OH245276   8.540   7.115   7.770
 3914TIP3    H145277   8.546   7.183   7.839
 3914TIP3    H245278   8.447   7.082   7.774
 3915TIP3   OH245279   8.597   7.476   6.690
 3915TIP3    H145280   8.594   7.506   6.597
 3915TIP3    H245281   8.592   7.562   6.736
 3916TIP3   OH245282   7.958   7.375   6.909
 3916TIP3    H145283   7.991   7.349   6.998
 3916TIP3    H245284   7.872   7.330   6.904
 3917TIP3   OH245285   8.866   7.349   6.416
 3917TIP3    H145286   8.893   7.258   6.439
 3917TIP3    H245287   8.897   7.397   6.494
 3918TIP3   OH245288   8.859   7.407   6.683
 3918TIP3    H145289   8.763   7.412   6.706
 3918TIP3    H245290   8.896   7.354   6.756
 3919TIP3   OH245291   9.150   6.329   7.888
 3919TIP3    H145292   9.123   6.342   7.796
 3919TIP3    H245293   9.198   6.246   7.884
 3920TIP3   OH245294   7.909   6.943   7.713
 3920TIP3    H145295   7.914   6.898   7.800
 3920TIP3    H245296   7.821   6.916   7.679
 3921TIP3   OH245297   8.156   5.830   7.274
 3921TIP3    H145298   8.075   5.855   7.228
 3921TIP3    H245299   8.138   5.868   7.363
 3922TIP3   OH245300   8.653   5.760   7.607
 3922TIP3    H145301   8.690   5.724   7.691
 3922TIP3    H245302   8.556   5.753   7.618
 3923TIP3   OH245303   8.965   6.138   7.681
 3923TIP3    H145304   8.914   6.125   7.763
 3923TIP3    H245305   8.960   6.235   7.670
 3924TIP3   OH245306   8.182   6.280   7.419
 3924TIP3    H145307   8.101   6.285   7.474
 3924TIP3    H245308   8.187   6.373   7.387
 3925TIP3   OH245309   8.162   6.292   6.926
 3925TIP3    H145310   8.066   6.278   6.908
 3925TIP3    H245311   8.201   6.272   6.838
 3926TIP3   OH245312   8.727   6.332   6.775
 3926TIP3    H145313   8.711   6.424   6.742
 3926TIP3    H245314   8.788   6.296   6.707
 3927TIP3   OH245315   8.584   6.390   7.911
 3927TIP3    H145316   8.555   6.298   7.929
 3927TIP3    H245317   8.659   6.395   7.970
 3928TIP3   OH245318   8.786   6.345   7.075
 3928TIP3    H145319   8.774   6.432   7.031
 3928TIP3    H245320   8.802   6.289   6.997
 3929TIP3   OH245321   7.929   6.298   7.549
 3929TIP3    H145322   7.962   6.333   7.632
 3929TIP3    H245323   7.894   6.211   7.581
 3930TIP3   OH245324   7.612   6.033   7.012
 3930TIP3    H145325   7.687   6.031   7.074
 3930TIP3    H245326   7.653   6.050   6.926
 3931TIP3   OH245327   7.723   6.113   6.525
 3931TIP3    H145328   7.777   6.173   6.473
 3931TIP3    H245329   7.649   6.171   6.551
 3932TIP3   OH245330   8.755   6.477   7.520
 3932TIP3    H145331   8.796   6.406   7.464
 3932TIP3    H245332   8.689   6.424   7.570
 3933TIP3   OH245333   8.442   6.072   7.021
 3933TIP3    H145334   8.346   6.060   7.034
 3933TIP3    H245335   8.481   6.011   7.086
 3934TIP3   OH245336   7.907   6.215   6.888
 3934TIP3    H145337   7.828   6.240   6.835
 3934TIP3    H245338   7.927   6.125   6.855
 3935TIP3   OH245339   8.241   6.239   6.666
 3935TIP3    H145340   8.338   6.226   6.674
 3935TIP3    H245341   8.234   6.303   6.595
 3936TIP3   OH245342   8.892   5.952   7.326
 3936TIP3    H145343   8.817   5.966   7.387
 3936TIP3    H245344   8.848   5.917   7.246
 3937TIP3   OH245345   9.151   7.528   7.993
 3937TIP3    H145346   9.180   7.568   7.908
 3937TIP3    H245347   9.220   7.560   8.053
 3938TIP3   OH245348   7.946   6.774   7.930
 3938TIP3    H145349   8.000   6.789   8.011
 3938TIP3    H245350   7.856   6.769   7.969
 3939TIP3   OH245351   8.517   6.356   7.185
 3939TIP3    H145352   8.606   6.330   7.155
 3939TIP3    H245353   8.479   6.271   7.211
 3940TIP3   OH245354   7.993   5.954   6.828
 3940TIP3    H145355   7.936   5.886   6.870
 3940TIP3    H245356   8.043   5.900   6.765
 3941TIP3   OH245357   8.421   6.150   7.443
 3941TIP3    H145358   8.348   6.214   7.429
 3941TIP3    H245359   8.489   6.207   7.480
 3942TIP3   OH245360   8.501   6.780   6.675
 3942TIP3    H145361   8.428   6.765   6.612
 3942TIP3    H245362   8.453   6.827   6.747
 3943TIP3   OH245363   9.193   6.744   7.495
 3943TIP3    H145364   9.236   6.811   7.437
 3943TIP3    H245365   9.117   6.713   7.441
 3944TIP3   OH245366   8.572   6.845   7.718
 3944TIP3    H145367   8.572   6.795   7.801
 3944TIP3    H245368   8.568   6.937   7.750
 3945TIP3   OH245369   8.922   6.239   6.585
 3945TIP3    H145370   9.007   6.244   6.633
 3945TIP3    H245371   8.916   6.325   6.537
 3946TIP3   OH245372   7.982   6.750   7.159
 3946TIP3    H145373   8.047   6.735   7.088
 3946TIP3    H245374   7.996   6.672   7.216
 3947TIP3   OH245375   7.682   6.562   7.732
 3947TIP3    H145376   7.681   6.503   7.810
 3947TIP3    H245377   7.623   6.515   7.671
 3948TIP3   OH245378   8.360   6.535   7.895
 3948TIP3    H145379   8.320   6.474   7.831
 3948TIP3    H245380   8.452   6.499   7.898
 3949TIP3   OH245381   8.863   7.061   7.743
 3949TIP3    H145382   8.774   7.083   7.712
 3949TIP3    H245383   8.857   7.088   7.836
 3950TIP3   OH245384   9.307   7.102   6.594
 3950TIP3    H145385   9.237   7.093   6.661
 3950TIP3    H245386   9.260   7.144   6.521
 3951TIP3   OH245387   8.997   6.635   7.348
 3951TIP3    H145388   8.901   6.645   7.345
 3951TIP3    H245389   9.011   6.583   7.266
 3952TIP3   OH245390   8.204   7.082   6.962
 3952TIP3    H145391   8.255   7.158   6.926
 3952TIP3    H245392   8.115   7.102   6.929
 3953TIP3   OH245393   8.354   6.872   6.874
 3953TIP3    H145394   8.299   6.948   6.900
 3953TIP3    H245395   8.313   6.798   6.921
 3954TIP3   OH245396   8.401   7.266   7.570
 3954TIP3    H145397   8.461   7.337   7.542
 3954TIP3    H245398   8.459   7.220   7.634
 3955TIP3   OH245399   8.232   7.318   6.832
 3955TIP3    H145400   8.141   7.346   6.852
 3955TIP3    H245401   8.279   7.400   6.858
 3956TIP3   OH245402   8.720   6.855   7.486
 3956TIP3    H145403   8.683   6.844   7.577
 3956TIP3    H245404   8.764   6.771   7.468
 3957TIP3   OH245405   8.990   7.002   6.408
 3957TIP3    H145406   9.027   6.952   6.483
 3957TIP3    H245407   8.947   6.929   6.361
 3958TIP3   OH245408   9.039   7.280   7.713
 3958TIP3    H145409   8.947   7.250   7.696
 3958TIP3    H245410   9.050   7.353   7.648
 3959TIP3   OH245411   7.876   6.066   7.680
 3959TIP3    H145412   7.800   6.096   7.734
 3959TIP3    H245413   7.887   5.977   7.717
 3960TIP3   OH245414   9.093   6.806   6.575
 3960TIP3    H145415   9.058   6.740   6.639
 3960TIP3    H245416   9.183   6.814   6.612
 3961TIP3   OH245417   7.803   7.217   7.489
 3961TIP3    H145418   7.878   7.162   7.517
 3961TIP3    H245419   7.787   7.273   7.567
 3962TIP3   OH245420   7.948   6.776   6.561
 3962TIP3    H145421   7.870   6.812   6.608
 3962TIP3    H245422   8.000   6.855   6.546
 3963TIP3   OH245423   8.722   6.037   7.589
 3963TIP3    H145424   8.815   6.043   7.619
 3963TIP3    H245425   8.699   5.945   7.612
 3964TIP3   OH245426   8.770   5.965   6.668
 3964TIP3    H145427   8.762   6.021   6.589
 3964TIP3    H245428   8.838   6.015   6.717
 3965TIP3   OH245429   8.565   7.232   6.519
 3965TIP3    H145430   8.476   7.196   6.531
 3965TIP3    H245431   8.591   7.246   6.612
 3966TIP3   OH245432   8.500   6.164   6.743
 3966TIP3    H145433   8.570   6.232   6.753
 3966TIP3    H245434   8.480   6.138   6.835
 3967TIP3   OH245435   8.613   6.289   7.652
 3967TIP3    H145436   8.611   6.317   7.746
 3967TIP3    H245437   8.650   6.198   7.652
 3968TIP3   OH245438   8.582   5.837   6.827
 3968TIP3    H145439   8.555   5.895   6.900
 3968TIP3    H245440   8.655   5.889   6.786
 3969TIP3   OH245441   8.276   7.304   6.536
 3969TIP3    H145442   8.339   7.376   6.534
 3969TIP3    H245443   8.237   7.315   6.625
 3970TIP3   OH245444   8.149   5.958   6.535
 3970TIP3    H145445   8.140   6.038   6.587
 3970TIP3    H245446   8.247   5.946   6.543
 3971TIP3   OH245447   9.212   6.048   7.759
 3971TIP3    H145448   9.121   6.072   7.731
 3971TIP3    H245449   9.257   6.053   7.673
 3972TIP3   OH245450   9.033   6.462   7.132
 3972TIP3    H145451   8.945   6.421   7.129
 3972TIP3    H245452   9.084   6.400   7.188
 3973TIP3   OH245453   9.204   7.327   7.321
 3973TIP3    H145454   9.169   7.383   7.249
 3973TIP3    H245455   9.296   7.356   7.320
 3974TIP3   OH245456   7.892   5.766   7.229
 3974TIP3    H145457   7.887   5.753   7.132
 3974TIP3    H245458   7.868   5.676   7.259
 3975TIP3   OH245459   7.761   7.164   6.811
 3975TIP3    H145460   7.679   7.203   6.841
 3975TIP3    H245461   7.771   7.214   6.728
 3976TIP3   OH245462   7.699   7.457   7.959
 3976TIP3    H145463   7.769   7.446   8.028
 3976TIP3    H245464   7.664   7.366   7.956
 3977TIP3   OH245465   8.202   7.283   8.136
 3977TIP3    H145466   8.294   7.252   8.132
 3977TIP3    H245467   8.163   7.238   8.060
 3978TIP3   OH245468   8.803   7.179   7.991
 3978TIP3    H145469   8.787   7.096   8.041
 3978TIP3    H245470   8.896   7.195   8.017
 3979TIP3   OH245471   7.687   6.795   8.039
 3979TIP3    H145472   7.639   6.710   8.048
 3979TIP3    H245473   7.643   6.835   7.961
 3980TIP3   OH245474   8.104   6.842   6.180
 3980TIP3    H145475   8.070   6.775   6.241
 3980TIP3    H245476   8.129   6.787   6.105
 3981TIP3   OH245477   8.353   6.795   7.939
 3981TIP3    H145478   8.327   6.849   7.862
 3981TIP3    H245479   8.359   6.702   7.904
 3982TIP3   OH245480   8.924   6.788   7.758
 3982TIP3    H145481   9.013   6.830   7.755
 3982TIP3    H245482   8.872   6.868   7.736
 3983TIP3   OH245483   7.835   6.492   7.995
 3983TIP3    H145484   7.918   6.447   8.013
 3983TIP3    H245485   7.840   6.563   8.063
 3984TIP3   OH245486   8.274   6.671   6.531
 3984TIP3    H145487   8.196   6.636   6.578
 3984TIP3    H245488   8.304   6.596   6.478
 3985TIP3   OH245489   8.182   6.410   7.682
 3985TIP3    H145490   8.121   6.485   7.694
 3985TIP3    H245491   8.252   6.454   7.628
 3986TIP3   OH245492   8.708   6.685   8.078
 3986TIP3    H145493   8.774   6.656   8.011
 3986TIP3    H245494   8.690   6.601   8.123
 3987TIP3   OH245495   9.179   6.675   6.259
 3987TIP3    H145496   9.125   6.601   6.228
 3987TIP3    H245497   9.108   6.728   6.296
 3988TIP3   OH245498   8.295   6.188   7.794
 3988TIP3    H145499   8.296   6.119   7.724
 3988TIP3    H245500   8.275   6.267   7.741
 3989TIP3   OH245501   8.280   5.982   7.592
 3989TIP3    H145502   8.334   6.033   7.527
 3989TIP3    H245503   8.191   5.992   7.553
 3990TIP3   OH245504   8.394   6.568   7.582
 3990TIP3    H145505   8.478   6.613   7.562
 3990TIP3    H245506   8.332   6.633   7.543
 3991TIP3   OH245507   8.873   6.307   8.091
 3991TIP3    H145508   8.861   6.216   8.124
 3991TIP3    H245509   8.947   6.298   8.028
 3992TIP3   OH245510   9.016   6.620   7.952
 3992TIP3    H145511   8.983   6.676   7.879
 3992TIP3    H245512   9.111   6.610   7.930
 3993TIP3   OH245513   8.117   6.245   8.005
 3993TIP3    H145514   8.034   6.202   7.976
 3993TIP3    H245515   8.175   6.235   7.927
 3994TIP3   OH245516   8.384   5.736   7.572
 3994TIP3    H145517   8.351   5.828   7.588
 3994TIP3    H245518   8.300   5.694   7.548
 3995TIP3   OH245519   8.487   6.148   8.000
 3995TIP3    H145520   8.428   6.140   8.077
 3995TIP3    H245521   8.422   6.139   7.927
 3996TIP3   OH245522   8.758   6.084   7.896
 3996TIP3    H145523   8.666   6.073   7.924
 3996TIP3    H245524   8.805   6.019   7.952
 3997TIP3   OH245525   8.931   5.936   8.064
 3997TIP3    H145526   8.909   5.841   8.077
 3997TIP3    H245527   8.898   5.978   8.148
 3998TIP3   OH245528   7.894   6.078   8.010
 3998TIP3    H145529   7.902   5.994   7.961
 3998TIP3    H245530   7.878   6.046   8.103
 3999TIP3   OH245531   8.333   5.703   7.840
 3999TIP3    H145532   8.410   5.646   7.859
 3999TIP3    H245533   8.339   5.702   7.742
 4000TIP3   OH245534   8.356   5.789   8.155
 4000TIP3    H145535   8.330   5.751   8.069
 4000TIP3    H245536   8.342   5.883   8.137
 4001TIP3   OH245537   7.732   6.948   6.359
 4001TIP3    H145538   7.804   6.953   6.423
 4001TIP3    H245539   7.737   6.856   6.331
 4002TIP3   OH245540   7.572   7.505   6.891
 4002TIP3    H145541   7.512   7.444   6.841
 4002TIP3    H245542   7.606   7.448   6.963
 4003TIP3   OH245543   7.681   7.330   7.070
 4003TIP3    H145544   7.617   7.264   7.106
 4003TIP3    H245545   7.741   7.342   7.147
 4004TIP3   OH245546   9.389   7.356   7.650
 4004TIP3    H145547   9.327   7.295   7.603
 4004TIP3    H245548   9.406   7.304   7.731
 4005TIP3   OH245549   9.238   6.935   8.123
 4005TIP3    H145550   9.156   6.959   8.171
 4005TIP3    H245551   9.285   7.021   8.129
 4006TIP3   OH245552   9.331   6.780   6.719
 4006TIP3    H145553   9.377   6.852   6.763
 4006TIP3    H245554   9.309   6.719   6.790
 4007TIP3   OH245555   0.024   6.877   7.360
 4007TIP3    H145556   0.080   6.803   7.327
 4007TIP3    H245557   0.063   6.956   7.317
 4008TIP3   OH245558   9.237   7.140   7.559
 4008TIP3    H145559   9.153   7.176   7.594
 4008TIP3    H245560   9.218   7.124   7.466
 4009TIP3   OH245561   9.164   6.445   6.889
 4009TIP3    H145562   9.145   6.355   6.857
 4009TIP3    H245563   9.116   6.447   6.974
 4010TIP3   OH245564   7.671   6.668   7.314
 4010TIP3    H145565   7.672   6.631   7.223
 4010TIP3    H245566   7.764   6.648   7.341
 4011TIP3   OH245567   9.279   6.628   7.897
 4011TIP3    H145568   9.292   6.535   7.869
 4011TIP3    H245569   9.301   6.680   7.819
 4012TIP3   OH245570   9.138   6.213   6.750
 4012TIP3    H145571   9.141   6.116   6.761
 4012TIP3    H245572   9.231   6.230   6.730
 4013TIP3   OH245573   9.179   6.279   7.292
 4013TIP3    H145574   9.276   6.266   7.288
 4013TIP3    H245575   9.167   6.276   7.388
 4014TIP3   OH245576   9.212   6.335   7.568
 4014TIP3    H145577   9.130   6.383   7.591
 4014TIP3    H245578   9.274   6.406   7.539
 4015TIP3   OH245579   7.678   6.162   7.893
 4015TIP3    H145580   7.759   6.136   7.943
 4015TIP3    H245581   7.621   6.083   7.905
 4016TIP3   OH245582   9.184   5.949   6.728
 4016TIP3    H145583   9.209   5.903   6.811
 4016TIP3    H245584   9.153   5.873   6.675
 4017TIP3   OH245585   7.763   6.000   7.274
 4017TIP3    H145586   7.804   5.911   7.266
 4017TIP3    H245587   7.839   6.060   7.263
 4018TIP3   OH245588   7.621   6.303   7.313
 4018TIP3    H145589   7.683   6.283   7.241
 4018TIP3    H245590   7.663   6.381   7.351
 4019TIP3   OH245591   7.638   5.945   6.716
 4019TIP3    H145592   7.544   5.965   6.731
 4019TIP3    H245593   7.654   5.995   6.633
 4020TIP3   OH245594   9.094   7.422   6.927
 4020TIP3    H145595   9.156   7.394   6.858
 4020TIP3    H245596   9.150   7.477   6.985
 4021TIP3   OH245597   7.622   5.791   7.553
 4021TIP3    H145598   7.547   5.758   7.607
 4021TIP3    H245599   7.579   5.853   7.492
 4022TIP3   OH245600   7.836   7.100   7.949
 4022TIP3    H145601   7.749   7.133   7.921
 4022TIP3    H245602   7.818   7.064   8.036
 4023TIP3   OH245603   8.130   7.245   7.605
 4023TIP3    H145604   8.124   7.341   7.582
 4023TIP3    H245605   8.228   7.235   7.605
 4024TIP3   OH245606   8.561   7.411   7.855
 4024TIP3    H145607   8.569   7.391   7.949
 4024TIP3    H245608   8.656   7.426   7.831
 4025TIP3   OH245609   8.794   7.552   7.815
 4025TIP3    H145610   8.871   7.523   7.763
 4025TIP3    H245611   8.831   7.570   7.904
 4026TIP3   OH245612   9.249   5.736   7.753
 4026TIP3    H145613   9.186   5.792   7.705
 4026TIP3    H245614   9.265   5.661   7.693
 4027TIP3   OH245615   7.871   7.559   7.585
 4027TIP3    H145616   7.787   7.589   7.544
 4027TIP3    H245617   7.857   7.592   7.676
 4028TIP3   OH245618   8.102   7.500   7.479
 4028TIP3    H145619   8.011   7.519   7.515
 4028TIP3    H245620   8.101   7.562   7.405
 4029TIP3   OH245621   8.621   7.473   7.380
 4029TIP3    H145622   8.545   7.505   7.331
 4029TIP3    H245623   8.626   7.544   7.448
 4030TIP3   OH245624   8.787   7.334   7.558
 4030TIP3    H145625   8.722   7.370   7.494
 4030TIP3    H245626   8.864   7.388   7.531
 4031TIP3   OH245627   9.079   7.473   7.517
 4031TIP3    H145628   9.095   7.563   7.484
 4031TIP3    H245629   9.127   7.422   7.449
 4032TIP3   OH245630   7.836   7.400   7.287
 4032TIP3    H145631   7.816   7.333   7.356
 4032TIP3    H245632   7.925   7.371   7.255
 4033TIP3   OH245633   8.057   7.313   7.151
 4033TIP3    H145634   8.045   7.217   7.164
 4033TIP3    H245635   8.144   7.322   7.195
 4034TIP3   OH245636   8.283   7.297   7.291
 4034TIP3    H145637   8.310   7.204   7.275
 4034TIP3    H245638   8.290   7.301   7.388
 4035TIP3   OH245639   8.624   5.853   7.124
 4035TIP3    H145640   8.548   5.838   7.183
 4035TIP3    H245641   8.654   5.762   7.107
 4036TIP3   OH245642   9.156   5.673   7.158
 4036TIP3    H145643   9.200   5.737   7.097
 4036TIP3    H245644   9.062   5.697   7.139
 4037TIP3   OH245645   9.275   5.827   6.963
 4037TIP3    H145646   9.346   5.775   6.918
 4037TIP3    H245647   9.331   5.901   6.997
 4038TIP3   OH245648   7.867   5.740   6.946
 4038TIP3    H145649   7.783   5.719   6.901
 4038TIP3    H245650   7.915   5.655   6.938
 4039TIP3   OH245651   7.734   5.726   6.514
 4039TIP3    H145652   7.778   5.787   6.451
 4039TIP3    H245653   7.703   5.786   6.585
 4040TIP3   OH245654   8.303   5.714   6.949
 4040TIP3    H145655   8.379   5.737   6.895
 4040TIP3    H245656   8.330   5.747   7.037
 4041TIP3   OH245657   8.914   5.757   7.068
 4041TIP3    H145658   8.895   5.781   6.977
 4041TIP3    H245659   8.860   5.675   7.078
 4042TIP3   OH245660   8.964   5.775   6.637
 4042TIP3    H145661   8.886   5.834   6.649
 4042TIP3    H245662   8.930   5.688   6.666
 4043TIP3   OH245663   7.698   7.330   6.602
 4043TIP3    H145664   7.641   7.324   6.524
 4043TIP3    H245665   7.744   7.415   6.584
 4044TIP3   OH245666   7.901   5.886   6.365
 4044TIP3    H145667   7.974   5.895   6.303
 4044TIP3    H245668   7.941   5.931   6.441
 4045TIP3   OH245669   8.416   5.953   6.592
 4045TIP3    H145670   8.473   5.890   6.638
 4045TIP3    H245671   8.459   6.036   6.623
 4046TIP3   OH245672   8.614   7.470   6.410
 4046TIP3    H145673   8.708   7.464   6.381
 4046TIP3    H245674   8.611   7.392   6.470
 4047TIP3   OH245675   9.278   7.355   6.725
 4047TIP3    H145676   9.340   7.303   6.671
 4047TIP3    H245677   9.255   7.422   6.657
 4048TIP3   OH245678   7.848   5.807   7.867
 4048TIP3    H145679   7.793   5.728   7.877
 4048TIP3    H245680   7.920   5.790   7.933
 4049TIP3   OH245681   8.039   5.752   8.059
 4049TIP3    H145682   8.118   5.705   8.029
 4049TIP3    H245683   7.997   5.684   8.115
 4050TIP3   OH245684   8.886   5.669   8.082
 4050TIP3    H145685   8.899   5.627   8.170
 4050TIP3    H245686   8.977   5.652   8.045
 4051TIP3   OH245687   9.213   7.277   7.921
 4051TIP3    H145688   9.153   7.252   7.848
 4051TIP3    H245689   9.191   7.371   7.934
 4052TIP3   OH245690   1.237   8.534   6.914
 4052TIP3    H145691   1.225   8.630   6.920
 4052TIP3    H245692   1.172   8.514   6.845
 4053TIP3   OH245693   1.139   8.450   7.284
 4053TIP3    H145694   1.166   8.405   7.368
 4053TIP3    H245695   1.085   8.378   7.246
 4054TIP3   OH245696   0.386   8.444   7.409
 4054TIP3    H145697   0.364   8.357   7.448
 4054TIP3    H245698   0.464   8.470   7.460
 4055TIP3   OH245699   1.472   8.712   7.114
 4055TIP3    H145700   1.469   8.653   7.191
 4055TIP3    H245701   1.474   8.799   7.154
 4056TIP3   OH245702   0.404   8.867   7.264
 4056TIP3    H145703   0.398   8.777   7.222
 4056TIP3    H245704   0.498   8.873   7.283
 4057TIP3   OH245705   0.137   8.240   6.783
 4057TIP3    H145706   0.158   8.331   6.816
 4057TIP3    H245707   0.074   8.212   6.849
 4058TIP3   OH245708   0.232   8.431   6.952
 4058TIP3    H145709   0.257   8.367   7.022
 4058TIP3    H245710   0.253   8.515   6.995
 4059TIP3   OH245711   1.205   9.243   7.196
 4059TIP3    H145712   1.255   9.192   7.128
 4059TIP3    H245713   1.183   9.169   7.255
 4060TIP3   OH245714   0.974   8.675   7.337
 4060TIP3    H145715   1.022   8.597   7.300
 4060TIP3    H245716   1.047   8.738   7.350
 4061TIP3   OH245717   1.827   7.853   7.350
 4061TIP3    H145718   1.837   7.907   7.432
 4061TIP3    H245719   1.907   7.881   7.301
 4062TIP3   OH245720   1.325   8.163   7.358
 4062TIP3    H145721   1.334   8.066   7.363
 4062TIP3    H245722   1.266   8.169   7.281
 4063TIP3   OH245723   0.593   7.964   7.059
 4063TIP3    H145724   0.625   8.039   7.005
 4063TIP3    H245725   0.568   7.903   6.987
 4064TIP3   OH245726   1.346   7.975   6.941
 4064TIP3    H145727   1.405   7.937   7.011
 4064TIP3    H245728   1.404   8.043   6.903
 4065TIP3   OH245729   0.277   8.224   7.137
 4065TIP3    H145730   0.348   8.174   7.182
 4065TIP3    H245731   0.267   8.172   7.055
 4066TIP3   OH245732   0.765   8.359   7.083
 4066TIP3    H145733   0.838   8.311   7.126
 4066TIP3    H245734   0.726   8.289   7.027
 4067TIP3   OH245735   1.832   8.001   7.589
 4067TIP3    H145736   1.795   8.082   7.549
 4067TIP3    H245737   1.842   8.032   7.681
 4068TIP3   OH245738   0.511   7.860   7.473
 4068TIP3    H145739   0.465   7.904   7.399
 4068TIP3    H245740   0.448   7.881   7.546
 4069TIP3   OH245741   1.174   8.798   6.824
 4069TIP3    H145742   1.123   8.791   6.741
 4069TIP3    H245743   1.156   8.891   6.845
 4070TIP3   OH245744   0.734   8.637   7.443
 4070TIP3    H145745   0.681   8.718   7.459
 4070TIP3    H245746   0.817   8.673   7.403
 4071TIP3   OH245747   1.534   7.924   7.126
 4071TIP3    H145748   1.574   7.840   7.150
 4071TIP3    H245749   1.574   7.985   7.191
 4072TIP3   OH245750   0.457   8.059   7.262
 4072TIP3    H145751   0.523   8.115   7.309
 4072TIP3    H245752   0.513   8.021   7.189
 4073TIP3   OH245753   0.592   8.841   7.541
 4073TIP3    H145754   0.596   8.939   7.530
 4073TIP3    H245755   0.498   8.831   7.567
 4074TIP3   OH245756   0.179   8.837   6.646
 4074TIP3    H145757   0.167   8.918   6.594
 4074TIP3    H245758   0.222   8.873   6.726
 4075TIP3   OH245759   1.553   8.989   7.360
 4075TIP3    H145760   1.456   8.984   7.356
 4075TIP3    H245761   1.566   9.079   7.324
 4076TIP3   OH245762   1.535   7.795   7.448
 4076TIP3    H145763   1.465   7.853   7.410
 4076TIP3    H245764   1.614   7.818   7.397
 4077TIP3   OH245765   0.837   7.600   7.189
 4077TIP3    H145766   0.809   7.508   7.196
 4077TIP3    H245767   0.755   7.645   7.224
 4078TIP3   OH245768   1.348   9.117   7.003
 4078TIP3    H145769   1.378   9.037   6.953
 4078TIP3    H245770   1.424   9.178   6.981
 4079TIP3   OH245771   1.469   8.916   6.848
 4079TIP3    H145772   1.482   8.858   6.770
 4079TIP3    H245773   1.483   8.853   6.920
 4080TIP3   OH245774   1.650   8.799   7.715
 4080TIP3    H145775   1.658   8.730   7.645
 4080TIP3    H245776   1.670   8.881   7.664
 4081TIP3   OH245777   1.110   8.465   6.683
 4081TIP3    H145778   1.057   8.539   6.646
 4081TIP3    H245779   1.189   8.466   6.624
 4082TIP3   OH245780   1.848   8.433   7.498
 4082TIP3    H145781   1.795   8.513   7.518
 4082TIP3    H245782   1.901   8.470   7.423
 4083TIP3   OH245783   1.491   8.492   6.797
 4083TIP3    H145784   1.411   8.513   6.850
 4083TIP3    H245785   1.541   8.435   6.859
 4084TIP3   OH245786   1.450   8.346   7.672
 4084TIP3    H145787   1.454   8.433   7.715
 4084TIP3    H245788   1.373   8.360   7.612
 4085TIP3   OH245789   0.613   8.557   6.957
 4085TIP3    H145790   0.606   8.520   6.868
 4085TIP3    H245791   0.676   8.494   7.000
 4086TIP3   OH245792   0.737   8.891   7.220
 4086TIP3    H145793   0.727   8.895   7.122
 4086TIP3    H245794   0.812   8.831   7.234
 4087TIP3   OH245795   0.642   8.421   7.311
 4087TIP3    H145796   0.681   8.431   7.222
 4087TIP3    H245797   0.690   8.490   7.363
 4088TIP3   OH245798   1.264   9.012   7.403
 4088TIP3    H145799   1.243   9.068   7.479
 4088TIP3    H245800   1.248   8.922   7.440
 4089TIP3   OH245801   0.729   8.846   7.779
 4089TIP3    H145802   0.665   8.903   7.827
 4089TIP3    H245803   0.683   8.831   7.693
 4090TIP3   OH245804   1.349   8.437   6.561
 4090TIP3    H145805   1.412   8.472   6.628
 4090TIP3    H245806   1.381   8.478   6.479
 4091TIP3   OH245807   0.447   8.491   7.695
 4091TIP3    H145808   0.454   8.559   7.765
 4091TIP3    H245809   0.354   8.466   7.707
 4092TIP3   OH245810   1.099   9.090   6.831
 4092TIP3    H145811   1.158   9.111   6.905
 4092TIP3    H245812   1.042   9.168   6.826
 4093TIP3   OH245813   0.563   9.047   7.872
 4093TIP3    H145814   0.537   9.049   7.778
 4093TIP3    H245815   0.475   9.024   7.910
 4094TIP3   OH245816   1.700   7.581   6.559
 4094TIP3    H145817   1.604   7.591   6.578
 4094TIP3    H245818   1.721   7.673   6.536
 4095TIP3   OH245819   0.503   8.444   6.664
 4095TIP3    H145820   0.457   8.524   6.693
 4095TIP3    H245821   0.459   8.372   6.712
 4096TIP3   OH245822   0.151   8.702   7.625
 4096TIP3    H145823   0.091   8.720   7.550
 4096TIP3    H245824   0.128   8.610   7.649
 4097TIP3   OH245825   0.139   8.961   7.232
 4097TIP3    H145826   0.225   8.918   7.214
 4097TIP3    H245827   0.164   9.026   7.300
 4098TIP3   OH245828   1.905   9.054   7.902
 4098TIP3    H145829   1.894   8.957   7.915
 4098TIP3    H245830   1.814   9.083   7.925
 4099TIP3   OH245831   0.988   8.997   7.755
 4099TIP3    H145832   0.986   9.073   7.817
 4099TIP3    H245833   0.902   8.954   7.766
 4100TIP3   OH245834   0.444   9.221   6.892
 4100TIP3    H145835   0.436   9.199   6.988
 4100TIP3    H245836   0.386   9.151   6.855
 4101TIP3   OH245837   1.350   9.262   6.707
 4101TIP3    H145838   1.253   9.274   6.705
 4101TIP3    H245839   1.365   9.190   6.770
 4102TIP3   OH245840   1.620   8.162   7.896
 4102TIP3    H145841   1.566   8.211   7.831
 4102TIP3    H245842   1.612   8.072   7.857
 4103TIP3   OH245843   0.347   8.891   7.680
 4103TIP3    H145844   0.355   8.870   7.774
 4103TIP3    H245845   0.281   8.823   7.656
 4104TIP3   OH245846   0.620   7.717   7.281
 4104TIP3    H145847   0.528   7.694   7.255
 4104TIP3    H245848   0.603   7.777   7.356
 4105TIP3   OH245849   1.113   7.653   7.617
 4105TIP3    H145850   1.160   7.603   7.688
 4105TIP3    H245851   1.021   7.651   7.650
 4106TIP3   OH245852   1.376   8.067   7.694
 4106TIP3    H145853   1.313   8.033   7.763
 4106TIP3    H245854   1.381   8.160   7.723
 4107TIP3   OH245855   0.626   8.184   7.423
 4107TIP3    H145856   0.568   8.212   7.498
 4107TIP3    H245857   0.639   8.271   7.378
 4108TIP3   OH245858   0.629   8.176   6.895
 4108TIP3    H145859   0.536   8.147   6.878
 4108TIP3    H245860   0.676   8.169   6.811
 4109TIP3   OH245861   1.173   8.206   6.750
 4109TIP3    H145862   1.155   8.302   6.743
 4109TIP3    H245863   1.248   8.193   6.691
 4110TIP3   OH245864   1.083   8.277   7.920
 4110TIP3    H145865   1.032   8.203   7.959
 4110TIP3    H245866   1.160   8.278   7.980
 4111TIP3   OH245867   1.245   8.204   7.091
 4111TIP3    H145868   1.251   8.290   7.044
 4111TIP3    H245869   1.253   8.140   7.017
 4112TIP3   OH245870   0.352   8.203   7.558
 4112TIP3    H145871   0.404   8.223   7.637
 4112TIP3    H245872   0.341   8.105   7.562
 4113TIP3   OH245873   0.113   7.919   7.022
 4113TIP3    H145874   0.194   7.913   7.075
 4113TIP3    H245875   0.143   7.926   6.930
 4114TIP3   OH245876   0.143   8.024   6.520
 4114TIP3    H145877   0.181   8.027   6.430
 4114TIP3    H245878   0.160   8.115   6.549
 4115TIP3   OH245879   1.205   8.348   7.513
 4115TIP3    H145880   1.255   8.271   7.475
 4115TIP3    H245881   1.139   8.300   7.569
 4116TIP3   OH245882   0.903   7.960   7.030
 4116TIP3    H145883   0.817   7.947   7.074
 4116TIP3    H245884   0.958   7.887   7.066
 4117TIP3   OH245885   0.360   8.087   6.890
 4117TIP3    H145886   0.292   8.105   6.822
 4117TIP3    H245887   0.398   8.002   6.859
 4118TIP3   OH245888   1.311   7.879   7.317
 4118TIP3    H145889   1.238   7.844   7.371
 4118TIP3    H245890   1.315   7.815   7.243
 4119TIP3   OH245891   0.407   8.706   7.899
 4119TIP3    H145892   0.459   8.721   7.980
 4119TIP3    H245893   0.320   8.683   7.938
 4120TIP3   OH245894   0.999   8.205   7.208
 4120TIP3    H145895   1.071   8.188   7.144
 4120TIP3    H245896   0.960   8.117   7.217
 4121TIP3   OH245897   0.502   7.830   6.845
 4121TIP3    H145898   0.433   7.766   6.877
 4121TIP3    H245899   0.573   7.767   6.823
 4122TIP3   OH245900   0.841   8.034   7.425
 4122TIP3    H145901   0.763   8.091   7.410
 4122TIP3    H245902   0.903   8.093   7.470
 4123TIP3   OH245903   0.954   8.691   6.620
 4123TIP3    H145904   0.880   8.650   6.573
 4123TIP3    H245905   0.911   8.711   6.707
 4124TIP3   OH245906   1.670   8.626   7.519
 4124TIP3    H145907   1.712   8.668   7.440
 4124TIP3    H245908   1.580   8.618   7.484
 4125TIP3   OH245909   1.070   8.702   7.739
 4125TIP3    H145910   1.043   8.656   7.819
 4125TIP3    H245911   1.033   8.791   7.753
 4126TIP3   OH245912   1.415   8.110   6.570
 4126TIP3    H145913   1.469   8.151   6.640
 4126TIP3    H245914   1.397   8.182   6.509
 4127TIP3   OH245915   0.421   8.630   7.138
 4127TIP3    H145916   0.480   8.613   7.061
 4127TIP3    H245917   0.458   8.567   7.203
 4128TIP3   OH245918   0.133   8.450   7.711
 4128TIP3    H145919   0.156   8.400   7.791
 4128TIP3    H245920   0.124   8.381   7.642
 4129TIP3   OH245921   0.821   8.401   7.880
 4129TIP3    H145922   0.758   8.348   7.829
 4129TIP3    H245923   0.904   8.351   7.867
 4130TIP3   OH245924   1.336   8.970   7.732
 4130TIP3    H145925   1.254   8.970   7.683
 4130TIP3    H245926   1.304   9.006   7.817
 4131TIP3   OH245927   1.806   8.159   6.597
 4131TIP3    H145928   1.798   8.143   6.500
 4131TIP3    H245929   1.820   8.255   6.601
 4132TIP3   OH245930   1.895   8.780   7.845
 4132TIP3    H145931   1.804   8.792   7.807
 4132TIP3    H245932   1.948   8.767   7.764
 4133TIP3   OH245933   1.431   8.540   7.323
 4133TIP3    H145934   1.339   8.523   7.298
 4133TIP3    H245935   1.477   8.470   7.274
 4134TIP3   OH245936   0.670   8.939   6.962
 4134TIP3    H145937   0.714   9.018   6.923
 4134TIP3    H245938   0.581   8.949   6.926
 4135TIP3   OH245939   0.259   8.488   6.383
 4135TIP3    H145940   0.349   8.473   6.415
 4135TIP3    H245941   0.209   8.514   6.462
 4136TIP3   OH245942   0.830   8.742   6.860
 4136TIP3    H145943   0.782   8.824   6.887
 4136TIP3    H245944   0.790   8.675   6.917
 4137TIP3   OH245945   0.860   9.199   7.501
 4137TIP3    H145946   0.869   9.288   7.541
 4137TIP3    H245947   0.933   9.150   7.543
 4138TIP3   OH245948   0.712   9.179   6.855
 4138TIP3    H145949   0.620   9.210   6.866
 4138TIP3    H245950   0.756   9.263   6.881
 4139TIP3   OH245951   1.212   8.737   7.490
 4139TIP3    H145952   1.164   8.710   7.573
 4139TIP3    H245953   1.255   8.653   7.466
 4140TIP3   OH245954   1.516   9.221   7.697
 4140TIP3    H145955   1.437   9.164   7.688
 4140TIP3    H245956   1.492   9.300   7.647
 4141TIP3   OH245957   0.321   7.932   7.662
 4141TIP3    H145958   0.288   7.976   7.743
 4141TIP3    H245959   0.288   7.841   7.676
 4142TIP3   OH245960   1.533   8.689   6.624
 4142TIP3    H145961   1.520   8.617   6.690
 4142TIP3    H245962   1.630   8.694   6.617
 4143TIP3   OH245963   0.276   9.106   7.472
 4143TIP3    H145964   0.335   9.028   7.478
 4143TIP3    H245965   0.250   9.116   7.565
 4144TIP3   OH245966   0.725   8.906   6.482
 4144TIP3    H145967   0.807   8.861   6.509
 4144TIP3    H245968   0.735   8.996   6.516
 4145TIP3   OH245969   1.155   7.934   7.590
 4145TIP3    H145970   1.249   7.956   7.602
 4145TIP3    H245971   1.149   7.839   7.613
 4146TIP3   OH245972   1.295   7.861   6.708
 4146TIP3    H145973   1.282   7.921   6.633
 4146TIP3    H245974   1.317   7.924   6.781
 4147TIP3   OH245975   1.013   9.070   6.507
 4147TIP3    H145976   0.923   9.091   6.538
 4147TIP3    H245977   1.064   9.118   6.574
 4148TIP3   OH245978   0.935   8.039   6.759
 4148TIP3    H145979   1.014   8.095   6.756
 4148TIP3    H245980   0.923   8.020   6.854
 4149TIP3   OH245981   1.068   8.180   7.660
 4149TIP3    H145982   1.083   8.192   7.756
 4149TIP3    H245983   1.096   8.088   7.639
 4150TIP3   OH245984   1.057   7.740   6.809
 4150TIP3    H145985   1.030   7.800   6.880
 4150TIP3    H245986   1.144   7.781   6.786
 4151TIP3   OH245987   0.773   9.179   6.564
 4151TIP3    H145988   0.733   9.249   6.509
 4151TIP3    H245989   0.718   9.185   6.645
 4152TIP3   OH245990   1.621   7.937   7.751
 4152TIP3    H145991   1.528   7.958   7.729
 4152TIP3    H245992   1.663   7.932   7.663
 4153TIP3   OH245993   1.515   8.287   7.125
 4153TIP3    H145994   1.442   8.227   7.147
 4153TIP3    H245995   1.585   8.251   7.184
 4154TIP3   OH245996   0.266   8.192   6.346
 4154TIP3    H145997   0.263   8.287   6.328
 4154TIP3    H245998   0.289   8.155   6.260
 4155TIP3   OH245999   1.572   9.262   7.342
 4155TIP3    H146000   1.580   9.327   7.269
 4155TIP3    H246001   1.663   9.266   7.377
 4156TIP3   OH246002   0.366   7.647   7.218
 4156TIP3    H146003   0.358   7.629   7.122
 4156TIP3    H246004   0.326   7.565   7.255
 4157TIP3   OH246005   0.262   9.032   6.841
 4157TIP3    H146006   0.202   9.072   6.906
 4157TIP3    H246007   0.230   9.077   6.760
 4158TIP3   OH246008   0.193   9.300   7.984
 4158TIP3    H146009   0.247   9.274   8.062
 4158TIP3    H246010   0.172   9.213   7.948
 4159TIP3   OH246011   0.691   9.155   8.128
 4159TIP3    H146012   0.772   9.103   8.138
 4159TIP3    H246013   0.667   9.133   8.036
 4160TIP3   OH246014   1.269   9.058   7.995
 4160TIP3    H146015   1.256   8.963   8.019
 4160TIP3    H246016   1.358   9.074   8.032
 4161TIP3   OH246017   0.158   8.702   8.014
 4161TIP3    H146018   0.151   8.610   8.046
 4161TIP3    H246019   0.071   8.707   7.968
 4162TIP3   OH246020   0.832   8.662   7.950
 4162TIP3    H146021   0.791   8.718   7.879
 4162TIP3    H246022   0.842   8.573   7.907
 4163TIP3   OH246023   1.400   8.674   7.753
 4163TIP3    H146024   1.477   8.735   7.758
 4163TIP3    H246025   1.331   8.739   7.733
 4164TIP3   OH246026   0.262   8.389   7.992
 4164TIP3    H146027   0.314   8.312   8.019
 4164TIP3    H246028   0.260   8.436   8.077
 4165TIP3   OH246029   0.718   8.540   6.531
 4165TIP3    H146030   0.641   8.504   6.581
 4165TIP3    H246031   0.727   8.475   6.458
 4166TIP3   OH246032   0.626   8.308   7.665
 4166TIP3    H146033   0.570   8.388   7.678
 4166TIP3    H246034   0.704   8.348   7.622
 4167TIP3   OH246035   0.838   8.351   6.309
 4167TIP3    H146036   0.856   8.352   6.212
 4167TIP3    H246037   0.930   8.345   6.338
 4168TIP3   OH246038   1.179   8.557   8.073
 4168TIP3    H146039   1.262   8.515   8.047
 4168TIP3    H246040   1.143   8.493   8.138
 4169TIP3   OH246041   1.620   8.602   6.227
 4169TIP3    H146042   1.651   8.576   6.139
 4169TIP3    H246043   1.699   8.609   6.281
 4170TIP3   OH246044   0.737   8.091   7.778
 4170TIP3    H146045   0.754   8.020   7.713
 4170TIP3    H246046   0.714   8.167   7.720
 4171TIP3   OH246047   0.752   7.861   7.603
 4171TIP3    H146048   0.777   7.904   7.517
 4171TIP3    H246049   0.655   7.855   7.590
 4172TIP3   OH246050   0.855   8.446   7.572
 4172TIP3    H146051   0.944   8.474   7.551
 4172TIP3    H246052   0.805   8.524   7.541
 4173TIP3   OH246053   1.281   8.230   8.110
 4173TIP3    H146054   1.298   8.139   8.143
 4173TIP3    H246055   1.371   8.265   8.109
 4174TIP3   OH246056   1.468   8.512   7.961
 4174TIP3    H146057   1.428   8.564   7.887
 4174TIP3    H246058   1.560   8.506   7.928
 4175TIP3   OH246059   0.589   8.123   8.015
 4175TIP3    H146060   0.497   8.093   8.004
 4175TIP3    H246061   0.625   8.119   7.924
 4176TIP3   OH246062   0.837   7.614   7.637
 4176TIP3    H146063   0.815   7.710   7.633
 4176TIP3    H246064   0.759   7.578   7.592
 4177TIP3   OH246065   0.937   8.068   8.016
 4177TIP3    H146066   0.868   8.063   8.086
 4177TIP3    H246067   0.883   8.040   7.940
 4178TIP3   OH246068   1.207   7.989   7.898
 4178TIP3    H146069   1.117   7.994   7.933
 4178TIP3    H246070   1.247   7.927   7.964
 4179TIP3   OH246071   1.312   7.812   8.064
 4179TIP3    H146072   1.346   7.724   8.090
 4179TIP3    H246073   1.329   7.869   8.142
 4180TIP3   OH246074   0.356   7.971   7.987
 4180TIP3    H146075   0.347   7.883   7.946
 4180TIP3    H246076   0.341   7.948   8.082
 4181TIP3   OH246077   0.805   7.555   7.898
 4181TIP3    H146078   0.882   7.496   7.905
 4181TIP3    H246079   0.812   7.575   7.802
 4182TIP3   OH246080   0.818   7.685   8.162
 4182TIP3    H146081   0.805   7.644   8.074
 4182TIP3    H246082   0.795   7.778   8.140
 4183TIP3   OH246083   0.145   9.207   7.066
 4183TIP3    H146084   0.100   9.134   7.114
 4183TIP3    H246085   0.185   9.256   7.141
 4184TIP3   OH246086   1.833   9.325   7.385
 4184TIP3    H146087   1.908   9.345   7.445
 4184TIP3    H246088   1.823   9.409   7.337
 4185TIP3   OH246089   1.878   9.215   7.647
 4185TIP3    H146090   1.838   9.150   7.587
 4185TIP3    H246091   1.892   9.163   7.727
 4186TIP3   OH246092   1.692   8.838   8.115
 4186TIP3    H146093   1.615   8.842   8.176
 4186TIP3    H246094   1.739   8.923   8.135
 4187TIP3   OH246095   1.805   8.655   6.629
 4187TIP3    H146096   1.883   8.714   6.643
 4187TIP3    H246097   1.816   8.593   6.704
 4188TIP3   OH246098   1.873   8.474   6.836
 4188TIP3    H146099   1.789   8.436   6.872
 4188TIP3    H246100   1.927   8.484   6.918
 4189TIP3   OH246101   1.800   8.725   7.311
 4189TIP3    H146102   1.878   8.666   7.297
 4189TIP3    H246103   1.838   8.812   7.289
 4190TIP3   OH246104   1.697   9.025   7.575
 4190TIP3    H146105   1.638   9.085   7.624
 4190TIP3    H246106   1.645   9.011   7.492
 4191TIP3   OH246107   1.746   8.182   6.320
 4191TIP3    H146108   1.759   8.240   6.243
 4191TIP3    H246109   1.665   8.137   6.290
 4192TIP3   OH246110   1.672   8.316   6.906
 4192TIP3    H146111   1.648   8.229   6.866
 4192TIP3    H246112   1.625   8.311   6.993
 4193TIP3   OH246113   0.166   8.548   7.296
 4193TIP3    H146114   0.157   8.515   7.206
 4193TIP3    H246115   0.258   8.520   7.322
 4194TIP3   OH246116   1.750   8.517   7.884
 4194TIP3    H146117   1.796   8.430   7.887
 4194TIP3    H246118   1.817   8.574   7.840
 4195TIP3   OH246119   1.857   8.277   7.979
 4195TIP3    H146120   1.778   8.237   7.936
 4195TIP3    H246121   1.926   8.213   7.949
 4196TIP3   OH246122   1.613   8.100   6.769
 4196TIP3    H146123   1.611   8.003   6.777
 4196TIP3    H246124   1.692   8.107   6.712
 4197TIP3   OH246125   1.681   8.138   7.287
 4197TIP3    H146126   1.779   8.150   7.291
 4197TIP3    H246127   1.661   8.155   7.381
 4198TIP3   OH246128   1.686   8.219   7.546
 4198TIP3    H146129   1.599   8.251   7.578
 4198TIP3    H246130   1.733   8.304   7.528
 4199TIP3   OH246131   0.119   8.084   7.978
 4199TIP3    H146132   0.214   8.058   7.985
 4199TIP3    H246133   0.076   7.999   7.969
 4200TIP3   OH246134   1.889   7.648   8.072
 4200TIP3    H146135   1.935   7.573   8.029
 4200TIP3    H246136   1.891   7.715   8.001
 4201TIP3   OH246137   1.687   7.841   6.766
 4201TIP3    H146138   1.711   7.791   6.847
 4201TIP3    H246139   1.616   7.790   6.727
 4202TIP3   OH246140   0.258   7.890   7.271
 4202TIP3    H146141   0.288   7.800   7.245
 4202TIP3    H246142   0.337   7.947   7.257
 4203TIP3   OH246143   0.092   8.169   7.335
 4203TIP3    H146144   0.158   8.155   7.264
 4203TIP3    H246145   0.101   8.264   7.352
 4204TIP3   OH246146   1.843   7.864   7.922
 4204TIP3    H146147   1.775   7.878   7.990
 4204TIP3    H246148   1.792   7.826   7.848
 4205TIP3   OH246149   0.106   7.836   6.712
 4205TIP3    H146150   0.009   7.833   6.706
 4205TIP3    H246151   0.125   7.885   6.630
 4206TIP3   OH246152   1.558   9.261   6.929
 4206TIP3    H146153   1.630   9.250   6.863
 4206TIP3    H246154   1.593   9.329   6.989
 4207TIP3   OH246155   0.090   7.677   7.546
 4207TIP3    H146156   0.045   7.672   7.631
 4207TIP3    H246157   0.043   7.750   7.501
 4208TIP3   OH246158   0.299   8.987   7.971
 4208TIP3    H146159   0.247   8.904   7.968
 4208TIP3    H246160   0.275   9.028   8.055
 4209TIP3   OH246161   0.600   9.100   7.588
 4209TIP3    H146162   0.585   9.194   7.571
 4209TIP3    H246163   0.697   9.094   7.587
 4210TIP3   OH246164   0.997   9.226   7.895
 4210TIP3    H146165   0.995   9.194   7.988
 4210TIP3    H246166   1.093   9.233   7.882
 4211TIP3   OH246167   1.754   7.600   7.736
 4211TIP3    H146168   1.679   7.639   7.691
 4211TIP3    H246169   1.758   7.511   7.695
 4212TIP3   OH246170   1.252   9.231   7.582
 4212TIP3    H146171   1.190   9.299   7.547
 4212TIP3    H246172   1.323   9.244   7.517
 4213TIP3   OH246173   0.295   9.291   7.271
 4213TIP3    H146174   0.263   9.265   7.360
 4213TIP3    H246175   0.353   9.215   7.247
 4214TIP3   OH246176   0.469   9.128   7.145
 4214TIP3    H146177   0.470   9.035   7.173
 4214TIP3    H246178   0.552   9.159   7.187
 4215TIP3   OH246179   0.704   9.158   7.278
 4215TIP3    H146180   0.723   9.062   7.268
 4215TIP3    H246181   0.760   9.182   7.354
 4216TIP3   OH246182   1.046   7.733   7.095
 4216TIP3    H146183   0.966   7.689   7.131
 4216TIP3    H246184   1.109   7.661   7.096
 4217TIP3   OH246185   1.627   7.574   7.151
 4217TIP3    H146186   1.695   7.629   7.106
 4217TIP3    H246187   1.542   7.610   7.114
 4218TIP3   OH246188   1.797   7.692   6.975
 4218TIP3    H146189   1.863   7.632   6.932
 4218TIP3    H246190   1.854   7.770   6.997
 4219TIP3   OH246191   0.357   7.627   6.936
 4219TIP3    H146192   0.272   7.609   6.891
 4219TIP3    H246193   0.402   7.539   6.926
 4220TIP3   OH246194   0.271   7.615   6.529
 4220TIP3    H146195   0.258   7.648   6.435
 4220TIP3    H246196   0.205   7.668   6.575
 4221TIP3   OH246197   0.783   7.624   6.907
 4221TIP3    H146198   0.870   7.648   6.871
 4221TIP3    H246199   0.803   7.615   7.001
 4222TIP3   OH246200   1.370   7.633   7.058
 4222TIP3    H146201   1.329   7.652   6.973
 4222TIP3    H246202   1.333   7.544   7.079
 4223TIP3   OH246203   1.452   7.656   6.625
 4223TIP3    H146204   1.389   7.728   6.652
 4223TIP3    H246205   1.415   7.578   6.673
 4224TIP3   OH246206   0.204   9.173   6.608
 4224TIP3    H146207   0.117   9.202   6.640
 4224TIP3    H246208   0.240   9.260   6.576
 4225TIP3   OH246209   0.886   7.822   6.588
 4225TIP3    H146210   0.917   7.769   6.663
 4225TIP3    H246211   0.921   7.909   6.615
 4226TIP3   OH246212   1.109   9.332   6.608
 4226TIP3    H146213   1.178   9.365   6.549
 4226TIP3    H246214   1.030   9.356   6.559
 4227TIP3   OH246215   1.750   9.243   6.725
 4227TIP3    H146216   1.742   9.183   6.649
 4227TIP3    H246217   1.759   9.329   6.678
 4228TIP3   OH246218   0.299   7.686   7.869
 4228TIP3    H146219   0.238   7.611   7.890
 4228TIP3    H246220   0.383   7.653   7.907
 4229TIP3   OH246221   0.515   7.639   8.052
 4229TIP3    H146222   0.586   7.585   8.014
 4229TIP3    H246223   0.476   7.576   8.114
 4230TIP3   OH246224   1.361   7.547   8.101
 4230TIP3    H146225   1.374   7.506   8.189
 4230TIP3    H246226   1.448   7.531   8.059
 4231TIP3   OH246227   1.667   9.167   7.927
 4231TIP3    H146228   1.616   9.177   7.843
 4231TIP3    H246229   1.715   9.251   7.929
 4232TIP3   OH246230   3.157   8.563   6.895
 4232TIP3    H146231   3.148   8.661   6.907
 4232TIP3    H246232   3.075   8.549   6.845
 4233TIP3   OH246233   3.011   8.436   7.249
 4233TIP3    H146234   3.027   8.392   7.334
 4233TIP3    H246235   2.950   8.372   7.206
 4234TIP3   OH246236   2.227   8.434   7.390
 4234TIP3    H146237   2.231   8.360   7.453
 4234TIP3    H246238   2.290   8.495   7.432
 4235TIP3   OH246239   3.354   8.719   7.132
 4235TIP3    H146240   3.360   8.658   7.208
 4235TIP3    H246241   3.363   8.805   7.176
 4236TIP3   OH246242   2.343   8.895   7.251
 4236TIP3    H146243   2.312   8.803   7.232
 4236TIP3    H246244   2.438   8.878   7.236
 4237TIP3   OH246245   2.009   8.221   6.794
 4237TIP3    H146246   1.976   8.310   6.814
 4237TIP3    H246247   1.926   8.172   6.798
 4238TIP3   OH246248   2.057   8.483   7.040
 4238TIP3    H146249   2.105   8.403   7.070
 4238TIP3    H246250   2.125   8.551   7.045
 4239TIP3   OH246251   3.090   9.247   7.209
 4239TIP3    H146252   3.148   9.216   7.137
 4239TIP3    H246253   3.079   9.162   7.255
 4240TIP3   OH246254   2.855   8.678   7.348
 4240TIP3    H146255   2.885   8.626   7.271
 4240TIP3    H246256   2.937   8.724   7.373
 4241TIP3   OH246257   3.704   7.876   7.323
 4241TIP3    H146258   3.713   7.923   7.409
 4241TIP3    H246259   3.795   7.884   7.290
 4242TIP3   OH246260   3.207   8.165   7.341
 4242TIP3    H146261   3.228   8.071   7.359
 4242TIP3    H246262   3.159   8.153   7.256
 4243TIP3   OH246263   2.480   7.944   7.046
 4243TIP3    H146264   2.503   8.024   6.993
 4243TIP3    H246265   2.446   7.886   6.974
 4244TIP3   OH246266   3.255   7.972   6.928
 4244TIP3    H146267   3.309   7.942   7.004
 4244TIP3    H246268   3.314   8.034   6.884
 4245TIP3   OH246269   2.146   8.239   7.136
 4245TIP3    H146270   2.198   8.193   7.204
 4245TIP3    H246271   2.171   8.189   7.056
 4246TIP3   OH246272   2.632   8.354   7.090
 4246TIP3    H146273   2.713   8.308   7.122
 4246TIP3    H246274   2.598   8.287   7.027
 4247TIP3   OH246275   3.722   8.000   7.587
 4247TIP3    H146276   3.687   8.083   7.548
 4247TIP3    H246277   3.736   8.029   7.679
 4248TIP3   OH246278   2.390   7.864   7.475
 4248TIP3    H146279   2.350   7.907   7.396
 4248TIP3    H246280   2.326   7.893   7.544
 4249TIP3   OH246281   3.097   8.813   6.842
 4249TIP3    H146282   3.086   8.798   6.745
 4249TIP3    H246283   3.058   8.901   6.850
 4250TIP3   OH246284   2.597   8.631   7.424
 4250TIP3    H146285   2.547   8.710   7.454
 4250TIP3    H246286   2.683   8.671   7.398
 4251TIP3   OH246287   3.444   7.968   7.147
 4251TIP3    H146288   3.511   7.899   7.140
 4251TIP3    H246289   3.485   8.028   7.214
 4252TIP3   OH246290   2.336   8.045   7.265
 4252TIP3    H146291   2.395   8.112   7.306
 4252TIP3    H246292   2.388   8.019   7.187
 4253TIP3   OH246293   2.480   8.834   7.544
 4253TIP3    H146294   2.475   8.931   7.530
 4253TIP3    H246295   2.388   8.816   7.572
 4254TIP3   OH246296   2.042   8.774   6.638
 4254TIP3    H146297   2.030   8.806   6.545
 4254TIP3    H246298   2.071   8.856   6.682
 4255TIP3   OH246299   3.423   8.968   7.339
 4255TIP3    H146300   3.329   8.989   7.359
 4255TIP3    H246301   3.449   9.052   7.295
 4256TIP3   OH246302   3.433   7.777   7.443
 4256TIP3    H146303   3.351   7.804   7.397
 4256TIP3    H246304   3.502   7.816   7.388
 4257TIP3   OH246305   2.736   7.603   7.205
 4257TIP3    H146306   2.712   7.509   7.213
 4257TIP3    H246307   2.652   7.645   7.240
 4258TIP3   OH246308   3.246   9.145   7.018
 4258TIP3    H146309   3.259   9.065   6.964
 4258TIP3    H246310   3.321   9.200   6.983
 4259TIP3   OH246311   3.365   8.930   6.824
 4259TIP3    H146312   3.356   8.858   6.758
 4259TIP3    H246313   3.354   8.880   6.905
 4260TIP3   OH246314   3.538   8.800   7.697
 4260TIP3    H146315   3.530   8.734   7.625
 4260TIP3    H246316   3.556   8.881   7.645
 4261TIP3   OH246317   2.978   8.440   6.662
 4261TIP3    H146318   2.907   8.506   6.660
 4261TIP3    H246319   3.046   8.479   6.605
 4262TIP3   OH246320   3.733   8.443   7.506
 4262TIP3    H146321   3.665   8.515   7.506
 4262TIP3    H246322   3.792   8.477   7.434
 4263TIP3   OH246323   3.374   8.462   6.773
 4263TIP3    H146324   3.300   8.499   6.827
 4263TIP3    H246325   3.432   8.429   6.844
 4264TIP3   OH246326   3.347   8.332   7.680
 4264TIP3    H146327   3.351   8.422   7.715
 4264TIP3    H246328   3.269   8.341   7.623
 4265TIP3   OH246329   2.460   8.535   6.952
 4265TIP3    H146330   2.477   8.513   6.860
 4265TIP3    H246331   2.529   8.483   6.997
 4266TIP3   OH246332   2.616   8.885   7.190
 4266TIP3    H146333   2.629   8.903   7.095
 4266TIP3    H246334   2.694   8.831   7.214
 4267TIP3   OH246335   2.511   8.407   7.324
 4267TIP3    H146336   2.551   8.413   7.234
 4267TIP3    H246337   2.547   8.489   7.365
 4268TIP3   OH246338   3.162   9.001   7.410
 4268TIP3    H146339   3.104   9.048   7.473
 4268TIP3    H246340   3.155   8.908   7.442
 4269TIP3   OH246341   2.627   8.857   7.778
 4269TIP3    H146342   2.563   8.916   7.823
 4269TIP3    H246343   2.584   8.845   7.691
 4270TIP3   OH246344   3.239   8.444   6.552
 4270TIP3    H146345   3.270   8.447   6.645
 4270TIP3    H246346   3.304   8.500   6.509
 4271TIP3   OH246347   2.317   8.500   7.658
 4271TIP3    H146348   2.341   8.584   7.701
 4271TIP3    H246349   2.257   8.464   7.724
 4272TIP3   OH246350   3.014   9.108   6.844
 4272TIP3    H146351   3.062   9.152   6.917
 4272TIP3    H246352   2.952   9.174   6.812
 4273TIP3   OH246353   2.442   9.049   7.866
 4273TIP3    H146354   2.424   9.064   7.771
 4273TIP3    H246355   2.359   9.005   7.896
 4274TIP3   OH246356   2.370   8.453   6.687
 4274TIP3    H146357   2.314   8.521   6.729
 4274TIP3    H246358   2.364   8.374   6.742
 4275TIP3   OH246359   3.707   9.057   6.348
 4275TIP3    H146360   3.763   9.138   6.353
 4275TIP3    H246361   3.775   8.987   6.348
 4276TIP3   OH246362   2.025   8.709   7.620
 4276TIP3    H146363   1.989   8.704   7.530
 4276TIP3    H246364   2.053   8.615   7.634
 4277TIP3   OH246365   1.977   8.983   7.308
 4277TIP3    H146366   2.072   8.985   7.289
 4277TIP3    H246367   1.969   9.059   7.367
 4278TIP3   OH246368   3.789   9.049   7.885
 4278TIP3    H146369   3.775   8.956   7.911
 4278TIP3    H246370   3.699   9.085   7.905
 4279TIP3   OH246371   2.870   9.011   7.721
 4279TIP3    H146372   2.880   9.076   7.793
 4279TIP3    H246373   2.797   8.955   7.751
 4280TIP3   OH246374   2.325   9.224   6.912
 4280TIP3    H146375   2.343   9.211   7.008
 4280TIP3    H246376   2.254   9.159   6.895
 4281TIP3   OH246377   3.375   9.243   6.491
 4281TIP3    H146378   3.314   9.270   6.418
 4281TIP3    H246379   3.313   9.248   6.565
 4282TIP3   OH246380   3.194   9.299   6.726
 4282TIP3    H146381   3.118   9.285   6.667
 4282TIP3    H246382   3.217   9.209   6.752
 4283TIP3   OH246383   3.500   8.169   7.898
 4283TIP3    H146384   3.449   8.206   7.825
 4283TIP3    H246385   3.505   8.074   7.873
 4284TIP3   OH246386   2.251   8.834   7.690
 4284TIP3    H146387   2.253   8.808   7.785
 4284TIP3    H246388   2.162   8.799   7.666
 4285TIP3   OH246389   2.518   7.709   7.306
 4285TIP3    H146390   2.434   7.712   7.257
 4285TIP3    H246391   2.490   7.754   7.388
 4286TIP3   OH246392   3.008   7.661   7.597
 4286TIP3    H146393   3.046   7.620   7.679
 4286TIP3    H246394   2.913   7.664   7.619
 4287TIP3   OH246395   3.276   8.061   7.706
 4287TIP3    H146396   3.214   8.031   7.778
 4287TIP3    H246397   3.294   8.152   7.735
 4288TIP3   OH246398   2.510   8.169   7.425
 4288TIP3    H146399   2.434   8.181   7.486
 4288TIP3    H246400   2.518   8.261   7.390
 4289TIP3   OH246401   2.501   8.171   6.907
 4289TIP3    H146402   2.404   8.163   6.894
 4289TIP3    H246403   2.533   8.151   6.816
 4290TIP3   OH246404   3.084   8.216   6.772
 4290TIP3    H146405   3.048   8.301   6.735
 4290TIP3    H246406   3.120   8.169   6.695
 4291TIP3   OH246407   2.971   8.263   7.940
 4291TIP3    H146408   2.926   8.186   7.982
 4291TIP3    H246409   3.053   8.266   7.993
 4292TIP3   OH246410   3.123   8.192   7.078
 4292TIP3    H146411   3.142   8.281   7.042
 4292TIP3    H246412   3.153   8.138   7.003
 4293TIP3   OH246413   2.260   8.196   7.544
 4293TIP3    H146414   2.297   8.223   7.630
 4293TIP3    H246415   2.230   8.104   7.565
 4294TIP3   OH246416   1.956   7.902   6.997
 4294TIP3    H146417   2.030   7.909   7.059
 4294TIP3    H246418   1.999   7.895   6.910
 4295TIP3   OH246419   2.023   7.985   6.526
 4295TIP3    H146420   2.102   8.027   6.491
 4295TIP3    H246421   1.970   8.060   6.560
 4296TIP3   OH246422   3.076   8.347   7.511
 4296TIP3    H146423   3.134   8.281   7.467
 4296TIP3    H246424   3.019   8.291   7.568
 4297TIP3   OH246425   2.802   7.913   7.002
 4297TIP3    H146426   2.716   7.918   7.046
 4297TIP3    H246427   2.864   7.889   7.074
 4298TIP3   OH246428   2.242   8.103   6.889
 4298TIP3    H146429   2.164   8.120   6.831
 4298TIP3    H246430   2.268   8.012   6.869
 4299TIP3   OH246431   2.593   8.141   6.655
 4299TIP3    H146432   2.656   8.084   6.703
 4299TIP3    H246433   2.658   8.203   6.619
 4300TIP3   OH246434   3.196   7.870   7.326
 4300TIP3    H146435   3.107   7.865   7.365
 4300TIP3    H246436   3.185   7.818   7.244
 4301TIP3   OH246437   2.477   8.291   6.370
 4301TIP3    H146438   2.415   8.237   6.320
 4301TIP3    H246439   2.526   8.225   6.424
 4302TIP3   OH246440   2.281   8.677   7.923
 4302TIP3    H146441   2.345   8.707   7.990
 4302TIP3    H246442   2.203   8.658   7.979
 4303TIP3   OH246443   2.872   8.207   7.179
 4303TIP3    H146444   2.955   8.184   7.131
 4303TIP3    H246445   2.861   8.132   7.240
 4304TIP3   OH246446   2.357   7.814   6.839
 4304TIP3    H146447   2.293   7.756   6.886
 4304TIP3    H246448   2.416   7.747   6.800
 4305TIP3   OH246449   2.753   8.031   7.429
 4305TIP3    H146450   2.674   8.085   7.412
 4305TIP3    H246451   2.807   8.088   7.485
 4306TIP3   OH246452   2.815   8.665   6.630
 4306TIP3    H146453   2.736   8.614   6.600
 4306TIP3    H246454   2.775   8.707   6.710
 4307TIP3   OH246455   3.541   8.627   7.495
 4307TIP3    H146456   3.584   8.672   7.418
 4307TIP3    H246457   3.454   8.608   7.454
 4308TIP3   OH246458   3.213   7.921   6.489
 4308TIP3    H146459   3.180   7.863   6.419
 4308TIP3    H246460   3.215   8.007   6.447
 4309TIP3   OH246461   2.963   8.700   7.765
 4309TIP3    H146462   2.921   8.661   7.843
 4309TIP3    H246463   2.917   8.784   7.756
 4310TIP3   OH246464   3.314   8.180   6.596
 4310TIP3    H146465   3.377   8.151   6.665
 4310TIP3    H246466   3.306   8.274   6.616
 4311TIP3   OH246467   2.331   8.635   7.186
 4311TIP3    H146468   2.377   8.614   7.102
 4311TIP3    H246469   2.337   8.548   7.231
 4312TIP3   OH246470   3.048   8.782   6.580
 4312TIP3    H146471   3.011   8.872   6.565
 4312TIP3    H246472   2.962   8.735   6.587
 4313TIP3   OH246473   2.005   8.457   7.733
 4313TIP3    H146474   2.022   8.387   7.799
 4313TIP3    H246475   1.960   8.409   7.661
 4314TIP3   OH246476   2.735   8.405   7.881
 4314TIP3    H146477   2.694   8.337   7.826
 4314TIP3    H246478   2.827   8.371   7.884
 4315TIP3   OH246479   3.215   8.963   7.734
 4315TIP3    H146480   3.139   8.975   7.677
 4315TIP3    H246481   3.177   8.992   7.819
 4316TIP3   OH246482   3.729   8.192   6.611
 4316TIP3    H146483   3.752   8.159   6.524
 4316TIP3    H246484   3.763   8.283   6.606
 4317TIP3   OH246485   3.774   8.771   7.836
 4317TIP3    H146486   3.687   8.790   7.793
 4317TIP3    H246487   3.833   8.764   7.758
 4318TIP3   OH246488   3.645   9.020   6.605
 4318TIP3    H146489   3.576   8.962   6.637
 4318TIP3    H246490   3.633   9.023   6.508
 4319TIP3   OH246491   3.317   8.528   7.331
 4319TIP3    H146492   3.226   8.518   7.299
 4319TIP3    H246493   3.360   8.454   7.286
 4320TIP3   OH246494   2.564   8.969   6.930
 4320TIP3    H146495   2.601   9.054   6.894
 4320TIP3    H246496   2.480   8.968   6.883
 4321TIP3   OH246497   2.677   8.741   6.852
 4321TIP3    H146498   2.642   8.832   6.862
 4321TIP3    H246499   2.663   8.705   6.941
 4322TIP3   OH246500   2.753   9.185   7.537
 4322TIP3    H146501   2.759   9.279   7.566
 4322TIP3    H246502   2.813   9.139   7.599
 4323TIP3   OH246503   2.609   9.210   6.833
 4323TIP3    H146504   2.513   9.222   6.832
 4323TIP3    H246505   2.634   9.297   6.870
 4324TIP3   OH246506   3.089   8.732   7.497
 4324TIP3    H146507   3.053   8.706   7.585
 4324TIP3    H246508   3.134   8.651   7.469
 4325TIP3   OH246509   3.384   9.214   7.724
 4325TIP3    H146510   3.307   9.154   7.711
 4325TIP3    H246511   3.358   9.293   7.675
 4326TIP3   OH246512   3.787   9.316   6.423
 4326TIP3    H146513   3.846   9.391   6.438
 4326TIP3    H246514   3.703   9.346   6.463
 4327TIP3   OH246515   2.214   7.952   7.677
 4327TIP3    H146516   2.147   7.993   7.736
 4327TIP3    H246517   2.201   7.859   7.703
 4328TIP3   OH246518   3.416   8.701   6.650
 4328TIP3    H146519   3.405   8.616   6.698
 4328TIP3    H246520   3.513   8.699   6.637
 4329TIP3   OH246521   2.178   9.115   7.517
 4329TIP3    H146522   2.223   9.028   7.517
 4329TIP3    H246523   2.213   9.158   7.597
 4330TIP3   OH246524   3.042   7.948   7.588
 4330TIP3    H146525   3.137   7.962   7.608
 4330TIP3    H246526   3.030   7.852   7.602
 4331TIP3   OH246527   3.118   7.860   6.731
 4331TIP3    H146528   3.162   7.891   6.649
 4331TIP3    H246529   3.173   7.903   6.800
 4332TIP3   OH246530   2.902   9.013   6.566
 4332TIP3    H146531   2.812   9.023   6.530
 4332TIP3    H246532   2.927   9.104   6.590
 4333TIP3   OH246533   2.836   8.094   6.798
 4333TIP3    H146534   2.927   8.132   6.798
 4333TIP3    H246535   2.841   8.023   6.865
 4334TIP3   OH246536   2.941   8.180   7.679
 4334TIP3    H146537   2.955   8.193   7.776
 4334TIP3    H246538   2.974   8.089   7.660
 4335TIP3   OH246539   2.941   7.706   6.863
 4335TIP3    H146540   2.878   7.778   6.883
 4335TIP3    H246541   3.015   7.761   6.827
 4336TIP3   OH246542   3.514   7.941   7.750
 4336TIP3    H146543   3.419   7.957   7.731
 4336TIP3    H246544   3.553   7.947   7.661
 4337TIP3   OH246545   3.388   8.289   7.164
 4337TIP3    H146546   3.319   8.237   7.210
 4337TIP3    H246547   3.468   8.255   7.210
 4338TIP3   OH246548   2.334   8.931   6.389
 4338TIP3    H146549   2.385   8.982   6.455
 4338TIP3    H246550   2.392   8.947   6.313
 4339TIP3   OH246551   3.471   9.236   7.318
 4339TIP3    H146552   3.467   9.311   7.254
 4339TIP3    H246553   3.562   9.252   7.353
 4340TIP3   OH246554   2.256   7.659   7.234
 4340TIP3    H146555   2.251   7.633   7.139
 4340TIP3    H246556   2.234   7.574   7.278
 4341TIP3   OH246557   2.136   9.045   6.788
 4341TIP3    H146558   2.052   9.073   6.826
 4341TIP3    H246559   2.131   9.101   6.706
 4342TIP3   OH246560   2.043   9.289   7.947
 4342TIP3    H146561   2.121   9.265   8.002
 4342TIP3    H246562   1.999   9.202   7.936
 4343TIP3   OH246563   2.569   9.155   8.143
 4343TIP3    H146564   2.654   9.110   8.156
 4343TIP3    H246565   2.550   9.133   8.050
 4344TIP3   OH246566   3.150   9.053   7.998
 4344TIP3    H146567   3.143   8.962   8.036
 4344TIP3    H246568   3.240   9.075   8.029
 4345TIP3   OH246569   3.394   9.036   6.225
 4345TIP3    H146570   3.367   9.088   6.302
 4345TIP3    H246571   3.480   9.073   6.203
 4346TIP3   OH246572   2.031   8.651   8.037
 4346TIP3    H146573   1.989   8.565   8.020
 4346TIP3    H246574   1.989   8.707   7.967
 4347TIP3   OH246575   2.714   8.662   7.943
 4347TIP3    H146576   2.676   8.722   7.875
 4347TIP3    H246577   2.712   8.573   7.898
 4348TIP3   OH246578   3.287   8.666   7.748
 4348TIP3    H146579   3.369   8.719   7.755
 4348TIP3    H246580   3.223   8.739   7.754
 4349TIP3   OH246581   2.178   8.360   7.987
 4349TIP3    H146582   2.224   8.290   8.035
 4349TIP3    H246583   2.187   8.434   8.050
 4350TIP3   OH246584   2.600   8.520   6.533
 4350TIP3    H146585   2.530   8.502   6.599
 4350TIP3    H246586   2.569   8.466   6.459
 4351TIP3   OH246587   2.512   8.308   7.676
 4351TIP3    H146588   2.446   8.380   7.676
 4351TIP3    H246589   2.584   8.349   7.623
 4352TIP3   OH246590   3.062   8.562   8.071
 4352TIP3    H146591   3.123   8.518   8.010
 4352TIP3    H246592   3.037   8.492   8.133
 4353TIP3   OH246593   2.633   8.086   7.789
 4353TIP3    H146594   2.642   8.016   7.722
 4353TIP3    H246595   2.610   8.164   7.735
 4354TIP3   OH246596   2.632   7.870   7.600
 4354TIP3    H146597   2.679   7.912   7.524
 4354TIP3    H246598   2.540   7.873   7.567
 4355TIP3   OH246599   2.744   8.460   7.585
 4355TIP3    H146600   2.834   8.481   7.555
 4355TIP3    H246601   2.691   8.526   7.537
 4356TIP3   OH246602   3.168   8.228   8.125
 4356TIP3    H146603   3.176   8.141   8.170
 4356TIP3    H246604   3.259   8.245   8.099
 4357TIP3   OH246605   3.352   8.512   7.962
 4357TIP3    H146606   3.314   8.560   7.886
 4357TIP3    H246607   3.445   8.502   7.931
 4358TIP3   OH246608   2.439   8.133   8.012
 4358TIP3    H146609   2.358   8.090   7.976
 4358TIP3    H246610   2.496   8.135   7.933
 4359TIP3   OH246611   2.725   7.625   7.606
 4359TIP3    H146612   2.689   7.716   7.614
 4359TIP3    H246613   2.648   7.577   7.573
 4360TIP3   OH246614   2.825   8.046   8.018
 4360TIP3    H146615   2.760   8.039   8.090
 4360TIP3    H246616   2.765   8.036   7.942
 4361TIP3   OH246617   3.116   7.987   7.904
 4361TIP3    H146618   3.022   7.975   7.921
 4361TIP3    H246619   3.152   7.924   7.971
 4362TIP3   OH246620   3.198   7.805   8.075
 4362TIP3    H146621   3.243   7.721   8.097
 4362TIP3    H246622   3.217   7.862   8.152
 4363TIP3   OH246623   2.224   7.966   7.997
 4363TIP3    H146624   2.207   7.881   7.952
 4363TIP3    H246625   2.219   7.938   8.092
 4364TIP3   OH246626   2.692   7.559   7.881
 4364TIP3    H146627   2.759   7.486   7.886
 4364TIP3    H246628   2.701   7.582   7.787
 4365TIP3   OH246629   2.700   7.686   8.154
 4365TIP3    H146630   2.694   7.643   8.066
 4365TIP3    H246631   2.683   7.779   8.129
 4366TIP3   OH246632   2.057   8.853   6.382
 4366TIP3    H146633   2.153   8.874   6.396
 4366TIP3    H246634   2.046   8.870   6.288
 4367TIP3   OH246635   2.033   9.212   7.057
 4367TIP3    H146636   1.968   9.168   7.114
 4367TIP3    H246637   2.085   9.260   7.124
 4368TIP3   OH246638   3.720   9.314   7.385
 4368TIP3    H146639   3.791   9.325   7.452
 4368TIP3    H246640   3.725   9.397   7.336
 4369TIP3   OH246641   3.754   9.213   7.651
 4369TIP3    H146642   3.707   9.153   7.589
 4369TIP3    H246643   3.787   9.149   7.718
 4370TIP3   OH246644   3.581   8.838   8.112
 4370TIP3    H146645   3.500   8.843   8.167
 4370TIP3    H246646   3.628   8.922   8.135
 4371TIP3   OH246647   3.698   8.651   6.650
 4371TIP3    H146648   3.779   8.706   6.642
 4371TIP3    H246649   3.716   8.605   6.736
 4372TIP3   OH246650   3.751   8.489   6.862
 4372TIP3    H146651   3.674   8.433   6.884
 4372TIP3    H246652   3.803   8.478   6.944
 4373TIP3   OH246653   3.687   8.732   7.305
 4373TIP3    H146654   3.758   8.665   7.292
 4373TIP3    H246655   3.737   8.815   7.291
 4374TIP3   OH246656   3.579   9.030   7.565
 4374TIP3    H146657   3.517   9.086   7.615
 4374TIP3    H246658   3.528   9.013   7.483
 4375TIP3   OH246659   3.796   8.458   6.495
 4375TIP3    H146660   3.754   8.494   6.416
 4375TIP3    H246661   3.759   8.520   6.563
 4376TIP3   OH246662   3.540   8.344   6.949
 4376TIP3    H146663   3.514   8.255   6.919
 4376TIP3    H246664   3.498   8.344   7.038
 4377TIP3   OH246665   2.009   8.546   7.312
 4377TIP3    H146666   1.998   8.515   7.220
 4377TIP3    H246667   2.102   8.516   7.328
 4378TIP3   OH246668   3.626   8.520   7.871
 4378TIP3    H146669   3.681   8.438   7.873
 4378TIP3    H246670   3.691   8.588   7.844
 4379TIP3   OH246671   3.742   8.285   7.945
 4379TIP3    H146672   3.662   8.232   7.922
 4379TIP3    H246673   3.815   8.219   7.934
 4380TIP3   OH246674   3.507   8.095   6.770
 4380TIP3    H146675   3.513   7.998   6.774
 4380TIP3    H246676   3.584   8.112   6.711
 4381TIP3   OH246677   3.577   8.150   7.308
 4381TIP3    H146678   3.676   8.152   7.298
 4381TIP3    H246679   3.571   8.171   7.404
 4382TIP3   OH246680   3.580   8.223   7.564
 4382TIP3    H146681   3.492   8.252   7.595
 4382TIP3    H246682   3.622   8.309   7.538
 4383TIP3   OH246683   2.005   8.070   7.885
 4383TIP3    H146684   2.085   8.041   7.934
 4383TIP3    H246685   1.945   7.992   7.902
 4384TIP3   OH246686   3.777   7.648   8.069
 4384TIP3    H146687   3.827   7.576   8.026
 4384TIP3    H246688   3.779   7.718   7.999
 4385TIP3   OH246689   3.567   7.828   6.732
 4385TIP3    H146690   3.598   7.791   6.817
 4385TIP3    H246691   3.501   7.759   6.711
 4386TIP3   OH246692   2.105   7.886   7.265
 4386TIP3    H146693   2.152   7.799   7.259
 4386TIP3    H246694   2.179   7.949   7.259
 4387TIP3   OH246695   1.941   8.200   7.312
 4387TIP3    H146696   1.998   8.179   7.236
 4387TIP3    H246697   1.992   8.271   7.352
 4388TIP3   OH246698   3.718   7.863   7.918
 4388TIP3    H146699   3.650   7.880   7.987
 4388TIP3    H246700   3.662   7.829   7.845
 4389TIP3   OH246701   1.982   7.824   6.735
 4389TIP3    H146702   1.885   7.836   6.741
 4389TIP3    H246703   1.998   7.869   6.649
 4390TIP3   OH246704   3.452   9.281   6.922
 4390TIP3    H146705   3.529   9.258   6.866
 4390TIP3    H246706   3.495   9.321   7.000
 4391TIP3   OH246707   1.968   7.671   7.545
 4391TIP3    H146708   1.903   7.648   7.614
 4391TIP3    H246709   1.921   7.731   7.485
 4392TIP3   OH246710   2.188   8.972   7.964
 4392TIP3    H146711   2.101   8.992   7.926
 4392TIP3    H246712   2.179   9.011   8.052
 4393TIP3   OH246713   2.490   9.098   7.596
 4393TIP3    H146714   2.474   9.189   7.570
 4393TIP3    H246715   2.588   9.093   7.590
 4394TIP3   OH246716   2.880   9.229   7.893
 4394TIP3    H146717   2.875   9.204   7.987
 4394TIP3    H246718   2.973   9.257   7.888
 4395TIP3   OH246719   3.638   7.600   7.729
 4395TIP3    H146720   3.557   7.628   7.685
 4395TIP3    H246721   3.650   7.509   7.692
 4396TIP3   OH246722   3.137   9.233   7.589
 4396TIP3    H146723   3.074   9.294   7.547
 4396TIP3    H246724   3.209   9.238   7.525
 4397TIP3   OH246725   2.171   9.268   7.290
 4397TIP3    H146726   2.162   9.244   7.385
 4397TIP3    H246727   2.246   9.209   7.261
 4398TIP3   OH246728   2.377   9.155   7.164
 4398TIP3    H146729   2.372   9.058   7.174
 4398TIP3    H246730   2.468   9.171   7.200
 4399TIP3   OH246731   2.614   9.154   7.288
 4399TIP3    H146732   2.631   9.060   7.270
 4399TIP3    H246733   2.663   9.172   7.370
 4400TIP3   OH246734   2.959   7.770   7.167
 4400TIP3    H146735   2.871   7.733   7.187
 4400TIP3    H246736   2.990   7.709   7.099
 4401TIP3   OH246737   3.507   7.579   7.144
 4401TIP3    H146738   3.577   7.639   7.111
 4401TIP3    H246739   3.429   7.616   7.099
 4402TIP3   OH246740   3.666   7.723   6.981
 4402TIP3    H146741   3.727   7.658   6.941
 4402TIP3    H246742   3.728   7.796   7.003
 4403TIP3   OH246743   2.220   7.610   6.959
 4403TIP3    H146744   2.129   7.602   6.924
 4403TIP3    H246745   2.256   7.520   6.938
 4404TIP3   OH246746   2.060   7.618   6.546
 4404TIP3    H146747   2.086   7.700   6.591
 4404TIP3    H246748   1.986   7.590   6.603
 4405TIP3   OH246749   2.641   7.588   6.925
 4405TIP3    H146750   2.704   7.632   6.867
 4405TIP3    H246751   2.681   7.601   7.013
 4406TIP3   OH246752   3.231   7.635   7.040
 4406TIP3    H146753   3.217   7.626   6.945
 4406TIP3    H246754   3.187   7.555   7.076
 4407TIP3   OH246755   3.419   7.605   6.671
 4407TIP3    H146756   3.388   7.638   6.585
 4407TIP3    H246757   3.359   7.527   6.673
 4408TIP3   OH246758   2.055   9.223   6.601
 4408TIP3    H146759   1.980   9.181   6.555
 4408TIP3    H246760   2.105   9.260   6.526
 4409TIP3   OH246761   2.742   7.841   6.651
 4409TIP3    H146762   2.810   7.779   6.676
 4409TIP3    H246763   2.795   7.908   6.604
 4410TIP3   OH246764   2.969   9.294   6.561
 4410TIP3    H146765   3.001   9.385   6.562
 4410TIP3    H246766   2.978   9.271   6.467
 4411TIP3   OH246767   3.648   9.248   6.737
 4411TIP3    H146768   3.637   9.164   6.687
 4411TIP3    H246769   3.620   9.317   6.675
 4412TIP3   OH246770   2.185   7.694   7.862
 4412TIP3    H146771   2.134   7.613   7.879
 4412TIP3    H246772   2.262   7.682   7.922
 4413TIP3   OH246773   2.384   7.635   8.051
 4413TIP3    H146774   2.461   7.582   8.024
 4413TIP3    H246775   2.335   7.572   8.107
 4414TIP3   OH246776   2.225   9.265   6.363
 4414TIP3    H146777   2.227   9.358   6.338
 4414TIP3    H246778   2.318   9.241   6.351
 4415TIP3   OH246779   3.248   7.544   8.110
 4415TIP3    H146780   3.261   7.500   8.196
 4415TIP3    H246781   3.334   7.528   8.066
 4416TIP3   OH246782   3.555   9.167   7.927
 4416TIP3    H146783   3.497   9.179   7.848
 4416TIP3    H246784   3.603   9.251   7.925
 4417TIP3   OH246785   5.025   8.555   6.926
 4417TIP3    H146786   5.020   8.644   6.966
 4417TIP3    H246787   4.953   8.561   6.862
 4418TIP3   OH246788   4.912   8.442   7.259
 4418TIP3    H146789   4.916   8.399   7.347
 4418TIP3    H246790   4.843   8.388   7.214
 4419TIP3   OH246791   4.111   8.437   7.382
 4419TIP3    H146792   4.111   8.365   7.446
 4419TIP3    H246793   4.167   8.501   7.430
 4420TIP3   OH246794   5.260   8.751   7.104
 4420TIP3    H146795   5.255   8.691   7.181
 4420TIP3    H246796   5.277   8.834   7.148
 4421TIP3   OH246797   4.209   8.906   7.223
 4421TIP3    H146798   4.181   8.812   7.216
 4421TIP3    H246799   4.305   8.888   7.227
 4422TIP3   OH246800   3.896   8.181   6.817
 4422TIP3    H146801   3.885   8.274   6.840
 4422TIP3    H246802   3.829   8.169   6.747
 4423TIP3   OH246803   3.933   8.450   7.078
 4423TIP3    H146804   3.986   8.367   7.089
 4423TIP3    H246805   3.995   8.507   7.030
 4424TIP3   OH246806   4.987   9.255   7.198
 4424TIP3    H146807   5.051   9.220   7.132
 4424TIP3    H246808   4.962   9.172   7.241
 4425TIP3   OH246809   4.741   8.685   7.343
 4425TIP3    H146810   4.771   8.636   7.265
 4425TIP3    H246811   4.824   8.729   7.370
 4426TIP3   OH246812   5.590   7.857   7.348
 4426TIP3    H146813   5.600   7.912   7.429
 4426TIP3    H246814   5.673   7.880   7.302
 4427TIP3   OH246815   5.089   8.157   7.372
 4427TIP3    H146816   5.105   8.061   7.371
 4427TIP3    H246817   5.060   8.168   7.279
 4428TIP3   OH246818   4.381   7.931   7.044
 4428TIP3    H146819   4.389   8.018   6.998
 4428TIP3    H246820   4.333   7.882   6.975
 4429TIP3   OH246821   5.148   7.961   6.917
 4429TIP3    H146822   5.189   7.938   7.002
 4429TIP3    H246823   5.203   8.035   6.888
 4430TIP3   OH246824   4.039   8.204   7.125
 4430TIP3    H146825   4.101   8.168   7.191
 4430TIP3    H246826   4.072   8.162   7.043
 4431TIP3   OH246827   4.521   8.356   7.084
 4431TIP3    H146828   4.602   8.306   7.107
 4431TIP3    H246829   4.479   8.290   7.024
 4432TIP3   OH246830   5.611   8.000   7.587
 4432TIP3    H146831   5.580   8.086   7.550
 4432TIP3    H246832   5.622   8.026   7.680
 4433TIP3   OH246833   4.292   7.869   7.471
 4433TIP3    H146834   4.243   7.913   7.399
 4433TIP3    H246835   4.230   7.881   7.546
 4434TIP3   OH246836   4.949   8.829   6.825
 4434TIP3    H146837   4.909   8.821   6.737
 4434TIP3    H246838   4.926   8.920   6.850
 4435TIP3   OH246839   4.496   8.620   7.448
 4435TIP3    H146840   4.437   8.697   7.463
 4435TIP3    H246841   4.574   8.664   7.407
 4436TIP3   OH246842   5.318   7.965   7.155
 4436TIP3    H146843   5.358   7.881   7.182
 4436TIP3    H246844   5.370   8.028   7.212
 4437TIP3   OH246845   4.225   8.053   7.264
 4437TIP3    H146846   4.287   8.116   7.309
 4437TIP3    H246847   4.281   8.022   7.189
 4438TIP3   OH246848   4.363   8.830   7.551
 4438TIP3    H146849   4.360   8.924   7.524
 4438TIP3    H246850   4.271   8.818   7.586
 4439TIP3   OH246851   3.941   8.779   6.642
 4439TIP3    H146852   3.947   8.843   6.568
 4439TIP3    H246853   3.963   8.836   6.719
 4440TIP3   OH246854   5.315   8.968   7.361
 4440TIP3    H146855   5.218   8.967   7.372
 4440TIP3    H246856   5.328   9.059   7.327
 4441TIP3   OH246857   5.307   7.796   7.454
 4441TIP3    H146858   5.233   7.845   7.411
 4441TIP3    H246859   5.385   7.819   7.402
 4442TIP3   OH246860   4.621   7.604   7.211
 4442TIP3    H146861   4.596   7.511   7.203
 4442TIP3    H246862   4.536   7.644   7.244
 4443TIP3   OH246863   5.151   9.146   6.999
 4443TIP3    H146864   5.177   9.064   6.952
 4443TIP3    H246865   5.221   9.208   6.968
 4444TIP3   OH246866   5.258   8.911   6.842
 4444TIP3    H146867   5.273   8.845   6.771
 4444TIP3    H246868   5.242   8.852   6.918
 4445TIP3   OH246869   5.419   8.800   7.703
 4445TIP3    H146870   5.418   8.733   7.630
 4445TIP3    H246871   5.438   8.880   7.650
 4446TIP3   OH246872   4.885   8.476   6.656
 4446TIP3    H146873   4.813   8.541   6.636
 4446TIP3    H246874   4.897   8.438   6.568
 4447TIP3   OH246875   4.949   8.327   6.378
 4447TIP3    H146876   5.001   8.267   6.433
 4447TIP3    H246877   4.889   8.262   6.335
 4448TIP3   OH246878   5.622   8.436   7.494
 4448TIP3    H146879   5.563   8.514   7.504
 4448TIP3    H246880   5.681   8.470   7.423
 4449TIP3   OH246881   5.272   8.528   6.796
 4449TIP3    H146882   5.186   8.528   6.845
 4449TIP3    H246883   5.325   8.473   6.859
 4450TIP3   OH246884   5.229   8.341   7.681
 4450TIP3    H146885   5.232   8.430   7.720
 4450TIP3    H246886   5.155   8.352   7.619
 4451TIP3   OH246887   4.368   8.550   6.958
 4451TIP3    H146888   4.328   8.527   6.871
 4451TIP3    H246889   4.434   8.479   6.970
 4452TIP3   OH246890   4.508   8.892   7.224
 4452TIP3    H146891   4.501   8.899   7.127
 4452TIP3    H246892   4.586   8.837   7.240
 4453TIP3   OH246893   4.403   8.410   7.324
 4453TIP3    H146894   4.445   8.414   7.235
 4453TIP3    H246895   4.446   8.486   7.369
 4454TIP3   OH246896   5.043   8.991   7.399
 4454TIP3    H146897   5.000   9.056   7.457
 4454TIP3    H246898   5.022   8.907   7.444
 4455TIP3   OH246899   4.514   8.860   7.777
 4455TIP3    H146900   4.447   8.918   7.821
 4455TIP3    H246901   4.470   8.843   7.690
 4456TIP3   OH246902   5.164   8.421   6.565
 4456TIP3    H146903   5.190   8.468   6.647
 4456TIP3    H246904   5.140   8.493   6.506
 4457TIP3   OH246905   4.206   8.518   7.644
 4457TIP3    H146906   4.220   8.603   7.688
 4457TIP3    H246907   4.153   8.472   7.711
 4458TIP3   OH246908   4.875   9.131   6.851
 4458TIP3    H146909   4.925   9.157   6.930
 4458TIP3    H246910   4.800   9.192   6.852
 4459TIP3   OH246911   4.327   9.044   7.866
 4459TIP3    H146912   4.302   9.060   7.773
 4459TIP3    H246913   4.245   9.001   7.900
 4460TIP3   OH246914   5.478   7.594   6.573
 4460TIP3    H146915   5.395   7.645   6.569
 4460TIP3    H246916   5.535   7.642   6.511
 4461TIP3   OH246917   4.251   8.435   6.743
 4461TIP3    H146918   4.207   8.508   6.696
 4461TIP3    H246919   4.282   8.381   6.670
 4462TIP3   OH246920   5.604   8.989   6.395
 4462TIP3    H146921   5.614   9.082   6.369
 4462TIP3    H246922   5.660   8.947   6.327
 4463TIP3   OH246923   3.922   8.700   7.623
 4463TIP3    H146924   3.874   8.690   7.539
 4463TIP3    H246925   3.932   8.605   7.648
 4464TIP3   OH246926   3.872   8.983   7.283
 4464TIP3    H146927   3.965   8.973   7.262
 4464TIP3    H246928   3.876   9.052   7.350
 4465TIP3   OH246929   5.674   9.056   7.876
 4465TIP3    H146930   5.665   8.960   7.895
 4465TIP3    H246931   5.586   9.088   7.905
 4466TIP3   OH246932   4.758   9.004   7.723
 4466TIP3    H146933   4.768   9.073   7.792
 4466TIP3    H246934   4.679   8.954   7.751
 4467TIP3   OH246935   4.220   9.227   6.911
 4467TIP3    H146936   4.237   9.231   7.008
 4467TIP3    H246937   4.146   9.163   6.909
 4468TIP3   OH246938   5.075   9.256   6.707
 4468TIP3    H146939   5.002   9.220   6.759
 4468TIP3    H246940   5.153   9.211   6.743
 4469TIP3   OH246941   5.389   8.163   7.895
 4469TIP3    H146942   5.332   8.210   7.832
 4469TIP3    H246943   5.385   8.073   7.856
 4470TIP3   OH246944   4.136   8.843   7.693
 4470TIP3    H146945   4.140   8.809   7.786
 4470TIP3    H246946   4.050   8.803   7.664
 4471TIP3   OH246947   4.395   7.699   7.300
 4471TIP3    H146948   4.310   7.712   7.253
 4471TIP3    H246949   4.378   7.752   7.381
 4472TIP3   OH246950   4.892   7.637   7.610
 4472TIP3    H146951   4.934   7.601   7.692
 4472TIP3    H246952   4.797   7.646   7.636
 4473TIP3   OH246953   5.153   8.072   7.689
 4473TIP3    H146954   5.095   8.054   7.768
 4473TIP3    H246955   5.137   8.166   7.671
 4474TIP3   OH246956   4.873   7.919   6.410
 4474TIP3    H146957   4.805   7.870   6.460
 4474TIP3    H246958   4.874   7.877   6.323
 4475TIP3   OH246959   4.408   8.169   7.421
 4475TIP3    H146960   4.328   8.175   7.477
 4475TIP3    H246961   4.409   8.262   7.384
 4476TIP3   OH246962   4.399   8.169   6.929
 4476TIP3    H146963   4.304   8.180   6.911
 4476TIP3    H246964   4.435   8.153   6.838
 4477TIP3   OH246965   4.970   8.265   6.803
 4477TIP3    H146966   4.936   8.344   6.754
 4477TIP3    H246967   5.033   8.226   6.741
 4478TIP3   OH246968   4.855   8.266   7.930
 4478TIP3    H146969   4.808   8.187   7.964
 4478TIP3    H246970   4.936   8.264   7.986
 4479TIP3   OH246971   5.054   8.218   7.111
 4479TIP3    H146972   5.033   8.307   7.076
 4479TIP3    H246973   5.040   8.165   7.031
 4480TIP3   OH246974   4.160   8.180   7.545
 4480TIP3    H146975   4.188   8.220   7.629
 4480TIP3    H246976   4.127   8.093   7.576
 4481TIP3   OH246977   3.856   7.930   7.014
 4481TIP3    H146978   3.909   7.923   7.095
 4481TIP3    H246979   3.862   8.024   6.991
 4482TIP3   OH246980   4.969   8.353   7.510
 4482TIP3    H146981   5.022   8.280   7.470
 4482TIP3    H246982   4.904   8.304   7.566
 4483TIP3   OH246983   4.657   7.969   7.006
 4483TIP3    H146984   4.564   7.950   7.030
 4483TIP3    H246985   4.707   7.904   7.060
 4484TIP3   OH246986   4.134   8.088   6.895
 4484TIP3    H146987   4.061   8.122   6.838
 4484TIP3    H246988   4.156   8.001   6.854
 4485TIP3   OH246989   4.473   8.127   6.663
 4485TIP3    H146990   4.570   8.134   6.659
 4485TIP3    H246991   4.447   8.198   6.599
 4486TIP3   OH246992   5.080   7.875   7.328
 4486TIP3    H146993   5.002   7.829   7.363
 4486TIP3    H246994   5.090   7.834   7.240
 4487TIP3   OH246995   4.166   8.676   7.925
 4487TIP3    H146996   4.230   8.707   7.993
 4487TIP3    H246997   4.088   8.655   7.980
 4488TIP3   OH246998   4.754   8.222   7.184
 4488TIP3    H146999   4.826   8.181   7.134
 4488TIP3    H247000   4.722   8.148   7.238
 4489TIP3   OH247001   4.233   7.841   6.826
 4489TIP3    H147002   4.185   7.771   6.876
 4489TIP3    H247003   4.277   7.788   6.758
 4490TIP3   OH247004   4.647   8.032   7.413
 4490TIP3    H147005   4.568   8.087   7.402
 4490TIP3    H247006   4.698   8.082   7.478
 4491TIP3   OH247007   4.679   8.636   6.604
 4491TIP3    H147008   4.602   8.584   6.578
 4491TIP3    H247009   4.646   8.689   6.679
 4492TIP3   OH247010   5.432   8.624   7.506
 4492TIP3    H147011   5.478   8.665   7.428
 4492TIP3    H247012   5.341   8.618   7.471
 4493TIP3   OH247013   4.839   8.702   7.750
 4493TIP3    H147014   4.805   8.659   7.830
 4493TIP3    H247015   4.797   8.789   7.754
 4494TIP3   OH247016   5.148   8.145   6.617
 4494TIP3    H147017   5.226   8.140   6.677
 4494TIP3    H247018   5.155   8.236   6.582
 4495TIP3   OH247019   4.221   8.634   7.177
 4495TIP3    H147020   4.267   8.614   7.092
 4495TIP3    H247021   4.230   8.550   7.225
 4496TIP3   OH247022   3.896   8.451   7.727
 4496TIP3    H147023   3.896   8.383   7.797
 4496TIP3    H247024   3.840   8.411   7.658
 4497TIP3   OH247025   4.616   8.401   7.886
 4497TIP3    H147026   4.564   8.333   7.841
 4497TIP3    H247027   4.706   8.360   7.882
 4498TIP3   OH247028   5.099   8.975   7.728
 4498TIP3    H147029   5.021   8.972   7.671
 4498TIP3    H247030   5.057   9.002   7.812
 4499TIP3   OH247031   5.589   8.182   6.613
 4499TIP3    H147032   5.601   8.103   6.559
 4499TIP3    H247033   5.639   8.252   6.563
 4500TIP3   OH247034   5.655   8.781   7.841
 4500TIP3    H147035   5.562   8.799   7.814
 4500TIP3    H247036   5.700   8.773   7.754
 4501TIP3   OH247037   5.401   9.068   6.596
 4501TIP3    H147038   5.394   9.023   6.682
 4501TIP3    H247039   5.463   9.010   6.548
 4502TIP3   OH247040   5.190   8.540   7.309
 4502TIP3    H147041   5.098   8.515   7.291
 4502TIP3    H247042   5.240   8.480   7.250
 4503TIP3   OH247043   4.427   8.962   6.973
 4503TIP3    H147044   4.461   9.048   6.941
 4503TIP3    H247045   4.337   8.962   6.936
 4504TIP3   OH247046   4.050   8.436   6.394
 4504TIP3    H147047   4.106   8.491   6.453
 4504TIP3    H247048   3.961   8.447   6.434
 4505TIP3   OH247049   4.592   8.751   6.876
 4505TIP3    H147050   4.535   8.829   6.884
 4505TIP3    H247051   4.559   8.693   6.947
 4506TIP3   OH247052   4.624   9.182   7.552
 4506TIP3    H147053   4.639   9.277   7.574
 4506TIP3    H247054   4.692   9.135   7.604
 4507TIP3   OH247055   4.487   9.197   6.849
 4507TIP3    H147056   4.393   9.217   6.864
 4507TIP3    H247057   4.523   9.285   6.873
 4508TIP3   OH247058   4.972   8.732   7.494
 4508TIP3    H147059   4.931   8.706   7.580
 4508TIP3    H247060   5.010   8.649   7.461
 4509TIP3   OH247061   5.264   9.218   7.714
 4509TIP3    H147062   5.189   9.155   7.703
 4509TIP3    H247063   5.243   9.290   7.653
 4510TIP3   OH247064   5.615   9.274   6.343
 4510TIP3    H147065   5.583   9.336   6.275
 4510TIP3    H247066   5.555   9.297   6.417
 4511TIP3   OH247067   4.110   7.949   7.678
 4511TIP3    H147068   4.039   7.985   7.734
 4511TIP3    H247069   4.113   7.856   7.708
 4512TIP3   OH247070   5.323   8.717   6.619
 4512TIP3    H147071   5.307   8.639   6.679
 4512TIP3    H247072   5.419   8.705   6.605
 4513TIP3   OH247073   4.049   9.098   7.516
 4513TIP3    H147074   4.102   9.017   7.513
 4513TIP3    H247075   4.091   9.148   7.588
 4514TIP3   OH247076   4.504   8.912   6.483
 4514TIP3    H147077   4.593   8.893   6.449
 4514TIP3    H247078   4.516   8.999   6.525
 4515TIP3   OH247079   4.164   8.631   6.556
 4515TIP3    H147080   4.075   8.670   6.573
 4515TIP3    H247081   4.207   8.710   6.515
 4516TIP3   OH247082   4.930   7.926   7.612
 4516TIP3    H147083   5.025   7.949   7.612
 4516TIP3    H247084   4.930   7.830   7.625
 4517TIP3   OH247085   5.015   7.860   6.695
 4517TIP3    H147086   5.024   7.942   6.642
 4517TIP3    H247087   5.068   7.885   6.775
 4518TIP3   OH247088   4.798   9.087   6.518
 4518TIP3    H147089   4.711   9.114   6.551
 4518TIP3    H247090   4.857   9.141   6.573
 4519TIP3   OH247091   4.723   8.065   6.759
 4519TIP3    H147092   4.791   8.121   6.799
 4519TIP3    H247093   4.675   8.031   6.838
 4520TIP3   OH247094   4.835   8.175   7.666
 4520TIP3    H147095   4.850   8.191   7.762
 4520TIP3    H247096   4.870   8.083   7.653
 4521TIP3   OH247097   4.823   7.736   6.842
 4521TIP3    H147098   4.815   7.771   6.934
 4521TIP3    H247099   4.887   7.802   6.805
 4522TIP3   OH247100   4.535   9.203   6.562
 4522TIP3    H147101   4.566   9.294   6.557
 4522TIP3    H247102   4.480   9.203   6.642
 4523TIP3   OH247103   4.356   7.872   6.541
 4523TIP3    H147104   4.365   7.963   6.576
 4523TIP3    H247105   4.446   7.840   6.556
 4524TIP3   OH247106   5.391   7.941   7.743
 4524TIP3    H147107   5.299   7.964   7.719
 4524TIP3    H247108   5.435   7.942   7.657
 4525TIP3   OH247109   5.323   8.323   7.165
 4525TIP3    H147110   5.242   8.271   7.175
 4525TIP3    H247111   5.388   8.266   7.211
 4526TIP3   OH247112   4.231   8.881   6.427
 4526TIP3    H147113   4.329   8.884   6.440
 4526TIP3    H247114   4.221   8.915   6.337
 4527TIP3   OH247115   3.948   8.172   6.344
 4527TIP3    H147116   4.020   8.229   6.378
 4527TIP3    H247117   3.961   8.183   6.249
 4528TIP3   OH247118   5.343   9.239   7.336
 4528TIP3    H147119   5.350   9.289   7.252
 4528TIP3    H247120   5.436   9.244   7.366
 4529TIP3   OH247121   4.135   7.651   7.231
 4529TIP3    H147122   4.133   7.644   7.134
 4529TIP3    H247123   4.110   7.560   7.257
 4530TIP3   OH247124   4.011   9.024   6.805
 4530TIP3    H147125   3.929   9.066   6.835
 4530TIP3    H247126   4.020   9.069   6.718
 4531TIP3   OH247127   3.924   9.287   7.952
 4531TIP3    H147128   4.000   9.261   8.010
 4531TIP3    H247129   3.884   9.198   7.932
 4532TIP3   OH247130   4.456   9.153   8.145
 4532TIP3    H147131   4.540   9.106   8.158
 4532TIP3    H247132   4.439   9.135   8.051
 4533TIP3   OH247133   5.036   9.056   7.995
 4533TIP3    H147134   5.026   8.964   8.029
 4533TIP3    H247135   5.126   9.075   8.028
 4534TIP3   OH247136   3.915   8.672   8.041
 4534TIP3    H147137   3.888   8.579   8.030
 4534TIP3    H247138   3.870   8.715   7.966
 4535TIP3   OH247139   4.603   8.659   7.936
 4535TIP3    H147140   4.562   8.719   7.870
 4535TIP3    H247141   4.603   8.571   7.892
 4536TIP3   OH247142   5.174   8.668   7.755
 4536TIP3    H147143   5.260   8.716   7.754
 4536TIP3    H247144   5.116   8.745   7.760
 4537TIP3   OH247145   4.061   8.368   7.988
 4537TIP3    H147146   4.121   8.300   8.021
 4537TIP3    H247147   4.062   8.429   8.065
 4538TIP3   OH247148   4.395   8.306   7.678
 4538TIP3    H147149   4.340   8.386   7.679
 4538TIP3    H247150   4.468   8.336   7.622
 4539TIP3   OH247151   4.951   8.561   8.072
 4539TIP3    H147152   5.010   8.515   8.011
 4539TIP3    H247153   4.922   8.491   8.133
 4540TIP3   OH247154   4.533   8.070   7.799
 4540TIP3    H147155   4.530   7.999   7.730
 4540TIP3    H247156   4.509   8.148   7.746
 4541TIP3   OH247157   4.529   7.882   7.597
 4541TIP3    H147158   4.580   7.913   7.519
 4541TIP3    H247159   4.439   7.887   7.558
 4542TIP3   OH247160   4.642   8.447   7.586
 4542TIP3    H147161   4.727   8.482   7.557
 4542TIP3    H247162   4.581   8.515   7.551
 4543TIP3   OH247163   5.053   8.225   8.118
 4543TIP3    H147164   5.061   8.136   8.162
 4543TIP3    H247165   5.148   8.243   8.102
 4544TIP3   OH247166   5.241   8.504   7.960
 4544TIP3    H147167   5.203   8.559   7.887
 4544TIP3    H247168   5.335   8.500   7.932
 4545TIP3   OH247169   4.329   8.138   8.011
 4545TIP3    H147170   4.249   8.092   7.979
 4545TIP3    H247171   4.386   8.136   7.933
 4546TIP3   OH247172   4.609   7.623   7.599
 4546TIP3    H147173   4.572   7.713   7.613
 4546TIP3    H247174   4.530   7.574   7.571
 4547TIP3   OH247175   4.718   8.035   8.015
 4547TIP3    H147176   4.652   8.030   8.086
 4547TIP3    H247177   4.657   8.030   7.938
 4548TIP3   OH247178   4.994   7.989   7.900
 4548TIP3    H147179   4.901   7.991   7.929
 4548TIP3    H247180   5.030   7.920   7.962
 4549TIP3   OH247181   5.089   7.810   8.069
 4549TIP3    H147182   5.133   7.727   8.096
 4549TIP3    H247183   5.100   7.869   8.148
 4550TIP3   OH247184   4.117   7.971   7.997
 4550TIP3    H147185   4.113   7.883   7.955
 4550TIP3    H247186   4.104   7.946   8.092
 4551TIP3   OH247187   4.569   7.570   7.859
 4551TIP3    H147188   4.654   7.528   7.881
 4551TIP3    H247189   4.580   7.572   7.761
 4552TIP3   OH247190   4.590   7.681   8.147
 4552TIP3    H147191   4.570   7.643   8.059
 4552TIP3    H247192   4.585   7.776   8.126
 4553TIP3   OH247193   3.924   8.880   6.341
 4553TIP3    H147194   4.011   8.896   6.300
 4553TIP3    H247195   3.887   8.820   6.272
 4554TIP3   OH247196   3.929   9.232   7.077
 4554TIP3    H147197   3.849   9.203   7.125
 4554TIP3    H247198   3.985   9.263   7.149
 4555TIP3   OH247199   5.604   9.302   7.385
 4555TIP3    H147200   5.669   9.307   7.458
 4555TIP3    H247201   5.620   9.386   7.339
 4556TIP3   OH247202   5.643   9.212   7.640
 4556TIP3    H147203   5.592   9.148   7.586
 4556TIP3    H247204   5.664   9.159   7.718
 4557TIP3   OH247205   5.471   8.833   8.115
 4557TIP3    H147206   5.390   8.836   8.170
 4557TIP3    H247207   5.517   8.918   8.138
 4558TIP3   OH247208   5.612   8.628   6.634
 4558TIP3    H147209   5.694   8.682   6.639
 4558TIP3    H247210   5.613   8.586   6.724
 4559TIP3   OH247211   5.644   8.474   6.865
 4559TIP3    H147212   5.558   8.435   6.890
 4559TIP3    H247213   5.697   8.467   6.947
 4560TIP3   OH247214   5.575   8.713   7.306
 4560TIP3    H147215   5.658   8.659   7.305
 4560TIP3    H247216   5.610   8.800   7.279
 4561TIP3   OH247217   5.464   9.030   7.569
 4561TIP3    H147218   5.399   9.083   7.619
 4561TIP3    H247219   5.410   9.003   7.490
 4562TIP3   OH247220   5.672   8.400   6.473
 4562TIP3    H147221   5.610   8.452   6.422
 4562TIP3    H247222   5.697   8.468   6.539
 4563TIP3   OH247223   5.413   8.331   6.908
 4563TIP3    H147224   5.381   8.247   6.871
 4563TIP3    H247225   5.395   8.320   7.004
 4564TIP3   OH247226   3.891   8.549   7.322
 4564TIP3    H147227   3.884   8.515   7.229
 4564TIP3    H247228   3.984   8.522   7.339
 4565TIP3   OH247229   5.517   8.518   7.876
 4565TIP3    H147230   5.562   8.431   7.877
 4565TIP3    H247231   5.582   8.577   7.835
 4566TIP3   OH247232   5.627   8.278   7.949
 4566TIP3    H147233   5.544   8.230   7.925
 4566TIP3    H247234   5.697   8.212   7.928
 4567TIP3   OH247235   5.370   8.103   6.765
 4567TIP3    H147236   5.391   8.008   6.776
 4567TIP3    H247237   5.456   8.131   6.727
 4568TIP3   OH247238   5.462   8.132   7.300
 4568TIP3    H147239   5.561   8.145   7.300
 4568TIP3    H247240   5.443   8.155   7.392
 4569TIP3   OH247241   5.457   8.220   7.556
 4569TIP3    H147242   5.366   8.249   7.577
 4569TIP3    H247243   5.502   8.305   7.537
 4570TIP3   OH247244   3.892   8.056   7.878
 4570TIP3    H147245   3.970   8.024   7.928
 4570TIP3    H247246   3.830   7.981   7.890
 4571TIP3   OH247247   5.666   7.644   8.074
 4571TIP3    H147248   5.712   7.572   8.025
 4571TIP3    H247249   5.663   7.714   8.006
 4572TIP3   OH247250   5.432   7.846   6.772
 4572TIP3    H147251   5.470   7.798   6.849
 4572TIP3    H247252   5.365   7.782   6.743
 4573TIP3   OH247253   4.001   7.889   7.286
 4573TIP3    H147254   4.041   7.800   7.275
 4573TIP3    H247255   4.077   7.949   7.277
 4574TIP3   OH247256   3.835   8.202   7.300
 4574TIP3    H147257   3.902   8.173   7.234
 4574TIP3    H247258   3.881   8.279   7.334
 4575TIP3   OH247259   5.606   7.860   7.925
 4575TIP3    H147260   5.534   7.884   7.986
 4575TIP3    H247261   5.557   7.825   7.849
 4576TIP3   OH247262   5.682   7.784   6.397
 4576TIP3    H147263   5.648   7.728   6.323
 4576TIP3    H247264   5.775   7.794   6.366
 4577TIP3   OH247265   5.317   9.301   6.862
 4577TIP3    H147266   5.408   9.292   6.828
 4577TIP3    H247267   5.332   9.363   6.937
 4578TIP3   OH247268   3.851   7.672   7.549
 4578TIP3    H147269   3.784   7.638   7.611
 4578TIP3    H247270   3.811   7.753   7.514
 4579TIP3   OH247271   4.078   8.968   7.968
 4579TIP3    H147272   3.991   8.965   7.927
 4579TIP3    H247273   4.060   9.012   8.053
 4580TIP3   OH247274   4.365   9.105   7.599
 4580TIP3    H147275   4.361   9.201   7.592
 4580TIP3    H247276   4.462   9.094   7.598
 4581TIP3   OH247277   4.781   9.222   7.886
 4581TIP3    H147278   4.771   9.197   7.979
 4581TIP3    H247279   4.876   9.246   7.885
 4582TIP3   OH247280   5.524   7.601   7.729
 4582TIP3    H147281   5.445   7.640   7.689
 4582TIP3    H247282   5.528   7.513   7.684
 4583TIP3   OH247283   5.019   9.226   7.570
 4583TIP3    H147284   4.960   9.292   7.527
 4583TIP3    H247285   5.095   9.233   7.511
 4584TIP3   OH247286   4.081   9.283   7.315
 4584TIP3    H147287   4.061   9.232   7.397
 4584TIP3    H247288   4.157   9.231   7.279
 4585TIP3   OH247289   4.265   9.169   7.161
 4585TIP3    H147290   4.254   9.071   7.171
 4585TIP3    H247291   4.346   9.182   7.215
 4586TIP3   OH247292   4.486   9.158   7.304
 4586TIP3    H147293   4.522   9.070   7.279
 4586TIP3    H247294   4.527   9.172   7.391
 4587TIP3   OH247295   4.824   7.763   7.099
 4587TIP3    H147296   4.753   7.740   7.162
 4587TIP3    H247297   4.877   7.682   7.101
 4588TIP3   OH247298   5.393   7.575   7.144
 4588TIP3    H147299   5.454   7.642   7.105
 4588TIP3    H247300   5.305   7.604   7.109
 4589TIP3   OH247301   5.551   7.710   6.978
 4589TIP3    H147302   5.604   7.641   6.932
 4589TIP3    H247303   5.621   7.778   6.993
 4590TIP3   OH247304   4.107   7.635   6.950
 4590TIP3    H147305   4.015   7.635   6.918
 4590TIP3    H247306   4.134   7.542   6.933
 4591TIP3   OH247307   3.994   7.598   6.516
 4591TIP3    H147308   4.049   7.649   6.452
 4591TIP3    H247309   3.965   7.667   6.577
 4592TIP3   OH247310   4.540   7.582   6.935
 4592TIP3    H147311   4.618   7.616   6.889
 4592TIP3    H247312   4.555   7.614   7.026
 4593TIP3   OH247313   5.130   7.639   7.059
 4593TIP3    H147314   5.121   7.647   6.964
 4593TIP3    H247315   5.084   7.554   7.078
 4594TIP3   OH247316   5.217   7.693   6.647
 4594TIP3    H147317   5.141   7.755   6.646
 4594TIP3    H247318   5.173   7.607   6.652
 4595TIP3   OH247319   3.962   9.185   6.603
 4595TIP3    H147320   3.867   9.183   6.582
 4595TIP3    H247321   3.992   9.264   6.556
 4596TIP3   OH247322   4.143   7.756   6.363
 4596TIP3    H147323   4.187   7.747   6.277
 4596TIP3    H247324   4.207   7.813   6.410
 4597TIP3   OH247325   4.674   7.834   6.584
 4597TIP3    H147326   4.708   7.805   6.671
 4597TIP3    H247327   4.691   7.930   6.596
 4598TIP3   OH247328   4.873   9.367   6.455
 4598TIP3    H147329   4.964   9.354   6.426
 4598TIP3    H247330   4.823   9.306   6.401
 4599TIP3   OH247331   5.541   9.270   6.707
 4599TIP3    H147332   5.486   9.196   6.673
 4599TIP3    H247333   5.514   9.342   6.646
 4600TIP3   OH247334   4.078   7.693   7.867
 4600TIP3    H147335   4.025   7.612   7.882
 4600TIP3    H247336   4.156   7.679   7.925
 4601TIP3   OH247337   4.271   7.637   8.053
 4601TIP3    H147338   4.349   7.583   8.030
 4601TIP3    H247339   4.219   7.572   8.105
 4602TIP3   OH247340   5.125   7.547   8.102
 4602TIP3    H147341   5.139   7.505   8.189
 4602TIP3    H247342   5.211   7.530   8.058
 4603TIP3   OH247343   5.438   9.168   7.923
 4603TIP3    H147344   5.376   9.180   7.847
 4603TIP3    H247345   5.486   9.252   7.923
 4604TIP3   OH247346   6.938   8.571   6.919
 4604TIP3    H147347   6.956   8.653   6.968
 4604TIP3    H247348   6.865   8.602   6.864
 4605TIP3   OH247349   6.801   8.448   7.244
 4605TIP3    H147350   6.805   8.396   7.328
 4605TIP3    H247351   6.732   8.399   7.194
 4606TIP3   OH247352   6.003   8.433   7.394
 4606TIP3    H147353   6.003   8.362   7.459
 4606TIP3    H247354   6.055   8.501   7.441
 4607TIP3   OH247355   7.128   8.788   7.136
 4607TIP3    H147356   7.146   8.709   7.189
 4607TIP3    H247357   7.141   8.858   7.202
 4608TIP3   OH247358   6.106   8.903   7.239
 4608TIP3    H147359   6.080   8.809   7.227
 4608TIP3    H247360   6.202   8.887   7.239
 4609TIP3   OH247361   5.785   8.215   6.801
 4609TIP3    H147362   5.746   8.299   6.831
 4609TIP3    H247363   5.722   8.187   6.731
 4610TIP3   OH247364   5.831   8.467   7.057
 4610TIP3    H147365   5.877   8.383   7.080
 4610TIP3    H247366   5.896   8.516   7.006
 4611TIP3   OH247367   6.874   9.261   7.205
 4611TIP3    H147368   6.936   9.233   7.134
 4611TIP3    H247369   6.852   9.175   7.242
 4612TIP3   OH247370   6.632   8.692   7.322
 4612TIP3    H147371   6.675   8.627   7.264
 4612TIP3    H247372   6.709   8.737   7.362
 4613TIP3   OH247373   7.473   7.868   7.325
 4613TIP3    H147374   7.488   7.927   7.402
 4613TIP3    H247375   7.548   7.892   7.267
 4614TIP3   OH247376   6.961   8.163   7.366
 4614TIP3    H147377   6.981   8.068   7.377
 4614TIP3    H247378   6.947   8.164   7.269
 4615TIP3   OH247379   6.266   7.941   7.035
 4615TIP3    H147380   6.275   8.026   6.987
 4615TIP3    H247381   6.216   7.889   6.969
 4616TIP3   OH247382   7.018   7.976   6.917
 4616TIP3    H147383   7.057   7.942   7.001
 4616TIP3    H247384   7.089   8.034   6.885
 4617TIP3   OH247385   5.921   8.223   7.143
 4617TIP3    H147386   5.982   8.174   7.201
 4617TIP3    H247387   5.943   8.185   7.056
 4618TIP3   OH247388   6.400   8.355   7.080
 4618TIP3    H147389   6.486   8.310   7.095
 4618TIP3    H247390   6.351   8.285   7.031
 4619TIP3   OH247391   7.491   7.997   7.580
 4619TIP3    H147392   7.454   8.080   7.541
 4619TIP3    H247393   7.514   8.029   7.669
 4620TIP3   OH247394   6.182   7.861   7.449
 4620TIP3    H147395   6.134   7.920   7.386
 4620TIP3    H247396   6.125   7.868   7.527
 4621TIP3   OH247397   6.851   8.831   6.812
 4621TIP3    H147398   6.822   8.834   6.718
 4621TIP3    H247399   6.828   8.921   6.841
 4622TIP3   OH247400   6.382   8.628   7.435
 4622TIP3    H147401   6.324   8.702   7.463
 4622TIP3    H247402   6.459   8.674   7.397
 4623TIP3   OH247403   7.188   7.929   7.130
 4623TIP3    H147404   7.247   7.854   7.143
 4623TIP3    H247405   7.252   8.001   7.145
 4624TIP3   OH247406   6.114   8.048   7.263
 4624TIP3    H147407   6.173   8.113   7.307
 4624TIP3    H247408   6.170   8.018   7.188
 4625TIP3   OH247409   6.249   8.833   7.546
 4625TIP3    H147410   6.246   8.930   7.535
 4625TIP3    H247411   6.158   8.816   7.581
 4626TIP3   OH247412   5.830   8.785   6.610
 4626TIP3    H147413   5.841   8.851   6.538
 4626TIP3    H247414   5.840   8.844   6.686
 4627TIP3   OH247415   7.200   8.970   7.340
 4627TIP3    H147416   7.106   8.989   7.359
 4627TIP3    H247417   7.225   9.056   7.300
 4628TIP3   OH247418   7.197   7.792   7.433
 4628TIP3    H147419   7.124   7.823   7.376
 4628TIP3    H247420   7.276   7.827   7.389
 4629TIP3   OH247421   6.502   7.598   7.211
 4629TIP3    H147422   6.479   7.506   7.191
 4629TIP3    H247423   6.411   7.635   7.230
 4630TIP3   OH247424   7.026   9.169   6.995
 4630TIP3    H147425   7.031   9.086   6.943
 4630TIP3    H247426   7.080   9.228   6.938
 4631TIP3   OH247427   7.163   8.942   6.828
 4631TIP3    H147428   7.141   8.868   6.767
 4631TIP3    H247429   7.153   8.896   6.913
 4632TIP3   OH247430   7.310   8.798   7.707
 4632TIP3    H147431   7.316   8.728   7.638
 4632TIP3    H247432   7.325   8.877   7.651
 4633TIP3   OH247433   7.507   8.437   7.500
 4633TIP3    H147434   7.447   8.513   7.517
 4633TIP3    H247435   7.560   8.472   7.425
 4634TIP3   OH247436   7.156   8.483   6.763
 4634TIP3    H147437   7.079   8.515   6.815
 4634TIP3    H247438   7.213   8.447   6.835
 4635TIP3   OH247439   7.107   8.323   7.698
 4635TIP3    H147440   7.107   8.418   7.716
 4635TIP3    H247441   7.040   8.319   7.629
 4636TIP3   OH247442   6.259   8.539   6.944
 4636TIP3    H147443   6.248   8.503   6.855
 4636TIP3    H247444   6.322   8.474   6.983
 4637TIP3   OH247445   6.399   8.893   7.195
 4637TIP3    H147446   6.407   8.896   7.098
 4637TIP3    H247447   6.472   8.834   7.221
 4638TIP3   OH247448   6.285   8.416   7.315
 4638TIP3    H147449   6.325   8.418   7.224
 4638TIP3    H247450   6.327   8.496   7.355
 4639TIP3   OH247451   6.937   9.011   7.390
 4639TIP3    H147452   6.890   9.069   7.452
 4639TIP3    H247453   6.929   8.923   7.432
 4640TIP3   OH247454   6.403   8.850   7.774
 4640TIP3    H147455   6.340   8.908   7.824
 4640TIP3    H247456   6.354   8.838   7.690
 4641TIP3   OH247457   6.089   8.508   7.657
 4641TIP3    H147458   6.109   8.589   7.706
 4641TIP3    H247459   6.038   8.460   7.724
 4642TIP3   OH247460   6.781   9.143   6.825
 4642TIP3    H147461   6.788   9.201   6.902
 4642TIP3    H247462   6.699   9.170   6.781
 4643TIP3   OH247463   6.227   9.045   7.875
 4643TIP3    H147464   6.214   9.065   7.781
 4643TIP3    H247465   6.140   9.006   7.899
 4644TIP3   OH247466   7.406   7.578   6.565
 4644TIP3    H147467   7.311   7.598   6.581
 4644TIP3    H247468   7.425   7.632   6.485
 4645TIP3   OH247469   6.178   8.435   6.677
 4645TIP3    H147470   6.141   8.526   6.661
 4645TIP3    H247471   6.100   8.379   6.674
 4646TIP3   OH247472   5.798   8.708   7.624
 4646TIP3    H147473   5.755   8.692   7.540
 4646TIP3    H247474   5.818   8.615   7.651
 4647TIP3   OH247475   5.780   8.979   7.289
 4647TIP3    H147476   5.871   8.994   7.260
 4647TIP3    H247477   5.769   9.051   7.353
 4648TIP3   OH247478   7.562   9.059   7.875
 4648TIP3    H147479   7.555   8.963   7.893
 4648TIP3    H247480   7.472   9.087   7.904
 4649TIP3   OH247481   6.647   9.010   7.724
 4649TIP3    H147482   6.652   9.078   7.795
 4649TIP3    H247483   6.572   8.953   7.751
 4650TIP3   OH247484   6.089   9.230   6.905
 4650TIP3    H147485   6.137   9.225   6.991
 4650TIP3    H247486   6.017   9.165   6.922
 4651TIP3   OH247487   7.007   9.326   6.416
 4651TIP3    H147488   7.048   9.245   6.384
 4651TIP3    H247489   7.013   9.318   6.513
 4652TIP3   OH247490   6.974   9.288   6.692
 4652TIP3    H147491   6.888   9.243   6.702
 4652TIP3    H247492   7.033   9.226   6.736
 4653TIP3   OH247493   7.276   8.165   7.897
 4653TIP3    H147494   7.218   8.200   7.826
 4653TIP3    H247495   7.278   8.070   7.876
 4654TIP3   OH247496   6.019   8.840   7.688
 4654TIP3    H147497   6.021   8.815   7.782
 4654TIP3    H247498   5.933   8.799   7.662
 4655TIP3   OH247499   6.266   7.690   7.267
 4655TIP3    H147500   6.175   7.670   7.240
 4655TIP3    H247501   6.252   7.769   7.323
 4656TIP3   OH247502   6.765   7.648   7.603
 4656TIP3    H147503   6.796   7.604   7.686
 4656TIP3    H247504   6.668   7.660   7.619
 4657TIP3   OH247505   7.044   8.047   7.732
 4657TIP3    H147506   6.980   8.008   7.797
 4657TIP3    H247507   7.044   8.140   7.757
 4658TIP3   OH247508   6.720   7.986   6.386
 4658TIP3    H147509   6.701   7.925   6.460
 4658TIP3    H247510   6.650   7.961   6.325
 4659TIP3   OH247511   6.295   8.176   7.420
 4659TIP3    H147512   6.216   8.184   7.477
 4659TIP3    H247513   6.292   8.266   7.379
 4660TIP3   OH247514   6.266   8.176   6.915
 4660TIP3    H147515   6.172   8.165   6.890
 4660TIP3    H247516   6.314   8.151   6.834
 4661TIP3   OH247517   6.841   8.282   6.790
 4661TIP3    H147518   6.825   8.360   6.736
 4661TIP3    H247519   6.914   8.238   6.742
 4662TIP3   OH247520   6.741   8.264   7.940
 4662TIP3    H147521   6.697   8.186   7.979
 4662TIP3    H247522   6.825   8.262   7.991
 4663TIP3   OH247523   6.960   8.226   7.095
 4663TIP3    H147524   6.927   8.311   7.061
 4663TIP3    H247525   6.949   8.169   7.017
 4664TIP3   OH247526   6.047   8.184   7.541
 4664TIP3    H147527   6.079   8.216   7.626
 4664TIP3    H247528   6.003   8.101   7.568
 4665TIP3   OH247529   5.745   7.899   7.002
 4665TIP3    H147530   5.830   7.883   7.043
 4665TIP3    H247531   5.767   7.920   6.910
 4666TIP3   OH247532   6.847   8.357   7.511
 4666TIP3    H147533   6.898   8.286   7.466
 4666TIP3    H247534   6.791   8.303   7.572
 4667TIP3   OH247535   6.558   7.971   6.995
 4667TIP3    H147536   6.465   7.948   7.011
 4667TIP3    H247537   6.606   7.906   7.050
 4668TIP3   OH247538   6.003   8.102   6.903
 4668TIP3    H147539   5.927   8.128   6.844
 4668TIP3    H247540   6.029   8.013   6.868
 4669TIP3   OH247541   6.384   8.124   6.662
 4669TIP3    H147542   6.478   8.134   6.688
 4669TIP3    H247543   6.370   8.194   6.598
 4670TIP3   OH247544   6.961   7.875   7.323
 4670TIP3    H147545   6.891   7.841   7.381
 4670TIP3    H247546   6.965   7.810   7.250
 4671TIP3   OH247547   6.053   8.673   7.928
 4671TIP3    H147548   6.118   8.706   7.992
 4671TIP3    H247549   5.973   8.665   7.984
 4672TIP3   OH247550   6.642   8.251   7.151
 4672TIP3    H147551   6.711   8.185   7.131
 4672TIP3    H247552   6.614   8.224   7.239
 4673TIP3   OH247553   6.104   7.857   6.827
 4673TIP3    H147554   6.065   7.781   6.878
 4673TIP3    H247555   6.131   7.814   6.743
 4674TIP3   OH247556   6.530   8.039   7.433
 4674TIP3    H147557   6.449   8.094   7.426
 4674TIP3    H247558   6.587   8.093   7.490
 4675TIP3   OH247559   6.602   8.666   6.609
 4675TIP3    H147560   6.519   8.629   6.571
 4675TIP3    H247561   6.565   8.716   6.685
 4676TIP3   OH247562   7.322   8.622   7.510
 4676TIP3    H147563   7.361   8.664   7.430
 4676TIP3    H247564   7.229   8.617   7.482
 4677TIP3   OH247565   6.732   8.694   7.768
 4677TIP3    H147566   6.688   8.657   7.846
 4677TIP3    H247567   6.689   8.780   7.757
 4678TIP3   OH247568   7.041   8.205   6.619
 4678TIP3    H147569   7.117   8.162   6.663
 4678TIP3    H247570   7.074   8.295   6.611
 4679TIP3   OH247571   6.118   8.635   7.196
 4679TIP3    H147572   6.168   8.615   7.114
 4679TIP3    H247573   6.115   8.547   7.239
 4680TIP3   OH247574   6.780   8.858   6.544
 4680TIP3    H147575   6.735   8.944   6.534
 4680TIP3    H247576   6.705   8.796   6.559
 4681TIP3   OH247577   5.784   8.457   7.725
 4681TIP3    H147578   5.789   8.394   7.799
 4681TIP3    H247579   5.730   8.410   7.659
 4682TIP3   OH247580   6.518   8.407   7.877
 4682TIP3    H147581   6.469   8.336   7.834
 4682TIP3    H247582   6.608   8.368   7.877
 4683TIP3   OH247583   6.988   8.967   7.723
 4683TIP3    H147584   6.914   8.985   7.666
 4683TIP3    H247585   6.948   8.990   7.809
 4684TIP3   OH247586   7.531   8.165   6.584
 4684TIP3    H147587   7.465   8.137   6.520
 4684TIP3    H247588   7.509   8.259   6.598
 4685TIP3   OH247589   7.547   8.782   7.841
 4685TIP3    H147590   7.456   8.796   7.803
 4685TIP3    H247591   7.601   8.769   7.760
 4686TIP3   OH247592   7.344   9.038   6.635
 4686TIP3    H147593   7.276   9.031   6.703
 4686TIP3    H247594   7.358   8.943   6.621
 4687TIP3   OH247595   7.067   8.551   7.296
 4687TIP3    H147596   6.977   8.520   7.275
 4687TIP3    H247597   7.121   8.483   7.253
 4688TIP3   OH247598   6.295   8.972   6.891
 4688TIP3    H147599   6.350   9.050   6.865
 4688TIP3    H247600   6.231   8.972   6.819
 4689TIP3   OH247601   6.462   8.754   6.854
 4689TIP3    H147602   6.413   8.838   6.855
 4689TIP3    H247603   6.409   8.699   6.915
 4690TIP3   OH247604   6.517   9.194   7.521
 4690TIP3    H147605   6.530   9.284   7.559
 4690TIP3    H247606   6.579   9.140   7.571
 4691TIP3   OH247607   6.388   9.210   6.814
 4691TIP3    H147608   6.293   9.224   6.830
 4691TIP3    H247609   6.422   9.291   6.856
 4692TIP3   OH247610   6.861   8.729   7.493
 4692TIP3    H147611   6.838   8.691   7.581
 4692TIP3    H247612   6.913   8.656   7.455
 4693TIP3   OH247613   7.156   9.219   7.724
 4693TIP3    H147614   7.078   9.160   7.713
 4693TIP3    H247615   7.132   9.297   7.672
 4694TIP3   OH247616   5.988   7.953   7.675
 4694TIP3    H147617   5.926   8.000   7.735
 4694TIP3    H247618   5.961   7.861   7.694
 4695TIP3   OH247619   7.195   8.734   6.636
 4695TIP3    H147620   7.165   8.645   6.664
 4695TIP3    H247621   7.286   8.713   6.607
 4696TIP3   OH247622   5.948   9.119   7.507
 4696TIP3    H147623   5.989   9.030   7.509
 4696TIP3    H247624   5.980   9.159   7.589
 4697TIP3   OH247625   6.082   8.673   6.566
 4697TIP3    H147626   5.987   8.694   6.561
 4697TIP3    H247627   6.115   8.723   6.488
 4698TIP3   OH247628   6.814   7.935   7.599
 4698TIP3    H147629   6.906   7.952   7.628
 4698TIP3    H247630   6.803   7.840   7.613
 4699TIP3   OH247631   6.916   7.842   6.712
 4699TIP3    H147632   6.921   7.918   6.653
 4699TIP3    H247633   6.967   7.876   6.789
 4700TIP3   OH247634   6.685   9.131   6.524
 4700TIP3    H147635   6.588   9.123   6.512
 4700TIP3    H247636   6.706   9.193   6.452
 4701TIP3   OH247637   6.655   8.070   6.749
 4701TIP3    H147638   6.716   8.142   6.775
 4701TIP3    H247639   6.632   8.026   6.834
 4702TIP3   OH247640   6.713   8.180   7.675
 4702TIP3    H147641   6.728   8.190   7.772
 4702TIP3    H247642   6.748   8.091   7.655
 4703TIP3   OH247643   6.690   7.754   6.819
 4703TIP3    H147644   6.681   7.780   6.913
 4703TIP3    H247645   6.776   7.797   6.796
 4704TIP3   OH247646   6.296   7.852   6.599
 4704TIP3    H147647   6.275   7.945   6.581
 4704TIP3    H247648   6.392   7.850   6.597
 4705TIP3   OH247649   7.293   7.928   7.755
 4705TIP3    H147650   7.200   7.959   7.749
 4705TIP3    H247651   7.324   7.940   7.664
 4706TIP3   OH247652   7.202   8.335   7.178
 4706TIP3    H147653   7.117   8.287   7.170
 4706TIP3    H247654   7.259   8.270   7.223
 4707TIP3   OH247655   5.916   8.195   6.291
 4707TIP3    H147656   5.949   8.224   6.376
 4707TIP3    H247657   5.927   8.098   6.298
 4708TIP3   OH247658   7.240   9.240   7.337
 4708TIP3    H147659   7.245   9.297   7.258
 4708TIP3    H247660   7.334   9.247   7.367
 4709TIP3   OH247661   6.003   7.639   7.219
 4709TIP3    H147662   5.993   7.633   7.121
 4709TIP3    H247663   5.973   7.549   7.246
 4710TIP3   OH247664   5.868   9.030   6.828
 4710TIP3    H147665   5.783   9.077   6.836
 4710TIP3    H247666   5.905   9.076   6.752
 4711TIP3   OH247667   5.812   9.287   7.949
 4711TIP3    H147668   5.886   9.258   8.008
 4711TIP3    H247669   5.767   9.201   7.931
 4712TIP3   OH247670   6.340   9.152   8.156
 4712TIP3    H147671   6.427   9.108   8.161
 4712TIP3    H247672   6.316   9.133   8.064
 4713TIP3   OH247673   6.924   9.053   7.993
 4713TIP3    H147674   6.916   8.961   8.029
 4713TIP3    H247675   7.014   9.074   8.025
 4714TIP3   OH247676   5.800   8.668   8.039
 4714TIP3    H147677   5.769   8.578   8.025
 4714TIP3    H247678   5.760   8.718   7.964
 4715TIP3   OH247679   6.478   8.657   7.949
 4715TIP3    H147680   6.448   8.715   7.876
 4715TIP3    H247681   6.482   8.568   7.907
 4716TIP3   OH247682   7.054   8.670   7.747
 4716TIP3    H147683   7.135   8.725   7.754
 4716TIP3    H247684   6.987   8.741   7.751
 4717TIP3   OH247685   5.952   8.365   7.988
 4717TIP3    H147686   6.015   8.305   8.031
 4717TIP3    H247687   5.953   8.439   8.054
 4718TIP3   OH247688   6.374   8.529   6.506
 4718TIP3    H147689   6.298   8.495   6.558
 4718TIP3    H247690   6.379   8.473   6.427
 4719TIP3   OH247691   6.278   8.308   7.673
 4719TIP3    H147692   6.217   8.385   7.670
 4719TIP3    H247693   6.352   8.343   7.620
 4720TIP3   OH247694   6.490   8.350   6.305
 4720TIP3    H147695   6.504   8.387   6.217
 4720TIP3    H247696   6.561   8.284   6.311
 4721TIP3   OH247697   6.835   8.560   8.075
 4721TIP3    H147698   6.895   8.514   8.014
 4721TIP3    H247699   6.807   8.490   8.136
 4722TIP3   OH247700   6.400   8.083   7.791
 4722TIP3    H147701   6.412   8.013   7.723
 4722TIP3    H247702   6.377   8.160   7.735
 4723TIP3   OH247703   6.410   7.882   7.603
 4723TIP3    H147704   6.462   7.921   7.529
 4723TIP3    H247705   6.322   7.872   7.562
 4724TIP3   OH247706   6.526   8.447   7.583
 4724TIP3    H147707   6.617   8.474   7.566
 4724TIP3    H247708   6.476   8.522   7.545
 4725TIP3   OH247709   6.934   8.225   8.112
 4725TIP3    H147710   6.954   8.136   8.151
 4725TIP3    H247711   7.022   8.264   8.105
 4726TIP3   OH247712   7.124   8.513   7.959
 4726TIP3    H147713   7.083   8.558   7.882
 4726TIP3    H247714   7.217   8.503   7.927
 4727TIP3   OH247715   6.214   8.132   8.011
 4727TIP3    H147716   6.131   8.088   7.980
 4727TIP3    H247717   6.269   8.129   7.930
 4728TIP3   OH247718   6.485   7.627   7.595
 4728TIP3    H147719   6.450   7.718   7.608
 4728TIP3    H247720   6.405   7.580   7.567
 4729TIP3   OH247721   6.600   8.035   8.020
 4729TIP3    H147722   6.532   8.029   8.090
 4729TIP3    H247723   6.542   8.028   7.941
 4730TIP3   OH247724   6.856   7.979   7.909
 4730TIP3    H147725   6.766   7.987   7.944
 4730TIP3    H247726   6.895   7.918   7.976
 4731TIP3   OH247727   6.970   7.811   8.072
 4731TIP3    H147728   7.014   7.727   8.093
 4731TIP3    H247729   6.989   7.869   8.149
 4732TIP3   OH247730   6.002   7.969   7.999
 4732TIP3    H147731   5.985   7.886   7.950
 4732TIP3    H247732   5.992   7.938   8.093
 4733TIP3   OH247733   6.460   7.576   7.872
 4733TIP3    H147734   6.541   7.524   7.887
 4733TIP3    H247735   6.461   7.579   7.774
 4734TIP3   OH247736   6.475   7.685   8.154
 4734TIP3    H147737   6.461   7.644   8.066
 4734TIP3    H247738   6.472   7.779   8.130
 4735TIP3   OH247739   5.775   9.222   7.054
 4735TIP3    H147740   5.702   9.195   7.111
 4735TIP3    H247741   5.841   9.248   7.122
 4736TIP3   OH247742   7.492   9.304   7.383
 4736TIP3    H147743   7.544   9.316   7.465
 4736TIP3    H247744   7.538   9.365   7.324
 4737TIP3   OH247745   7.533   9.209   7.641
 4737TIP3    H147746   7.483   9.145   7.586
 4737TIP3    H247747   7.550   9.153   7.720
 4738TIP3   OH247748   7.358   8.836   8.116
 4738TIP3    H147749   7.273   8.848   8.164
 4738TIP3    H247750   7.405   8.921   8.134
 4739TIP3   OH247751   7.446   8.642   6.605
 4739TIP3    H147752   7.536   8.679   6.616
 4739TIP3    H247753   7.441   8.589   6.687
 4740TIP3   OH247754   7.522   8.476   6.836
 4740TIP3    H147755   7.439   8.443   6.877
 4740TIP3    H247756   7.580   8.482   6.914
 4741TIP3   OH247757   7.454   8.720   7.303
 4741TIP3    H147758   7.533   8.662   7.294
 4741TIP3    H247759   7.490   8.806   7.275
 4742TIP3   OH247760   7.346   9.021   7.567
 4742TIP3    H147761   7.288   9.084   7.612
 4742TIP3    H247762   7.296   9.008   7.482
 4743TIP3   OH247763   7.312   8.322   6.917
 4743TIP3    H147764   7.282   8.236   6.884
 4743TIP3    H247765   7.289   8.318   7.012
 4744TIP3   OH247766   5.786   8.546   7.311
 4744TIP3    H147767   5.785   8.522   7.215
 4744TIP3    H247768   5.880   8.521   7.330
 4745TIP3   OH247769   7.398   8.508   7.875
 4745TIP3    H147770   7.439   8.419   7.883
 4745TIP3    H247771   7.470   8.562   7.835
 4746TIP3   OH247772   7.512   8.274   7.968
 4746TIP3    H147773   7.430   8.232   7.936
 4746TIP3    H247774   7.580   8.208   7.941
 4747TIP3   OH247775   7.258   8.091   6.753
 4747TIP3    H147776   7.260   7.993   6.764
 4747TIP3    H247777   7.352   8.101   6.732
 4748TIP3   OH247778   7.356   8.138   7.291
 4748TIP3    H147779   7.453   8.156   7.300
 4748TIP3    H247780   7.327   8.152   7.383
 4749TIP3   OH247781   7.347   8.217   7.553
 4749TIP3    H147782   7.259   8.247   7.579
 4749TIP3    H247783   7.392   8.303   7.534
 4750TIP3   OH247784   5.780   8.060   7.884
 4750TIP3    H147785   5.856   8.043   7.944
 4750TIP3    H247786   5.721   7.984   7.906
 4751TIP3   OH247787   7.544   7.649   8.069
 4751TIP3    H147788   7.590   7.574   8.026
 4751TIP3    H247789   7.548   7.717   7.998
 4752TIP3   OH247790   7.283   7.825   6.760
 4752TIP3    H147791   7.347   7.795   6.828
 4752TIP3    H247792   7.255   7.742   6.718
 4753TIP3   OH247793   5.881   7.881   7.302
 4753TIP3    H147794   5.923   7.796   7.282
 4753TIP3    H247795   5.946   7.947   7.273
 4754TIP3   OH247796   5.713   8.207   7.305
 4754TIP3    H147797   5.782   8.177   7.241
 4754TIP3    H247798   5.744   8.297   7.318
 4755TIP3   OH247799   7.498   7.866   7.924
 4755TIP3    H147800   7.434   7.870   7.997
 4755TIP3    H247801   7.439   7.842   7.849
 4756TIP3   OH247802   7.548   7.776   6.399
 4756TIP3    H147803   7.583   7.704   6.344
 4756TIP3    H247804   7.609   7.848   6.377
 4757TIP3   OH247805   5.716   7.848   6.723
 4757TIP3    H147806   5.619   7.842   6.723
 4757TIP3    H247807   5.736   7.822   6.631
 4758TIP3   OH247808   7.198   9.328   6.861
 4758TIP3    H147809   7.288   9.303   6.831
 4758TIP3    H247810   7.216   9.372   6.946
 4759TIP3   OH247811   5.748   7.666   7.545
 4759TIP3    H147812   5.677   7.638   7.606
 4759TIP3    H247813   5.704   7.729   7.485
 4760TIP3   OH247814   5.964   8.967   7.964
 4760TIP3    H147815   5.880   8.979   7.919
 4760TIP3    H247816   5.948   9.004   8.052
 4761TIP3   OH247817   6.267   9.101   7.604
 4761TIP3    H147818   6.245   9.188   7.569
 4761TIP3    H247819   6.364   9.105   7.604
 4762TIP3   OH247820   6.657   9.225   7.889
 4762TIP3    H147821   6.655   9.193   7.982
 4762TIP3    H247822   6.751   9.250   7.883
 4763TIP3   OH247823   7.419   7.607   7.731
 4763TIP3    H147824   7.344   7.647   7.686
 4763TIP3    H247825   7.423   7.517   7.690
 4764TIP3   OH247826   6.914   9.229   7.580
 4764TIP3    H147827   6.851   9.290   7.536
 4764TIP3    H247828   6.989   9.240   7.519
 4765TIP3   OH247829   5.938   9.268   7.276
 4765TIP3    H147830   5.923   9.238   7.368
 4765TIP3    H247831   6.019   9.217   7.250
 4766TIP3   OH247832   6.151   9.165   7.160
 4766TIP3    H147833   6.140   9.068   7.169
 4766TIP3    H247834   6.240   9.178   7.200
 4767TIP3   OH247835   6.387   9.166   7.278
 4767TIP3    H147836   6.404   9.072   7.256
 4767TIP3    H247837   6.433   9.176   7.364
 4768TIP3   OH247838   6.699   7.762   7.092
 4768TIP3    H147839   6.639   7.751   7.167
 4768TIP3    H247840   6.756   7.684   7.104
 4769TIP3   OH247841   7.266   7.565   7.148
 4769TIP3    H147842   7.336   7.620   7.105
 4769TIP3    H247843   7.186   7.617   7.134
 4770TIP3   OH247844   7.424   7.706   6.981
 4770TIP3    H147845   7.480   7.639   6.933
 4770TIP3    H247846   7.490   7.778   6.992
 4771TIP3   OH247847   5.974   7.648   6.938
 4771TIP3    H147848   5.902   7.640   6.872
 4771TIP3    H247849   6.016   7.559   6.928
 4772TIP3   OH247850   6.417   7.595   6.938
 4772TIP3    H147851   6.499   7.602   6.887
 4772TIP3    H247852   6.440   7.643   7.020
 4773TIP3   OH247853   7.001   7.650   7.051
 4773TIP3    H147854   6.978   7.653   6.957
 4773TIP3    H247855   6.963   7.563   7.076
 4774TIP3   OH247856   7.149   7.620   6.624
 4774TIP3    H147857   7.074   7.673   6.658
 4774TIP3    H247858   7.113   7.531   6.646
 4775TIP3   OH247859   5.836   9.202   6.580
 4775TIP3    H147860   5.756   9.257   6.589
 4775TIP3    H247861   5.909   9.265   6.569
 4776TIP3   OH247862   6.580   7.846   6.593
 4776TIP3    H147863   6.614   7.806   6.677
 4776TIP3    H247864   6.579   7.940   6.620
 4777TIP3   OH247865   7.430   9.277   6.727
 4777TIP3    H147866   7.401   9.196   6.681
 4777TIP3    H247867   7.416   9.348   6.659
 4778TIP3   OH247868   5.953   7.691   7.869
 4778TIP3    H147869   5.905   7.608   7.887
 4778TIP3    H247870   6.033   7.680   7.926
 4779TIP3   OH247871   6.153   7.635   8.056
 4779TIP3    H147872   6.234   7.588   8.033
 4779TIP3    H247873   6.106   7.567   8.109
 4780TIP3   OH247874   7.012   7.549   8.112
 4780TIP3    H147875   7.026   7.509   8.200
 4780TIP3    H247876   7.095   7.524   8.067
 4781TIP3   OH247877   7.329   9.173   7.927
 4781TIP3    H147878   7.271   9.182   7.848
 4781TIP3    H247879   7.377   9.256   7.924
 4782TIP3   OH247880   8.814   8.561   6.913
 4782TIP3    H147881   8.796   8.653   6.939
 4782TIP3    H247882   8.733   8.541   6.863
 4783TIP3   OH247883   8.676   8.432   7.247
 4783TIP3    H147884   8.690   8.394   7.335
 4783TIP3    H247885   8.602   8.378   7.210
 4784TIP3   OH247886   7.880   8.433   7.395
 4784TIP3    H147887   7.881   8.353   7.452
 4784TIP3    H247888   7.941   8.489   7.447
 4785TIP3   OH247889   9.056   8.795   7.143
 4785TIP3    H147890   9.059   8.713   7.195
 4785TIP3    H247891   9.044   8.863   7.213
 4786TIP3   OH247892   8.001   8.892   7.260
 4786TIP3    H147893   7.970   8.807   7.223
 4786TIP3    H247894   8.096   8.869   7.268
 4787TIP3   OH247895   7.687   8.214   6.798
 4787TIP3    H147896   7.639   8.290   6.835
 4787TIP3    H247897   7.628   8.183   6.727
 4788TIP3   OH247898   7.721   8.473   7.056
 4788TIP3    H147899   7.775   8.395   7.084
 4788TIP3    H247900   7.789   8.538   7.032
 4789TIP3   OH247901   8.739   9.256   7.186
 4789TIP3    H147902   8.811   9.228   7.124
 4789TIP3    H247903   8.724   9.172   7.232
 4790TIP3   OH247904   8.520   8.704   7.285
 4790TIP3    H147905   8.566   8.626   7.250
 4790TIP3    H247906   8.590   8.749   7.337
 4791TIP3   OH247907   9.364   7.919   7.416
 4791TIP3    H147908   9.379   8.015   7.420
 4791TIP3    H247909   9.444   7.894   7.365
 4792TIP3   OH247910   8.825   8.165   7.366
 4792TIP3    H147911   8.859   8.076   7.375
 4792TIP3    H247912   8.810   8.170   7.271
 4793TIP3   OH247913   8.136   7.955   7.039
 4793TIP3    H147914   8.162   8.034   6.988
 4793TIP3    H247915   8.082   7.909   6.971
 4794TIP3   OH247916   8.920   7.997   6.929
 4794TIP3    H147917   8.971   7.947   6.997
 4794TIP3    H247918   8.991   8.051   6.891
 4795TIP3   OH247919   7.820   8.222   7.126
 4795TIP3    H147920   7.873   8.173   7.191
 4795TIP3    H247921   7.845   8.181   7.041
 4796TIP3   OH247922   8.289   8.372   7.085
 4796TIP3    H147923   8.371   8.329   7.116
 4796TIP3    H247924   8.261   8.305   7.018
 4797TIP3   OH247925   8.038   7.861   7.466
 4797TIP3    H147926   8.006   7.915   7.391
 4797TIP3    H247927   7.980   7.893   7.539
 4798TIP3   OH247928   8.719   8.812   6.822
 4798TIP3    H147929   8.699   8.816   6.726
 4798TIP3    H247930   8.712   8.906   6.844
 4799TIP3   OH247931   8.275   8.629   7.439
 4799TIP3    H147932   8.214   8.703   7.462
 4799TIP3    H247933   8.346   8.676   7.391
 4800TIP3   OH247934   9.095   7.946   7.127
 4800TIP3    H147935   9.058   7.886   7.194
 4800TIP3    H247936   9.147   8.008   7.181
 4801TIP3   OH247937   7.997   8.055   7.267
 4801TIP3    H147938   8.055   8.124   7.306
 4801TIP3    H247939   8.048   8.027   7.189
 4802TIP3   OH247940   8.139   8.834   7.550
 4802TIP3    H147941   8.136   8.930   7.529
 4802TIP3    H247942   8.046   8.820   7.581
 4803TIP3   OH247943   7.695   8.784   6.600
 4803TIP3    H147944   7.714   8.848   6.531
 4803TIP3    H247945   7.725   8.836   6.678
 4804TIP3   OH247946   9.053   8.984   7.341
 4804TIP3    H147947   8.962   9.018   7.344
 4804TIP3    H247948   9.107   9.061   7.312
 4805TIP3   OH247949   9.132   7.781   7.446
 4805TIP3    H147950   9.057   7.806   7.388
 4805TIP3    H247951   9.198   7.850   7.423
 4806TIP3   OH247952   8.393   7.610   7.202
 4806TIP3    H147953   8.365   7.517   7.202
 4806TIP3    H247954   8.309   7.653   7.235
 4807TIP3   OH247955   8.910   9.145   7.008
 4807TIP3    H147956   8.941   9.062   6.965
 4807TIP3    H247957   8.975   9.209   6.968
 4808TIP3   OH247958   9.024   8.910   6.872
 4808TIP3    H147959   9.010   8.840   6.806
 4808TIP3    H247960   9.045   8.860   6.953
 4809TIP3   OH247961   9.168   8.782   7.719
 4809TIP3    H147962   9.178   8.720   7.644
 4809TIP3    H247963   9.202   8.864   7.676
 4810TIP3   OH247964   8.659   8.487   6.656
 4810TIP3    H147965   8.571   8.529   6.646
 4810TIP3    H247966   8.714   8.565   6.636
 4811TIP3   OH247967   8.661   8.342   6.376
 4811TIP3    H147968   8.730   8.351   6.443
 4811TIP3    H247969   8.685   8.263   6.325
 4812TIP3   OH247970   9.365   8.411   7.462
 4812TIP3    H147971   9.289   8.471   7.482
 4812TIP3    H247972   9.417   8.470   7.403
 4813TIP3   OH247973   9.003   8.454   6.739
 4813TIP3    H147974   8.931   8.490   6.794
 4813TIP3    H247975   9.065   8.423   6.809
 4814TIP3   OH247976   8.978   8.308   7.686
 4814TIP3    H147977   8.964   8.378   7.752
 4814TIP3    H247978   8.914   8.339   7.620
 4815TIP3   OH247979   8.133   8.545   6.936
 4815TIP3    H147980   8.122   8.510   6.845
 4815TIP3    H247981   8.199   8.484   6.973
 4816TIP3   OH247982   8.296   8.874   7.220
 4816TIP3    H147983   8.306   8.893   7.125
 4816TIP3    H247984   8.377   8.822   7.239
 4817TIP3   OH247985   8.175   8.419   7.323
 4817TIP3    H147986   8.212   8.427   7.232
 4817TIP3    H247987   8.223   8.490   7.371
 4818TIP3   OH247988   8.755   9.005   7.404
 4818TIP3    H147989   8.747   9.064   7.481
 4818TIP3    H247990   8.762   8.918   7.449
 4819TIP3   OH247991   8.297   8.864   7.777
 4819TIP3    H147992   8.232   8.922   7.822
 4819TIP3    H247993   8.248   8.839   7.696
 4820TIP3   OH247994   7.981   8.511   7.656
 4820TIP3    H147995   7.994   8.596   7.702
 4820TIP3    H247996   7.924   8.467   7.720
 4821TIP3   OH247997   8.666   9.103   6.856
 4821TIP3    H147998   8.700   9.130   6.943
 4821TIP3    H247999   8.589   9.158   6.840
 4822TIP3   OH248000   8.100   9.049   7.871
 4822TIP3    H148001   8.082   9.060   7.775
 4822TIP3    H248002   8.016   9.008   7.901
 4823TIP3   OH248003   9.237   7.532   6.533
 4823TIP3    H148004   9.153   7.581   6.549
 4823TIP3    H248005   9.270   7.577   6.453
 4824TIP3   OH248006   8.056   8.436   6.697
 4824TIP3    H148007   7.994   8.508   6.679
 4824TIP3    H248008   8.001   8.356   6.686
 4825TIP3   OH248009   9.320   9.015   6.363
 4825TIP3    H148010   9.285   9.104   6.347
 4825TIP3    H248011   9.413   9.035   6.376
 4826TIP3   OH248012   7.683   8.711   7.618
 4826TIP3    H148013   7.649   8.702   7.528
 4826TIP3    H248014   7.701   8.616   7.640
 4827TIP3   OH248015   7.654   8.979   7.288
 4827TIP3    H148016   7.747   8.988   7.264
 4827TIP3    H248017   7.645   9.045   7.358
 4828TIP3   OH248018   8.532   9.011   7.746
 4828TIP3    H148019   8.521   9.080   7.814
 4828TIP3    H248020   8.448   8.959   7.749
 4829TIP3   OH248021   7.936   9.195   6.927
 4829TIP3    H148022   7.994   9.184   7.005
 4829TIP3    H248023   7.850   9.205   6.975
 4830TIP3   OH248024   8.832   9.272   6.716
 4830TIP3    H148025   8.741   9.273   6.747
 4830TIP3    H248026   8.856   9.180   6.736
 4831TIP3   OH248027   9.162   8.207   7.885
 4831TIP3    H148028   9.109   8.223   7.806
 4831TIP3    H248029   9.214   8.129   7.861
 4832TIP3   OH248030   7.908   8.842   7.685
 4832TIP3    H148031   7.908   8.811   7.777
 4832TIP3    H248032   7.821   8.809   7.655
 4833TIP3   OH248033   8.167   7.717   7.275
 4833TIP3    H148034   8.079   7.699   7.236
 4833TIP3    H248035   8.140   7.760   7.359
 4834TIP3   OH248036   8.653   7.646   7.616
 4834TIP3    H148037   8.691   7.606   7.698
 4834TIP3    H248038   8.557   7.649   7.636
 4835TIP3   OH248039   8.966   8.016   7.656
 4835TIP3    H148040   8.905   8.003   7.732
 4835TIP3    H248041   8.988   8.111   7.662
 4836TIP3   OH248042   8.180   8.180   7.427
 4836TIP3    H148043   8.106   8.194   7.489
 4836TIP3    H248044   8.180   8.268   7.383
 4837TIP3   OH248045   8.192   8.187   6.902
 4837TIP3    H148046   8.094   8.177   6.890
 4837TIP3    H248047   8.222   8.173   6.810
 4838TIP3   OH248048   8.714   8.262   6.787
 4838TIP3    H148049   8.690   8.347   6.743
 4838TIP3    H248050   8.785   8.231   6.728
 4839TIP3   OH248051   8.606   8.269   7.916
 4839TIP3    H148052   8.558   8.189   7.948
 4839TIP3    H248053   8.692   8.258   7.960
 4840TIP3   OH248054   8.805   8.227   7.085
 4840TIP3    H148055   8.784   8.313   7.043
 4840TIP3    H248056   8.825   8.172   7.006
 4841TIP3   OH248057   7.920   8.192   7.546
 4841TIP3    H148058   7.956   8.224   7.630
 4841TIP3    H248059   7.890   8.103   7.573
 4842TIP3   OH248060   7.606   7.920   7.009
 4842TIP3    H148061   7.684   7.910   7.066
 4842TIP3    H248062   7.640   7.908   6.919
 4843TIP3   OH248063   7.734   7.958   6.533
 4843TIP3    H148064   7.764   7.950   6.442
 4843TIP3    H248065   7.694   8.047   6.534
 4844TIP3   OH248066   8.744   8.387   7.505
 4844TIP3    H148067   8.789   8.310   7.463
 4844TIP3    H248068   8.690   8.336   7.569
 4845TIP3   OH248069   8.425   7.940   7.013
 4845TIP3    H148070   8.329   7.941   7.033
 4845TIP3    H248071   8.466   7.916   7.098
 4846TIP3   OH248072   7.923   8.123   6.884
 4846TIP3    H148073   7.839   8.150   6.840
 4846TIP3    H248074   7.930   8.028   6.861
 4847TIP3   OH248075   8.237   8.104   6.647
 4847TIP3    H148076   8.334   8.120   6.646
 4847TIP3    H248077   8.206   8.156   6.570
 4848TIP3   OH248078   8.912   7.848   7.303
 4848TIP3    H148079   8.843   7.845   7.371
 4848TIP3    H248080   8.867   7.805   7.227
 4849TIP3   OH248081   8.165   8.223   6.400
 4849TIP3    H148082   8.163   8.159   6.328
 4849TIP3    H248083   8.247   8.274   6.377
 4850TIP3   OH248084   7.949   8.652   7.931
 4850TIP3    H148085   8.007   8.687   8.002
 4850TIP3    H248086   7.862   8.646   7.976
 4851TIP3   OH248087   8.514   8.219   7.167
 4851TIP3    H148088   8.600   8.185   7.138
 4851TIP3    H248089   8.476   8.142   7.212
 4852TIP3   OH248090   7.980   7.859   6.845
 4852TIP3    H148091   7.941   7.772   6.871
 4852TIP3    H248092   8.019   7.838   6.759
 4853TIP3   OH248093   8.408   8.032   7.437
 4853TIP3    H148094   8.335   8.098   7.433
 4853TIP3    H248095   8.477   8.081   7.485
 4854TIP3   OH248096   8.455   8.659   6.634
 4854TIP3    H148097   8.376   8.615   6.596
 4854TIP3    H248098   8.416   8.704   6.712
 4855TIP3   OH248099   9.194   8.617   7.509
 4855TIP3    H148100   9.236   8.686   7.453
 4855TIP3    H248101   9.109   8.605   7.464
 4856TIP3   OH248102   8.848   7.959   6.438
 4856TIP3    H148103   8.793   7.968   6.359
 4856TIP3    H248104   8.859   8.051   6.468
 4857TIP3   OH248105   8.574   8.705   7.737
 4857TIP3    H148106   8.572   8.663   7.824
 4857TIP3    H248107   8.560   8.798   7.758
 4858TIP3   OH248108   8.920   8.187   6.596
 4858TIP3    H148109   8.981   8.145   6.660
 4858TIP3    H248110   8.972   8.264   6.573
 4859TIP3   OH248111   7.976   8.646   7.166
 4859TIP3    H148112   8.049   8.621   7.107
 4859TIP3    H248113   7.979   8.574   7.230
 4860TIP3   OH248114   8.657   8.831   6.566
 4860TIP3    H148115   8.616   8.920   6.556
 4860TIP3    H248116   8.578   8.774   6.578
 4861TIP3   OH248117   7.663   8.455   7.739
 4861TIP3    H148118   7.674   8.384   7.804
 4861TIP3    H248119   7.615   8.411   7.666
 4862TIP3   OH248120   8.380   8.409   7.888
 4862TIP3    H148121   8.340   8.353   7.820
 4862TIP3    H248122   8.472   8.372   7.890
 4863TIP3   OH248123   8.809   8.996   7.723
 4863TIP3    H148124   8.720   9.033   7.708
 4863TIP3    H248125   8.815   9.000   7.820
 4864TIP3   OH248126   9.215   9.043   6.616
 4864TIP3    H148127   9.150   8.986   6.660
 4864TIP3    H248128   9.221   9.007   6.525
 4865TIP3   OH248129   8.992   8.531   7.339
 4865TIP3    H148130   8.896   8.520   7.348
 4865TIP3    H248131   9.008   8.480   7.256
 4866TIP3   OH248132   8.214   8.953   6.957
 4866TIP3    H148133   8.259   9.030   6.917
 4866TIP3    H248134   8.124   8.965   6.923
 4867TIP3   OH248135   8.344   8.743   6.864
 4867TIP3    H148136   8.297   8.827   6.889
 4867TIP3    H248137   8.311   8.681   6.931
 4868TIP3   OH248138   8.406   9.185   7.557
 4868TIP3    H148139   8.412   9.281   7.576
 4868TIP3    H248140   8.480   9.147   7.608
 4869TIP3   OH248141   8.247   9.192   6.830
 4869TIP3    H148142   8.152   9.209   6.842
 4869TIP3    H248143   8.279   9.275   6.869
 4870TIP3   OH248144   8.725   8.734   7.482
 4870TIP3    H148145   8.699   8.720   7.575
 4870TIP3    H248146   8.756   8.646   7.456
 4871TIP3   OH248147   8.979   8.866   6.423
 4871TIP3    H148148   9.011   8.819   6.503
 4871TIP3    H248149   8.884   8.853   6.435
 4872TIP3   OH248150   9.016   9.200   7.716
 4872TIP3    H148151   8.933   9.151   7.697
 4872TIP3    H248152   9.000   9.292   7.690
 4873TIP3   OH248153   7.874   7.953   7.675
 4873TIP3    H148154   7.803   7.988   7.733
 4873TIP3    H248155   7.875   7.860   7.704
 4874TIP3   OH248156   9.078   8.701   6.628
 4874TIP3    H148157   9.040   8.617   6.662
 4874TIP3    H248158   9.173   8.683   6.641
 4875TIP3   OH248159   7.833   9.115   7.513
 4875TIP3    H148160   7.884   9.033   7.526
 4875TIP3    H248161   7.865   9.172   7.585
 4876TIP3   OH248162   8.243   8.923   6.483
 4876TIP3    H148163   8.322   8.868   6.482
 4876TIP3    H248164   8.277   9.011   6.509
 4877TIP3   OH248165   8.719   7.924   7.595
 4877TIP3    H148166   8.814   7.929   7.614
 4877TIP3    H248167   8.701   7.829   7.612
 4878TIP3   OH248168   8.784   7.892   6.721
 4878TIP3    H148169   8.796   7.940   6.638
 4878TIP3    H248170   8.824   7.953   6.787
 4879TIP3   OH248171   8.567   9.078   6.521
 4879TIP3    H148172   8.480   9.120   6.538
 4879TIP3    H248173   8.577   9.100   6.425
 4880TIP3   OH248174   8.522   8.070   6.727
 4880TIP3    H148175   8.583   8.139   6.762
 4880TIP3    H248176   8.482   8.033   6.807
 4881TIP3   OH248177   8.614   8.172   7.656
 4881TIP3    H148178   8.619   8.197   7.751
 4881TIP3    H248179   8.651   8.081   7.652
 4882TIP3   OH248180   8.584   7.737   6.818
 4882TIP3    H148181   8.547   7.784   6.895
 4882TIP3    H248182   8.665   7.793   6.802
 4883TIP3   OH248183   8.312   9.180   6.563
 4883TIP3    H148184   8.305   9.262   6.512
 4883TIP3    H248185   8.263   9.200   6.646
 4884TIP3   OH248186   8.163   7.839   6.599
 4884TIP3    H148187   8.153   7.936   6.605
 4884TIP3    H248188   8.260   7.830   6.600
 4885TIP3   OH248189   9.210   7.918   7.751
 4885TIP3    H148190   9.118   7.940   7.727
 4885TIP3    H248191   9.255   7.931   7.667
 4886TIP3   OH248192   9.037   8.343   7.149
 4886TIP3    H148193   8.945   8.310   7.149
 4886TIP3    H248194   9.084   8.275   7.202
 4887TIP3   OH248195   9.251   9.198   7.340
 4887TIP3    H148196   9.211   9.246   7.265
 4887TIP3    H248197   9.281   9.274   7.392
 4888TIP3   OH248198   7.914   7.651   7.216
 4888TIP3    H148199   7.897   7.632   7.121
 4888TIP3    H248200   7.876   7.573   7.261
 4889TIP3   OH248201   7.760   9.020   6.743
 4889TIP3    H148202   7.693   9.080   6.776
 4889TIP3    H248203   7.840   9.060   6.783
 4890TIP3   OH248204   7.700   9.294   7.949
 4890TIP3    H148205   7.777   9.270   8.006
 4890TIP3    H248206   7.659   9.206   7.933
 4891TIP3   OH248207   8.213   9.148   8.140
 4891TIP3    H148208   8.300   9.108   8.156
 4891TIP3    H248209   8.199   9.126   8.046
 4892TIP3   OH248210   8.569   9.110   6.261
 4892TIP3    H148211   8.539   9.038   6.200
 4892TIP3    H248212   8.576   9.189   6.206
 4893TIP3   OH248213   8.810   9.051   8.000
 4893TIP3    H148214   8.802   8.963   8.044
 4893TIP3    H248215   8.901   9.075   8.028
 4894TIP3   OH248216   7.689   8.653   8.029
 4894TIP3    H148217   7.646   8.566   8.026
 4894TIP3    H248218   7.639   8.704   7.961
 4895TIP3   OH248219   8.358   8.664   7.954
 4895TIP3    H148220   8.340   8.727   7.881
 4895TIP3    H248221   8.367   8.577   7.908
 4896TIP3   OH248222   8.915   8.682   7.751
 4896TIP3    H148223   9.003   8.727   7.752
 4896TIP3    H248224   8.855   8.758   7.758
 4897TIP3   OH248225   7.840   8.357   7.989
 4897TIP3    H148226   7.921   8.313   8.020
 4897TIP3    H248227   7.838   8.435   8.049
 4898TIP3   OH248228   8.258   8.531   6.507
 4898TIP3    H148229   8.209   8.469   6.563
 4898TIP3    H248230   8.307   8.475   6.444
 4899TIP3   OH248231   8.174   8.305   7.679
 4899TIP3    H148232   8.123   8.384   7.698
 4899TIP3    H248233   8.246   8.341   7.624
 4900TIP3   OH248234   8.390   8.345   6.339
 4900TIP3    H148235   8.391   8.317   6.246
 4900TIP3    H248236   8.487   8.351   6.355
 4901TIP3   OH248237   8.705   8.544   8.080
 4901TIP3    H148238   8.769   8.514   8.013
 4901TIP3    H248239   8.673   8.459   8.115
 4902TIP3   OH248240   8.294   8.085   7.788
 4902TIP3    H148241   8.289   8.010   7.724
 4902TIP3    H248242   8.268   8.161   7.732
 4903TIP3   OH248243   8.272   7.864   7.589
 4903TIP3    H148244   8.317   7.917   7.519
 4903TIP3    H248245   8.178   7.866   7.561
 4904TIP3   OH248246   8.399   8.450   7.589
 4904TIP3    H148247   8.484   8.496   7.578
 4904TIP3    H248248   8.339   8.517   7.549
 4905TIP3   OH248249   8.888   8.200   8.100
 4905TIP3    H148250   8.876   8.106   8.123
 4905TIP3    H248251   8.972   8.197   8.050
 4906TIP3   OH248252   9.026   8.506   7.948
 4906TIP3    H148253   9.008   8.575   7.881
 4906TIP3    H248254   9.119   8.482   7.928
 4907TIP3   OH248255   8.092   8.130   8.018
 4907TIP3    H148256   8.012   8.087   7.980
 4907TIP3    H248257   8.151   8.132   7.941
 4908TIP3   OH248258   8.382   7.622   7.590
 4908TIP3    H148259   8.346   7.713   7.603
 4908TIP3    H248260   8.303   7.577   7.559
 4909TIP3   OH248261   8.478   8.039   8.011
 4909TIP3    H148262   8.418   8.032   8.086
 4909TIP3    H248263   8.416   8.030   7.936
 4910TIP3   OH248264   8.774   7.964   7.889
 4910TIP3    H148265   8.691   7.924   7.919
 4910TIP3    H248266   8.840   7.910   7.938
 4911TIP3   OH248267   8.938   7.815   8.052
 4911TIP3    H148268   8.914   7.721   8.067
 4911TIP3    H248269   8.904   7.858   8.134
 4912TIP3   OH248270   7.881   7.964   7.998
 4912TIP3    H148271   7.870   7.878   7.952
 4912TIP3    H248272   7.872   7.937   8.092
 4913TIP3   OH248273   8.320   7.572   7.851
 4913TIP3    H148274   8.399   7.519   7.872
 4913TIP3    H248275   8.331   7.574   7.754
 4914TIP3   OH248276   8.361   7.680   8.144
 4914TIP3    H148277   8.332   7.639   8.060
 4914TIP3    H248278   8.351   7.774   8.121
 4915TIP3   OH248279   7.691   9.216   7.063
 4915TIP3    H148280   7.604   9.207   7.105
 4915TIP3    H248281   7.745   9.242   7.141
 4916TIP3   OH248282   9.379   9.213   7.655
 4916TIP3    H148283   9.336   9.154   7.591
 4916TIP3    H248284   9.409   9.151   7.723
 4917TIP3   OH248285   9.223   8.838   8.134
 4917TIP3    H148286   9.134   8.850   8.176
 4917TIP3    H248287   9.270   8.923   8.150
 4918TIP3   OH248288   9.349   8.630   6.651
 4918TIP3    H148289   9.410   8.706   6.638
 4918TIP3    H248290   9.345   8.625   6.748
 4919TIP3   OH248291   0.023   8.764   7.369
 4919TIP3    H148292   0.083   8.692   7.338
 4919TIP3    H248293   0.053   8.839   7.313
 4920TIP3   OH248294   9.222   8.998   7.578
 4920TIP3    H148295   9.152   9.056   7.613
 4920TIP3    H248296   9.203   8.998   7.483
 4921TIP3   OH248297   9.164   8.323   6.904
 4921TIP3    H148298   9.162   8.227   6.894
 4921TIP3    H248299   9.136   8.337   6.997
 4922TIP3   OH248300   7.666   8.554   7.312
 4922TIP3    H148301   7.669   8.524   7.218
 4922TIP3    H248302   7.757   8.526   7.338
 4923TIP3   OH248303   9.300   8.499   7.902
 4923TIP3    H148304   9.310   8.402   7.914
 4923TIP3    H248305   9.337   8.513   7.812
 4924TIP3   OH248306   9.127   8.081   6.748
 4924TIP3    H148307   9.122   7.982   6.751
 4924TIP3    H248308   9.221   8.093   6.730
 4925TIP3   OH248309   9.178   8.150   7.288
 4925TIP3    H148310   9.277   8.150   7.293
 4925TIP3    H248311   9.158   8.153   7.383
 4926TIP3   OH248312   9.217   8.218   7.574
 4926TIP3    H148313   9.143   8.276   7.599
 4926TIP3    H248314   9.286   8.283   7.547
 4927TIP3   OH248315   7.663   8.066   7.886
 4927TIP3    H148316   7.740   8.034   7.937
 4927TIP3    H248317   7.598   7.994   7.905
 4928TIP3   OH248318   9.173   7.816   6.744
 4928TIP3    H148319   9.205   7.776   6.828
 4928TIP3    H248320   9.133   7.740   6.698
 4929TIP3   OH248321   7.777   7.890   7.218
 4929TIP3    H148322   7.822   7.804   7.229
 4929TIP3    H248323   7.849   7.953   7.235
 4930TIP3   OH248324   7.613   8.204   7.304
 4930TIP3    H148325   7.672   8.177   7.231
 4930TIP3    H248326   7.662   8.281   7.336
 4931TIP3   OH248327   7.593   7.823   6.739
 4931TIP3    H148328   7.513   7.798   6.693
 4931TIP3    H248329   7.652   7.835   6.663
 4932TIP3   OH248330   9.112   9.297   6.907
 4932TIP3    H148331   9.188   9.270   6.853
 4932TIP3    H248332   9.157   9.330   6.986
 4933TIP3   OH248333   7.631   7.666   7.541
 4933TIP3    H148334   7.568   7.642   7.611
 4933TIP3    H248335   7.588   7.738   7.493
 4934TIP3   OH248336   7.845   8.978   7.962
 4934TIP3    H148337   7.760   9.004   7.925
 4934TIP3    H248338   7.832   9.000   8.056
 4935TIP3   OH248339   8.149   9.104   7.602
 4935TIP3    H148340   8.125   9.197   7.590
 4935TIP3    H248341   8.247   9.110   7.598
 4936TIP3   OH248342   8.544   9.231   7.902
 4936TIP3    H148343   8.548   9.214   7.999
 4936TIP3    H248344   8.637   9.257   7.887
 4937TIP3   OH248345   9.237   7.623   7.751
 4937TIP3    H148346   9.183   7.689   7.705
 4937TIP3    H248347   9.249   7.554   7.683
 4938TIP3   OH248348   8.776   9.233   7.575
 4938TIP3    H148349   8.710   9.294   7.535
 4938TIP3    H248350   8.854   9.263   7.526
 4939TIP3   OH248351   7.828   9.260   7.290
 4939TIP3    H148352   7.812   9.221   7.379
 4939TIP3    H248353   7.906   9.205   7.259
 4940TIP3   OH248354   8.034   9.149   7.168
 4940TIP3    H148355   8.033   9.051   7.180
 4940TIP3    H248356   8.120   9.170   7.213
 4941TIP3   OH248357   8.267   9.147   7.302
 4941TIP3    H148358   8.303   9.059   7.283
 4941TIP3    H248359   8.299   9.164   7.392
 4942TIP3   OH248360   8.630   7.753   7.117
 4942TIP3    H148361   8.540   7.736   7.145
 4942TIP3    H248362   8.665   7.665   7.101
 4943TIP3   OH248363   9.159   7.563   7.159
 4943TIP3    H148364   9.207   7.626   7.100
 4943TIP3    H248365   9.067   7.592   7.140
 4944TIP3   OH248366   9.287   7.710   6.977
 4944TIP3    H148367   9.355   7.663   6.923
 4944TIP3    H248368   9.340   7.785   7.012
 4945TIP3   OH248369   7.869   7.627   6.943
 4945TIP3    H148370   7.782   7.614   6.900
 4945TIP3    H248371   7.911   7.541   6.923
 4946TIP3   OH248372   7.788   7.592   6.542
 4946TIP3    H148373   7.817   7.636   6.459
 4946TIP3    H248374   7.694   7.610   6.547
 4947TIP3   OH248375   8.336   7.548   6.931
 4947TIP3    H148376   8.379   7.613   6.875
 4947TIP3    H248377   8.346   7.587   7.019
 4948TIP3   OH248378   8.912   7.637   7.076
 4948TIP3    H148379   8.900   7.650   6.982
 4948TIP3    H248380   8.858   7.555   7.090
 4949TIP3   OH248381   9.007   7.621   6.630
 4949TIP3    H148382   8.942   7.686   6.661
 4949TIP3    H248383   8.964   7.535   6.649
 4950TIP3   OH248384   7.911   7.763   6.345
 4950TIP3    H148385   7.852   7.793   6.271
 4950TIP3    H248386   7.963   7.842   6.364
 4951TIP3   OH248387   8.442   7.832   6.606
 4951TIP3    H148388   8.500   7.792   6.673
 4951TIP3    H248389   8.473   7.925   6.614
 4952TIP3   OH248390   9.324   9.254   6.734
 4952TIP3    H148391   9.281   9.177   6.691
 4952TIP3    H248392   9.296   9.327   6.674
 4953TIP3   OH248393   7.850   7.689   7.860
 4953TIP3    H148394   7.796   7.609   7.878
 4953TIP3    H248395   7.928   7.675   7.918
 4954TIP3   OH248396   8.037   7.633   8.053
 4954TIP3    H148397   8.114   7.580   8.032
 4954TIP3    H248398   7.985   7.572   8.109
 4955TIP3   OH248399   7.959   9.273   6.370
 4955TIP3    H148400   7.922   9.344   6.424
 4955TIP3    H248401   7.970   9.314   6.282
 4956TIP3   OH248402   8.890   7.553   8.081
 4956TIP3    H148403   8.902   7.512   8.170
 4956TIP3    H248404   8.979   7.533   8.044
 4957TIP3   OH248405   9.190   9.182   7.936
 4957TIP3    H148406   9.114   9.173   7.875
 4957TIP3    H248407   9.235   9.260   7.897
 4958TIP3   OH248408   1.098   0.820   8.241
 4958TIP3    H148409   1.171   0.856   8.296
 4958TIP3    H248410   1.145   0.743   8.203
 4959TIP3   OH248411   1.332   0.890   8.364
 4959TIP3    H148412   1.354   0.921   8.454
 4959TIP3    H248413   1.396   0.941   8.308
 4960TIP3   OH248414   1.708   0.056   8.447
 4960TIP3    H148415   1.614   0.033   8.439
 4960TIP3    H248416   1.719   0.134   8.386
 4961TIP3   OH248417   1.816   1.514   8.215
 4961TIP3    H148418   1.840   1.609   8.224
 4961TIP3    H248419   1.894   1.475   8.259
 4962TIP3   OH248420   1.407   1.738   8.322
 4962TIP3    H148421   1.430   1.680   8.246
 4962TIP3    H248422   1.452   1.690   8.394
 4963TIP3   OH248423   1.515   1.038   8.244
 4963TIP3    H148424   1.478   1.063   8.158
 4963TIP3    H248425   1.609   1.027   8.218
 4964TIP3   OH248426   1.047   0.404   8.228
 4964TIP3    H148427   1.028   0.398   8.323
 4964TIP3    H248428   1.012   0.318   8.198
 4965TIP3   OH248429   0.667   0.410   8.159
 4965TIP3    H148430   0.630   0.364   8.237
 4965TIP3    H248431   0.635   0.501   8.168
 4966TIP3   OH248432   0.130   0.431   8.386
 4966TIP3    H148433   0.223   0.422   8.362
 4966TIP3    H248434   0.118   0.527   8.377
 4967TIP3   OH248435   0.615   0.705   8.289
 4967TIP3    H148436   0.546   0.679   8.225
 4967TIP3    H248437   0.684   0.738   8.228
 4968TIP3   OH248438   1.324   0.411   8.307
 4968TIP3    H148439   1.229   0.432   8.299
 4968TIP3    H248440   1.359   0.486   8.361
 4969TIP3   OH248441   1.391   0.630   8.451
 4969TIP3    H148442   1.480   0.629   8.489
 4969TIP3    H248443   1.394   0.707   8.392
 4970TIP3   OH248444   1.149   1.280   8.398
 4970TIP3    H148445   1.091   1.358   8.401
 4970TIP3    H248446   1.091   1.211   8.432
 4971TIP3   OH248447   1.874   0.641   8.440
 4971TIP3    H148448   1.834   0.582   8.374
 4971TIP3    H248449   1.868   0.727   8.393
 4972TIP3   OH248450   0.227   0.952   8.218
 4972TIP3    H148451   0.279   0.974   8.299
 4972TIP3    H248452   0.136   0.965   8.247
 4973TIP3   OH248453   1.487   1.336   8.284
 4973TIP3    H148454   1.469   1.364   8.374
 4973TIP3    H248455   1.401   1.297   8.259
 4974TIP3   OH248456   1.891   1.752   8.301
 4974TIP3    H148457   1.962   1.817   8.300
 4974TIP3    H248458   1.829   1.795   8.363
 4975TIP3   OH248459   0.894   1.432   8.108
 4975TIP3    H148460   0.853   1.367   8.050
 4975TIP3    H248461   0.852   1.408   8.194
 4976TIP3   OH248462   0.757   1.353   8.346
 4976TIP3    H148463   0.739   1.301   8.426
 4976TIP3    H248464   0.727   1.441   8.375
 4977TIP3   OH248465   0.349   1.055   8.433
 4977TIP3    H148466   0.352   1.056   8.529
 4977TIP3    H248467   0.415   1.123   8.409
 4978TIP3   OH248468   0.972   1.541   8.391
 4978TIP3    H148469   0.882   1.571   8.413
 4978TIP3    H248470   1.013   1.623   8.358
 4979TIP3   OH248471   0.709   1.603   8.461
 4979TIP3    H148472   0.709   1.657   8.379
 4979TIP3    H248473   0.719   1.673   8.526
 4980TIP3   OH248474   0.557   0.304   8.384
 4980TIP3    H148475   0.509   0.366   8.441
 4980TIP3    H248476   0.646   0.307   8.426
 4981TIP3   OH248477   0.455   1.303   8.311
 4981TIP3    H148478   0.515   1.361   8.358
 4981TIP3    H248479   0.514   1.266   8.242
 4982TIP3   OH248480   0.290   0.632   8.209
 4982TIP3    H148481   0.279   0.723   8.239
 4982TIP3    H248482   0.209   0.618   8.159
 4983TIP3   OH248483   1.070   1.632   8.127
 4983TIP3    H148484   1.015   1.550   8.125
 4983TIP3    H248485   1.151   1.599   8.082
 4984TIP3   OH248486   1.505   1.571   8.123
 4984TIP3    H148487   1.531   1.511   8.196
 4984TIP3    H248488   1.587   1.571   8.069
 4985TIP3   OH248489   0.622   1.163   8.128
 4985TIP3    H148490   0.674   1.132   8.205
 4985TIP3    H248491   0.687   1.140   8.058
 4986TIP3   OH248492   1.209   1.290   8.126
 4986TIP3    H148493   1.186   1.286   8.222
 4986TIP3    H248494   1.174   1.201   8.097
 4987TIP3   OH248495   0.726   0.986   8.340
 4987TIP3    H148496   0.705   0.923   8.410
 4987TIP3    H248497   0.746   0.923   8.268
 4988TIP3   OH248498   0.830   0.829   8.155
 4988TIP3    H148499   0.828   0.862   8.062
 4988TIP3    H248500   0.926   0.819   8.172
 4989TIP3   OH248501   1.765   1.031   8.135
 4989TIP3    H148502   1.752   0.998   8.044
 4989TIP3    H248503   1.767   1.129   8.120
 4990TIP3   OH248504   0.837   1.830   8.386
 4990TIP3    H148505   0.932   1.850   8.391
 4990TIP3    H248506   0.811   1.882   8.309
 4991TIP3   OH248507   0.194   1.332   8.316
 4991TIP3    H148508   0.289   1.310   8.303
 4991TIP3    H248509   0.155   1.309   8.231
 4992TIP3   OH248510   1.923   0.918   8.326
 4992TIP3    H148511   1.871   0.947   8.247
 4992TIP3    H248512   1.892   0.981   8.393
 4993TIP3   OH248513   1.701   0.641   8.190
 4993TIP3    H148514   1.737   0.689   8.114
 4993TIP3    H248515   1.677   0.554   8.151
 4994TIP3   OH248516   1.665   0.386   8.102
 4994TIP3    H148517   1.731   0.340   8.157
 4994TIP3    H248518   1.584   0.348   8.138
 4995TIP3   OH248519   1.835   0.256   8.297
 4995TIP3    H148520   1.867   0.201   8.221
 4995TIP3    H248521   1.920   0.293   8.329
 4996TIP3   OH248522   0.205   0.101   8.358
 4996TIP3    H148523   0.221   0.179   8.300
 4996TIP3    H248524   0.173   0.145   8.438
 4997TIP3   OH248525   0.355   0.271   8.219
 4997TIP3    H148526   0.402   0.220   8.149
 4997TIP3    H248527   0.426   0.266   8.287
 4998TIP3   OH248528   1.125   1.786   8.334
 4998TIP3    H148529   1.220   1.797   8.322
 4998TIP3    H248530   1.102   1.744   8.247
 4999TIP3   OH248531   0.349   1.742   8.186
 4999TIP3    H148532   0.330   1.760   8.280
 4999TIP3    H248533   0.426   1.683   8.194
 5000TIP3   OH248534   2.973   0.816   8.241
 5000TIP3    H148535   3.044   0.857   8.294
 5000TIP3    H248536   3.026   0.746   8.197
 5001TIP3   OH248537   3.219   0.888   8.363
 5001TIP3    H148538   3.242   0.913   8.455
 5001TIP3    H248539   3.279   0.944   8.307
 5002TIP3   OH248540   3.604   0.059   8.449
 5002TIP3    H148541   3.511   0.033   8.441
 5002TIP3    H248542   3.615   0.134   8.386
 5003TIP3   OH248543   3.707   1.510   8.207
 5003TIP3    H148544   3.726   1.605   8.222
 5003TIP3    H248545   3.780   1.472   8.259
 5004TIP3   OH248546   3.288   1.732   8.318
 5004TIP3    H148547   3.315   1.676   8.242
 5004TIP3    H248548   3.334   1.684   8.390
 5005TIP3   OH248549   3.398   1.042   8.246
 5005TIP3    H148550   3.361   1.065   8.159
 5005TIP3    H248551   3.492   1.031   8.221
 5006TIP3   OH248552   2.925   0.396   8.229
 5006TIP3    H148553   2.914   0.391   8.325
 5006TIP3    H248554   2.903   0.305   8.204
 5007TIP3   OH248555   2.542   0.406   8.160
 5007TIP3    H148556   2.509   0.360   8.240
 5007TIP3    H248557   2.507   0.496   8.171
 5008TIP3   OH248558   2.022   0.411   8.395
 5008TIP3    H148559   2.109   0.435   8.360
 5008TIP3    H248560   1.989   0.498   8.425
 5009TIP3   OH248561   2.508   0.701   8.294
 5009TIP3    H148562   2.429   0.701   8.237
 5009TIP3    H248563   2.578   0.732   8.233
 5010TIP3   OH248564   3.220   0.426   8.290
 5010TIP3    H148565   3.122   0.436   8.293
 5010TIP3    H248566   3.250   0.485   8.362
 5011TIP3   OH248567   3.275   0.637   8.453
 5011TIP3    H148568   3.372   0.632   8.456
 5011TIP3    H248569   3.260   0.712   8.393
 5012TIP3   OH248570   3.018   1.279   8.395
 5012TIP3    H148571   2.965   1.361   8.402
 5012TIP3    H248572   2.953   1.210   8.416
 5013TIP3   OH248573   3.762   0.646   8.443
 5013TIP3    H148574   3.728   0.583   8.377
 5013TIP3    H248575   3.753   0.730   8.394
 5014TIP3   OH248576   2.193   0.928   8.247
 5014TIP3    H148577   2.218   1.009   8.297
 5014TIP3    H248578   2.099   0.921   8.275
 5015TIP3   OH248579   3.370   1.339   8.285
 5015TIP3    H148580   3.363   1.358   8.380
 5015TIP3    H248581   3.279   1.309   8.267
 5016TIP3   OH248582   3.777   1.745   8.305
 5016TIP3    H148583   3.847   1.812   8.302
 5016TIP3    H248584   3.714   1.789   8.365
 5017TIP3   OH248585   2.759   1.424   8.113
 5017TIP3    H148586   2.721   1.372   8.040
 5017TIP3    H248587   2.711   1.384   8.189
 5018TIP3   OH248588   2.621   1.357   8.359
 5018TIP3    H148589   2.657   1.316   8.440
 5018TIP3    H248590   2.603   1.448   8.392
 5019TIP3   OH248591   2.255   1.110   8.428
 5019TIP3    H148592   2.243   1.033   8.486
 5019TIP3    H248593   2.352   1.124   8.437
 5020TIP3   OH248594   2.864   1.526   8.395
 5020TIP3    H148595   2.770   1.549   8.406
 5020TIP3    H248596   2.896   1.605   8.349
 5021TIP3   OH248597   2.596   1.602   8.467
 5021TIP3    H148598   2.592   1.673   8.399
 5021TIP3    H248599   2.615   1.655   8.546
 5022TIP3   OH248600   2.426   0.307   8.385
 5022TIP3    H148601   2.427   0.391   8.435
 5022TIP3    H248602   2.505   0.269   8.429
 5023TIP3   OH248603   2.307   1.374   8.282
 5023TIP3    H148604   2.379   1.411   8.335
 5023TIP3    H248605   2.354   1.300   8.241
 5024TIP3   OH248606   2.148   0.640   8.248
 5024TIP3    H148607   2.170   0.735   8.258
 5024TIP3    H248608   2.066   0.643   8.198
 5025TIP3   OH248609   2.948   1.626   8.127
 5025TIP3    H148610   2.894   1.544   8.123
 5025TIP3    H248611   3.031   1.595   8.083
 5026TIP3   OH248612   3.391   1.570   8.123
 5026TIP3    H148613   3.408   1.503   8.192
 5026TIP3    H248614   3.474   1.565   8.071
 5027TIP3   OH248615   2.504   1.139   8.116
 5027TIP3    H148616   2.549   1.112   8.198
 5027TIP3    H248617   2.576   1.129   8.050
 5028TIP3   OH248618   3.091   1.289   8.124
 5028TIP3    H148619   3.070   1.282   8.220
 5028TIP3    H248620   3.060   1.201   8.092
 5029TIP3   OH248621   2.629   0.976   8.344
 5029TIP3    H148622   2.582   0.910   8.397
 5029TIP3    H248623   2.669   0.917   8.274
 5030TIP3   OH248624   2.718   0.818   8.154
 5030TIP3    H148625   2.716   0.856   8.063
 5030TIP3    H248626   2.815   0.808   8.168
 5031TIP3   OH248627   3.651   1.027   8.146
 5031TIP3    H148628   3.638   0.996   8.054
 5031TIP3    H248629   3.655   1.126   8.133
 5032TIP3   OH248630   2.717   1.830   8.374
 5032TIP3    H148631   2.814   1.823   8.359
 5032TIP3    H248632   2.692   1.893   8.304
 5033TIP3   OH248633   2.032   1.324   8.267
 5033TIP3    H148634   2.129   1.336   8.272
 5033TIP3    H248635   2.027   1.257   8.195
 5034TIP3   OH248636   3.813   0.917   8.329
 5034TIP3    H148637   3.759   0.948   8.253
 5034TIP3    H248638   3.781   0.976   8.400
 5035TIP3   OH248639   3.585   0.647   8.189
 5035TIP3    H148640   3.624   0.689   8.111
 5035TIP3    H248641   3.563   0.557   8.155
 5036TIP3   OH248642   3.553   0.385   8.117
 5036TIP3    H148643   3.616   0.340   8.177
 5036TIP3    H248644   3.468   0.349   8.146
 5037TIP3   OH248645   3.723   0.255   8.300
 5037TIP3    H148646   3.751   0.197   8.225
 5037TIP3    H248647   3.810   0.291   8.330
 5038TIP3   OH248648   2.097   0.084   8.391
 5038TIP3    H148649   2.138   0.149   8.330
 5038TIP3    H248650   2.095   0.136   8.473
 5039TIP3   OH248651   2.233   0.222   8.210
 5039TIP3    H148652   2.287   0.187   8.135
 5039TIP3    H248653   2.308   0.236   8.272
 5040TIP3   OH248654   2.982   1.791   8.327
 5040TIP3    H148655   3.074   1.819   8.317
 5040TIP3    H248656   2.971   1.742   8.241
 5041TIP3   OH248657   2.203   1.762   8.162
 5041TIP3    H148658   2.180   1.813   8.242
 5041TIP3    H248659   2.272   1.704   8.195
 5042TIP3   OH248660   4.864   0.813   8.241
 5042TIP3    H148661   4.937   0.858   8.288
 5042TIP3    H248662   4.914   0.736   8.209
 5043TIP3   OH248663   5.104   0.889   8.357
 5043TIP3    H148664   5.122   0.918   8.448
 5043TIP3    H248665   5.167   0.943   8.303
 5044TIP3   OH248666   5.485   0.055   8.452
 5044TIP3    H148667   5.392   0.030   8.451
 5044TIP3    H248668   5.494   0.129   8.388
 5045TIP3   OH248669   5.594   1.498   8.216
 5045TIP3    H148670   5.614   1.592   8.234
 5045TIP3    H248671   5.675   1.457   8.252
 5046TIP3   OH248672   5.176   1.737   8.315
 5046TIP3    H148673   5.204   1.681   8.239
 5046TIP3    H248674   5.218   1.687   8.387
 5047TIP3   OH248675   5.284   1.044   8.244
 5047TIP3    H148676   5.246   1.067   8.157
 5047TIP3    H248677   5.378   1.029   8.218
 5048TIP3   OH248678   4.815   0.400   8.228
 5048TIP3    H148679   4.800   0.394   8.323
 5048TIP3    H248680   4.788   0.311   8.200
 5049TIP3   OH248681   4.434   0.403   8.162
 5049TIP3    H148682   4.396   0.354   8.238
 5049TIP3    H248683   4.391   0.490   8.167
 5050TIP3   OH248684   3.917   0.402   8.401
 5050TIP3    H148685   4.004   0.416   8.361
 5050TIP3    H248686   3.896   0.493   8.428
 5051TIP3   OH248687   4.391   0.697   8.295
 5051TIP3    H148688   4.313   0.700   8.238
 5051TIP3    H248689   4.461   0.727   8.233
 5052TIP3   OH248690   5.107   0.426   8.293
 5052TIP3    H148691   5.009   0.435   8.290
 5052TIP3    H248692   5.133   0.486   8.366
 5053TIP3   OH248693   5.159   0.639   8.455
 5053TIP3    H148694   5.256   0.635   8.457
 5053TIP3    H248695   5.143   0.710   8.390
 5054TIP3   OH248696   4.911   1.271   8.405
 5054TIP3    H148697   4.860   1.354   8.408
 5054TIP3    H248698   4.842   1.205   8.421
 5055TIP3   OH248699   5.650   0.647   8.437
 5055TIP3    H148700   5.608   0.584   8.375
 5055TIP3    H248701   5.640   0.731   8.388
 5056TIP3   OH248702   4.077   0.926   8.245
 5056TIP3    H148703   4.106   1.005   8.297
 5056TIP3    H248704   3.985   0.917   8.278
 5057TIP3   OH248705   5.255   1.342   8.285
 5057TIP3    H148706   5.250   1.362   8.379
 5057TIP3    H248707   5.164   1.311   8.268
 5058TIP3   OH248708   5.653   1.744   8.297
 5058TIP3    H148709   5.725   1.808   8.302
 5058TIP3    H248710   5.588   1.787   8.356
 5059TIP3   OH248711   4.637   1.426   8.114
 5059TIP3    H148712   4.602   1.379   8.037
 5059TIP3    H248713   4.591   1.377   8.187
 5060TIP3   OH248714   4.509   1.352   8.355
 5060TIP3    H148715   4.552   1.313   8.434
 5060TIP3    H248716   4.492   1.443   8.388
 5061TIP3   OH248717   4.144   1.109   8.418
 5061TIP3    H148718   4.128   1.036   8.482
 5061TIP3    H248719   4.238   1.124   8.433
 5062TIP3   OH248720   4.759   1.512   8.407
 5062TIP3    H148721   4.666   1.541   8.407
 5062TIP3    H248722   4.801   1.583   8.355
 5063TIP3   OH248723   4.490   1.596   8.464
 5063TIP3    H148724   4.480   1.664   8.394
 5063TIP3    H248725   4.509   1.654   8.539
 5064TIP3   OH248726   4.317   0.298   8.387
 5064TIP3    H148727   4.314   0.383   8.434
 5064TIP3    H248728   4.400   0.266   8.426
 5065TIP3   OH248729   4.197   1.369   8.277
 5065TIP3    H148730   4.266   1.400   8.337
 5065TIP3    H248731   4.243   1.296   8.235
 5066TIP3   OH248732   4.034   0.637   8.249
 5066TIP3    H148733   4.071   0.726   8.254
 5066TIP3    H248734   3.956   0.650   8.194
 5067TIP3   OH248735   4.836   1.623   8.130
 5067TIP3    H148736   4.778   1.545   8.119
 5067TIP3    H248737   4.917   1.594   8.083
 5068TIP3   OH248738   5.280   1.571   8.123
 5068TIP3    H148739   5.299   1.510   8.197
 5068TIP3    H248740   5.363   1.563   8.071
 5069TIP3   OH248741   4.391   1.157   8.123
 5069TIP3    H148742   4.429   1.131   8.209
 5069TIP3    H248743   4.465   1.138   8.061
 5070TIP3   OH248744   4.975   1.291   8.126
 5070TIP3    H148745   4.953   1.284   8.221
 5070TIP3    H248746   4.944   1.202   8.095
 5071TIP3   OH248747   4.512   0.979   8.346
 5071TIP3    H148748   4.450   0.916   8.388
 5071TIP3    H248749   4.551   0.923   8.275
 5072TIP3   OH248750   4.605   0.820   8.159
 5072TIP3    H148751   4.602   0.858   8.069
 5072TIP3    H248752   4.702   0.804   8.171
 5073TIP3   OH248753   5.534   1.027   8.141
 5073TIP3    H148754   5.523   0.999   8.047
 5073TIP3    H248755   5.538   1.126   8.129
 5074TIP3   OH248756   4.598   1.832   8.379
 5074TIP3    H148757   4.694   1.822   8.360
 5074TIP3    H248758   4.572   1.893   8.308
 5075TIP3   OH248759   3.921   1.326   8.269
 5075TIP3    H148760   4.018   1.333   8.275
 5075TIP3    H248761   3.912   1.263   8.195
 5076TIP3   OH248762   5.694   0.917   8.330
 5076TIP3    H148763   5.641   0.944   8.252
 5076TIP3    H248764   5.666   0.985   8.394
 5077TIP3   OH248765   5.464   0.633   8.190
 5077TIP3    H148766   5.506   0.678   8.115
 5077TIP3    H248767   5.441   0.546   8.151
 5078TIP3   OH248768   5.426   0.383   8.097
 5078TIP3    H148769   5.497   0.342   8.148
 5078TIP3    H248770   5.347   0.351   8.143
 5079TIP3   OH248771   5.605   0.253   8.300
 5079TIP3    H148772   5.635   0.196   8.225
 5079TIP3    H248773   5.690   0.291   8.332
 5080TIP3   OH248774   3.985   0.091   8.380
 5080TIP3    H148775   4.006   0.152   8.306
 5080TIP3    H248776   3.988   0.154   8.453
 5081TIP3   OH248777   4.126   0.230   8.204
 5081TIP3    H148778   4.177   0.189   8.131
 5081TIP3    H248779   4.198   0.231   8.271
 5082TIP3   OH248780   4.866   1.792   8.327
 5082TIP3    H148781   4.956   1.825   8.313
 5082TIP3    H248782   4.856   1.738   8.245
 5083TIP3   OH248783   4.102   1.760   8.169
 5083TIP3    H148784   4.086   1.810   8.252
 5083TIP3    H248785   4.172   1.698   8.196
 5084TIP3   OH248786   6.752   0.810   8.236
 5084TIP3    H148787   6.822   0.852   8.291
 5084TIP3    H248788   6.803   0.732   8.206
 5085TIP3   OH248789   6.986   0.889   8.365
 5085TIP3    H148790   7.007   0.918   8.455
 5085TIP3    H248791   7.047   0.941   8.308
 5086TIP3   OH248792   7.372   0.058   8.453
 5086TIP3    H148793   7.279   0.032   8.446
 5086TIP3    H248794   7.383   0.133   8.390
 5087TIP3   OH248795   7.482   1.507   8.211
 5087TIP3    H148796   7.500   1.600   8.231
 5087TIP3    H248797   7.558   1.467   8.258
 5088TIP3   OH248798   7.068   1.739   8.320
 5088TIP3    H148799   7.095   1.681   8.245
 5088TIP3    H248800   7.107   1.687   8.394
 5089TIP3   OH248801   7.167   1.042   8.245
 5089TIP3    H148802   7.131   1.060   8.157
 5089TIP3    H248803   7.261   1.031   8.222
 5090TIP3   OH248804   6.705   0.397   8.226
 5090TIP3    H148805   6.688   0.393   8.322
 5090TIP3    H248806   6.679   0.307   8.201
 5091TIP3   OH248807   6.318   0.400   8.149
 5091TIP3    H148808   6.277   0.360   8.228
 5091TIP3    H248809   6.279   0.489   8.145
 5092TIP3   OH248810   5.797   0.408   8.400
 5092TIP3    H148811   5.887   0.425   8.365
 5092TIP3    H248812   5.772   0.498   8.429
 5093TIP3   OH248813   6.276   0.703   8.293
 5093TIP3    H148814   6.198   0.699   8.236
 5093TIP3    H248815   6.344   0.734   8.229
 5094TIP3   OH248816   6.995   0.419   8.295
 5094TIP3    H148817   6.899   0.436   8.300
 5094TIP3    H248818   7.028   0.472   8.371
 5095TIP3   OH248819   7.049   0.635   8.460
 5095TIP3    H148820   7.146   0.631   8.460
 5095TIP3    H248821   7.033   0.704   8.394
 5096TIP3   OH248822   6.789   1.291   8.398
 5096TIP3    H148823   6.733   1.370   8.407
 5096TIP3    H248824   6.728   1.220   8.421
 5097TIP3   OH248825   7.532   0.641   8.443
 5097TIP3    H148826   7.483   0.583   8.382
 5097TIP3    H248827   7.531   0.724   8.392
 5098TIP3   OH248828   5.960   0.929   8.249
 5098TIP3    H148829   5.989   1.010   8.297
 5098TIP3    H248830   5.868   0.922   8.282
 5099TIP3   OH248831   7.143   1.328   8.295
 5099TIP3    H148832   7.121   1.356   8.385
 5099TIP3    H248833   7.059   1.289   8.265
 5100TIP3   OH248834   7.545   1.745   8.313
 5100TIP3    H148835   7.618   1.808   8.314
 5100TIP3    H248836   7.479   1.795   8.365
 5101TIP3   OH248837   6.519   1.420   8.120
 5101TIP3    H148838   6.481   1.373   8.044
 5101TIP3    H248839   6.474   1.375   8.195
 5102TIP3   OH248840   6.388   1.356   8.363
 5102TIP3    H148841   6.424   1.318   8.444
 5102TIP3    H248842   6.376   1.450   8.392
 5103TIP3   OH248843   6.030   1.109   8.424
 5103TIP3    H148844   6.012   1.036   8.486
 5103TIP3    H248845   6.126   1.122   8.439
 5104TIP3   OH248846   6.631   1.534   8.401
 5104TIP3    H148847   6.540   1.567   8.410
 5104TIP3    H248848   6.671   1.607   8.351
 5105TIP3   OH248849   6.367   1.602   8.468
 5105TIP3    H148850   6.360   1.673   8.401
 5105TIP3    H248851   6.388   1.653   8.547
 5106TIP3   OH248852   6.205   0.312   8.377
 5106TIP3    H148853   6.209   0.399   8.421
 5106TIP3    H248854   6.283   0.273   8.421
 5107TIP3   OH248855   6.083   1.368   8.273
 5107TIP3    H148856   6.143   1.391   8.346
 5107TIP3    H248857   6.141   1.308   8.224
 5108TIP3   OH248858   5.916   0.642   8.246
 5108TIP3    H148859   5.945   0.735   8.256
 5108TIP3    H248860   5.827   0.652   8.209
 5109TIP3   OH248861   6.720   1.621   8.129
 5109TIP3    H148862   6.662   1.541   8.126
 5109TIP3    H248863   6.801   1.586   8.086
 5110TIP3   OH248864   7.164   1.572   8.128
 5110TIP3    H148865   7.187   1.512   8.202
 5110TIP3    H248866   7.246   1.564   8.074
 5111TIP3   OH248867   6.271   1.144   8.120
 5111TIP3    H148868   6.304   1.103   8.202
 5111TIP3    H248869   6.348   1.132   8.060
 5112TIP3   OH248870   6.868   1.288   8.129
 5112TIP3    H148871   6.840   1.287   8.223
 5112TIP3    H248872   6.833   1.200   8.099
 5113TIP3   OH248873   6.396   0.984   8.344
 5113TIP3    H148874   6.359   0.916   8.404
 5113TIP3    H248875   6.434   0.927   8.273
 5114TIP3   OH248876   6.493   0.822   8.160
 5114TIP3    H148877   6.494   0.858   8.069
 5114TIP3    H248878   6.589   0.808   8.174
 5115TIP3   OH248879   7.418   1.028   8.139
 5115TIP3    H148880   7.408   0.995   8.047
 5115TIP3    H248881   7.421   1.126   8.124
 5116TIP3   OH248882   6.487   1.829   8.371
 5116TIP3    H148883   6.581   1.820   8.348
 5116TIP3    H248884   6.459   1.893   8.302
 5117TIP3   OH248885   5.807   1.321   8.269
 5117TIP3    H148886   5.905   1.330   8.273
 5117TIP3    H248887   5.798   1.259   8.195
 5118TIP3   OH248888   7.583   0.911   8.329
 5118TIP3    H148889   7.531   0.943   8.252
 5118TIP3    H248890   7.556   0.976   8.397
 5119TIP3   OH248891   7.355   0.650   8.198
 5119TIP3    H148892   7.395   0.687   8.118
 5119TIP3    H248893   7.330   0.559   8.168
 5120TIP3   OH248894   7.320   0.388   8.119
 5120TIP3    H148895   7.384   0.340   8.176
 5120TIP3    H248896   7.237   0.349   8.149
 5121TIP3   OH248897   7.490   0.252   8.306
 5121TIP3    H148898   7.524   0.193   8.234
 5121TIP3    H248899   7.574   0.295   8.334
 5122TIP3   OH248900   5.865   0.087   8.384
 5122TIP3    H148901   5.880   0.153   8.312
 5122TIP3    H248902   5.874   0.146   8.461
 5123TIP3   OH248903   5.999   0.237   8.205
 5123TIP3    H148904   6.049   0.196   8.131
 5123TIP3    H248905   6.075   0.240   8.267
 5124TIP3   OH248906   6.762   1.783   8.328
 5124TIP3    H148907   6.850   1.819   8.313
 5124TIP3    H248908   6.750   1.734   8.244
 5125TIP3   OH248909   5.997   1.774   8.169
 5125TIP3    H148910   5.968   1.819   8.252
 5125TIP3    H248911   6.059   1.708   8.203
 5126TIP3   OH248912   8.638   0.774   8.220
 5126TIP3    H148913   8.701   0.808   8.286
 5126TIP3    H248914   8.659   0.679   8.220
 5127TIP3   OH248915   8.856   0.890   8.377
 5127TIP3    H148916   8.862   0.965   8.439
 5127TIP3    H248917   8.906   0.928   8.299
 5128TIP3   OH248918   9.198   0.059   8.464
 5128TIP3    H148919   9.108   0.029   8.448
 5128TIP3    H248920   9.215   0.118   8.388
 5129TIP3   OH248921   0.003   1.508   8.190
 5129TIP3    H148922   0.000   1.601   8.163
 5129TIP3    H248923   0.071   1.508   8.261
 5130TIP3   OH248924   8.972   1.784   8.306
 5130TIP3    H148925   9.000   1.701   8.263
 5130TIP3    H248926   8.963   1.758   8.398
 5131TIP3   OH248927   9.013   1.015   8.212
 5131TIP3    H148928   9.000   0.999   8.116
 5131TIP3    H248929   9.109   1.032   8.216
 5132TIP3   OH248930   8.584   0.381   8.229
 5132TIP3    H148931   8.568   0.371   8.324
 5132TIP3    H248932   8.529   0.312   8.190
 5133TIP3   OH248933   8.203   0.398   8.159
 5133TIP3    H148934   8.159   0.356   8.236
 5133TIP3    H248935   8.163   0.487   8.158
 5134TIP3   OH248936   7.679   0.413   8.398
 5134TIP3    H148937   7.764   0.434   8.357
 5134TIP3    H248938   7.650   0.503   8.425
 5135TIP3   OH248939   8.176   0.714   8.292
 5135TIP3    H148940   8.106   0.703   8.226
 5135TIP3    H248941   8.251   0.737   8.233
 5136TIP3   OH248942   8.851   0.434   8.267
 5136TIP3    H148943   8.754   0.421   8.260
 5136TIP3    H248944   8.859   0.482   8.351
 5137TIP3   OH248945   8.901   0.633   8.441
 5137TIP3    H148946   8.983   0.612   8.394
 5137TIP3    H248947   8.888   0.727   8.415
 5138TIP3   OH248948   8.664   1.291   8.401
 5138TIP3    H148949   8.613   1.374   8.408
 5138TIP3    H248950   8.598   1.224   8.419
 5139TIP3   OH248951   7.848   0.920   8.242
 5139TIP3    H148952   7.877   0.995   8.299
 5139TIP3    H248953   7.755   0.912   8.273
 5140TIP3   OH248954   9.028   1.361   8.306
 5140TIP3    H148955   9.036   1.331   8.397
 5140TIP3    H248956   8.931   1.369   8.297
 5141TIP3   OH248957   8.408   1.428   8.111
 5141TIP3    H148958   8.366   1.375   8.041
 5141TIP3    H248959   8.364   1.391   8.191
 5142TIP3   OH248960   8.274   1.364   8.357
 5142TIP3    H148961   8.304   1.308   8.431
 5142TIP3    H248962   8.268   1.451   8.401
 5143TIP3   OH248963   7.924   1.102   8.408
 5143TIP3    H148964   7.925   1.040   8.483
 5143TIP3    H248965   8.016   1.133   8.405
 5144TIP3   OH248966   8.511   1.529   8.400
 5144TIP3    H148967   8.425   1.571   8.419
 5144TIP3    H248968   8.546   1.588   8.332
 5145TIP3   OH248969   8.247   1.608   8.477
 5145TIP3    H148970   8.233   1.677   8.409
 5145TIP3    H248971   8.269   1.664   8.553
 5146TIP3   OH248972   8.082   0.306   8.386
 5146TIP3    H148973   8.071   0.386   8.442
 5146TIP3    H248974   8.167   0.277   8.424
 5147TIP3   OH248975   7.969   1.367   8.271
 5147TIP3    H148976   8.028   1.405   8.337
 5147TIP3    H248977   8.028   1.301   8.233
 5148TIP3   OH248978   7.800   0.638   8.249
 5148TIP3    H148979   7.828   0.732   8.255
 5148TIP3    H248980   7.719   0.643   8.197
 5149TIP3   OH248981   8.605   1.627   8.139
 5149TIP3    H148982   8.549   1.547   8.124
 5149TIP3    H248983   8.685   1.599   8.090
 5150TIP3   OH248984   9.048   1.573   8.131
 5150TIP3    H148985   9.065   1.502   8.198
 5150TIP3    H248986   9.127   1.564   8.073
 5151TIP3   OH248987   8.155   1.140   8.112
 5151TIP3    H148988   8.177   1.085   8.189
 5151TIP3    H248989   8.234   1.127   8.054
 5152TIP3   OH248990   8.748   1.298   8.134
 5152TIP3    H148991   8.734   1.282   8.230
 5152TIP3    H248992   8.718   1.212   8.098
 5153TIP3   OH248993   8.267   0.985   8.323
 5153TIP3    H148994   8.202   0.918   8.352
 5153TIP3    H248995   8.316   0.933   8.256
 5154TIP3   OH248996   8.387   0.821   8.151
 5154TIP3    H148997   8.377   0.846   8.056
 5154TIP3    H248998   8.486   0.813   8.155
 5155TIP3   OH248999   9.286   1.027   8.206
 5155TIP3    H149000   9.278   0.983   8.119
 5155TIP3    H249001   9.276   1.122   8.176
 5156TIP3   OH249002   8.373   1.835   8.377
 5156TIP3    H149003   8.469   1.828   8.358
 5156TIP3    H249004   8.347   1.898   8.306
 5157TIP3   OH249005   7.691   1.322   8.270
 5157TIP3    H149006   7.789   1.329   8.272
 5157TIP3    H249007   7.680   1.258   8.197
 5158TIP3   OH249008   9.305   0.658   8.262
 5158TIP3    H149009   9.267   0.712   8.192
 5158TIP3    H249010   9.260   0.574   8.242
 5159TIP3   OH249011   9.174   0.446   8.110
 5159TIP3    H149012   9.220   0.371   8.150
 5159TIP3    H249013   9.105   0.398   8.059
 5160TIP3   OH249014   7.750   0.084   8.394
 5160TIP3    H149015   7.777   0.149   8.325
 5160TIP3    H249016   7.758   0.139   8.473
 5161TIP3   OH249017   7.889   0.222   8.206
 5161TIP3    H149018   7.942   0.178   8.135
 5161TIP3    H249019   7.961   0.235   8.271
 5162TIP3   OH249020   8.634   1.799   8.331
 5162TIP3    H149021   8.717   1.844   8.310
 5162TIP3    H249022   8.626   1.743   8.250
 5163TIP3   OH249023   7.869   1.765   8.166
 5163TIP3    H149024   7.846   1.807   8.251
 5163TIP3    H249025   7.933   1.697   8.194
 5164TIP3   OH249026   1.092   2.705   8.261
 5164TIP3    H149027   1.168   2.730   8.319
 5164TIP3    H249028   1.138   2.636   8.209
 5165TIP3   OH249029   1.344   2.768   8.361
 5165TIP3    H149030   1.323   2.819   8.441
 5165TIP3    H249031   1.405   2.827   8.311
 5166TIP3   OH249032   1.717   1.937   8.439
 5166TIP3    H149033   1.645   1.924   8.376
 5166TIP3    H249034   1.763   2.015   8.400
 5167TIP3   OH249035   1.819   3.392   8.211
 5167TIP3    H149036   1.839   3.486   8.230
 5167TIP3    H249037   1.896   3.352   8.256
 5168TIP3   OH249038   1.407   3.624   8.314
 5168TIP3    H149039   1.430   3.562   8.241
 5168TIP3    H249040   1.449   3.578   8.389
 5169TIP3   OH249041   1.515   2.926   8.241
 5169TIP3    H149042   1.482   2.939   8.149
 5169TIP3    H249043   1.611   2.919   8.221
 5170TIP3   OH249044   1.073   2.236   8.287
 5170TIP3    H149045   0.995   2.267   8.334
 5170TIP3    H249046   1.038   2.170   8.226
 5171TIP3   OH249047   0.713   2.277   8.146
 5171TIP3    H149048   0.654   2.247   8.219
 5171TIP3    H249049   0.659   2.345   8.101
 5172TIP3   OH249050   0.147   2.295   8.385
 5172TIP3    H149051   0.240   2.311   8.364
 5172TIP3    H249052   0.112   2.385   8.397
 5173TIP3   OH249053   0.621   2.556   8.304
 5173TIP3    H149054   0.571   2.513   8.231
 5173TIP3    H249055   0.687   2.605   8.251
 5174TIP3   OH249056   1.320   2.348   8.256
 5174TIP3    H149057   1.229   2.327   8.286
 5174TIP3    H249058   1.357   2.388   8.338
 5175TIP3   OH249059   1.392   2.520   8.443
 5175TIP3    H149060   1.477   2.528   8.488
 5175TIP3    H249061   1.388   2.604   8.391
 5176TIP3   OH249062   1.141   3.163   8.384
 5176TIP3    H149063   1.089   3.245   8.391
 5176TIP3    H249064   1.084   3.100   8.430
 5177TIP3   OH249065   1.893   2.523   8.430
 5177TIP3    H149066   1.846   2.475   8.359
 5177TIP3    H249067   1.897   2.612   8.389
 5178TIP3   OH249068   0.223   2.832   8.220
 5178TIP3    H149069   0.269   2.854   8.304
 5178TIP3    H249070   0.130   2.849   8.243
 5179TIP3   OH249071   1.493   3.214   8.285
 5179TIP3    H149072   1.480   3.243   8.377
 5179TIP3    H249073   1.403   3.188   8.261
 5180TIP3   OH249074   1.878   3.638   8.287
 5180TIP3    H149075   1.959   3.687   8.305
 5180TIP3    H249076   1.815   3.694   8.335
 5181TIP3   OH249077   0.880   3.325   8.110
 5181TIP3    H149078   0.843   3.259   8.050
 5181TIP3    H249079   0.845   3.290   8.196
 5182TIP3   OH249080   0.754   3.252   8.349
 5182TIP3    H149081   0.731   3.184   8.414
 5182TIP3    H249082   0.732   3.332   8.401
 5183TIP3   OH249083   0.345   2.946   8.438
 5183TIP3    H149084   0.346   2.960   8.534
 5183TIP3    H249085   0.406   3.015   8.405
 5184TIP3   OH249086   0.963   3.439   8.391
 5184TIP3    H149087   0.877   3.473   8.421
 5184TIP3    H249088   1.004   3.519   8.354
 5185TIP3   OH249089   0.695   3.496   8.483
 5185TIP3    H149090   0.700   3.560   8.410
 5185TIP3    H249091   0.693   3.559   8.557
 5186TIP3   OH249092   0.587   2.184   8.369
 5186TIP3    H149093   0.563   2.253   8.431
 5186TIP3    H249094   0.681   2.175   8.395
 5187TIP3   OH249095   0.455   3.183   8.307
 5187TIP3    H149096   0.512   3.246   8.355
 5187TIP3    H249097   0.516   3.155   8.235
 5188TIP3   OH249098   0.311   2.529   8.203
 5188TIP3    H149099   0.301   2.614   8.250
 5188TIP3    H249100   0.218   2.503   8.193
 5189TIP3   OH249101   1.075   3.520   8.122
 5189TIP3    H149102   1.015   3.441   8.121
 5189TIP3    H249103   1.153   3.484   8.074
 5190TIP3   OH249104   1.501   3.449   8.121
 5190TIP3    H149105   1.527   3.382   8.187
 5190TIP3    H249106   1.585   3.458   8.070
 5191TIP3   OH249107   0.615   3.039   8.119
 5191TIP3    H149108   0.639   2.980   8.193
 5191TIP3    H249109   0.694   3.030   8.062
 5192TIP3   OH249110   1.212   3.179   8.121
 5192TIP3    H149111   1.185   3.169   8.215
 5192TIP3    H249112   1.183   3.091   8.086
 5193TIP3   OH249113   0.715   2.867   8.341
 5193TIP3    H149114   0.711   2.806   8.416
 5193TIP3    H249115   0.737   2.803   8.269
 5194TIP3   OH249116   0.822   2.701   8.167
 5194TIP3    H149117   0.814   2.703   8.069
 5194TIP3    H249118   0.919   2.695   8.179
 5195TIP3   OH249119   1.773   2.908   8.138
 5195TIP3    H149120   1.756   2.882   8.044
 5195TIP3    H249121   1.775   3.007   8.129
 5196TIP3   OH249122   0.830   3.717   8.383
 5196TIP3    H149123   0.925   3.740   8.389
 5196TIP3    H249124   0.806   3.768   8.304
 5197TIP3   OH249125   0.190   3.210   8.313
 5197TIP3    H149126   0.286   3.198   8.293
 5197TIP3    H249127   0.150   3.196   8.226
 5198TIP3   OH249128   1.926   2.797   8.329
 5198TIP3    H149129   1.875   2.825   8.250
 5198TIP3    H249130   1.901   2.865   8.394
 5199TIP3   OH249131   1.723   2.531   8.188
 5199TIP3    H149132   1.749   2.584   8.111
 5199TIP3    H249133   1.693   2.448   8.148
 5200TIP3   OH249134   1.658   2.257   8.154
 5200TIP3    H149135   1.720   2.209   8.215
 5200TIP3    H249136   1.582   2.267   8.212
 5201TIP3   OH249137   1.859   2.123   8.296
 5201TIP3    H149138   1.889   2.066   8.221
 5201TIP3    H249139   1.942   2.171   8.319
 5202TIP3   OH249140   0.254   1.996   8.374
 5202TIP3    H149141   0.256   2.066   8.306
 5202TIP3    H249142   0.260   2.051   8.454
 5203TIP3   OH249143   0.372   2.171   8.216
 5203TIP3    H149144   0.421   2.109   8.158
 5203TIP3    H249145   0.434   2.170   8.292
 5204TIP3   OH249146   1.117   3.670   8.334
 5204TIP3    H149147   1.207   3.697   8.315
 5204TIP3    H249148   1.099   3.626   8.247
 5205TIP3   OH249149   0.349   3.630   8.190
 5205TIP3    H149150   0.326   3.652   8.282
 5205TIP3    H249151   0.428   3.575   8.203
 5206TIP3   OH249152   2.976   2.706   8.255
 5206TIP3    H149153   3.045   2.745   8.310
 5206TIP3    H249154   3.030   2.638   8.210
 5207TIP3   OH249155   3.229   2.770   8.365
 5207TIP3    H149156   3.237   2.810   8.454
 5207TIP3    H249157   3.291   2.825   8.309
 5208TIP3   OH249158   3.599   1.935   8.442
 5208TIP3    H149159   3.517   1.922   8.394
 5208TIP3    H249160   3.645   2.005   8.390
 5209TIP3   OH249161   3.706   3.383   8.215
 5209TIP3    H149162   3.729   3.477   8.231
 5209TIP3    H249163   3.782   3.341   8.258
 5210TIP3   OH249164   3.292   3.620   8.316
 5210TIP3    H149165   3.322   3.561   8.243
 5210TIP3    H249166   3.335   3.574   8.392
 5211TIP3   OH249167   3.399   2.927   8.237
 5211TIP3    H149168   3.364   2.941   8.146
 5211TIP3    H249169   3.493   2.914   8.216
 5212TIP3   OH249170   2.957   2.230   8.286
 5212TIP3    H149171   2.872   2.271   8.309
 5212TIP3    H249172   2.929   2.161   8.225
 5213TIP3   OH249173   2.595   2.290   8.154
 5213TIP3    H149174   2.534   2.251   8.222
 5213TIP3    H249175   2.537   2.358   8.113
 5214TIP3   OH249176   2.045   2.292   8.395
 5214TIP3    H149177   2.105   2.343   8.337
 5214TIP3    H249178   1.994   2.367   8.430
 5215TIP3   OH249179   2.476   2.566   8.296
 5215TIP3    H149180   2.441   2.510   8.225
 5215TIP3    H249181   2.539   2.620   8.246
 5216TIP3   OH249182   3.194   2.348   8.263
 5216TIP3    H149183   3.107   2.321   8.301
 5216TIP3    H249184   3.235   2.390   8.342
 5217TIP3   OH249185   3.284   2.521   8.443
 5217TIP3    H149186   3.376   2.524   8.477
 5217TIP3    H249187   3.280   2.602   8.389
 5218TIP3   OH249188   3.024   3.165   8.405
 5218TIP3    H149189   2.973   3.248   8.408
 5218TIP3    H249190   2.957   3.100   8.429
 5219TIP3   OH249191   3.774   2.524   8.426
 5219TIP3    H149192   3.725   2.483   8.352
 5219TIP3    H249193   3.785   2.615   8.390
 5220TIP3   OH249194   2.192   2.814   8.245
 5220TIP3    H149195   2.215   2.891   8.301
 5220TIP3    H249196   2.103   2.792   8.281
 5221TIP3   OH249197   3.383   3.223   8.289
 5221TIP3    H149198   3.397   3.226   8.385
 5221TIP3    H249199   3.288   3.201   8.283
 5222TIP3   OH249200   3.768   3.633   8.286
 5222TIP3    H149201   3.842   3.694   8.301
 5222TIP3    H249202   3.693   3.687   8.318
 5223TIP3   OH249203   2.749   3.313   8.122
 5223TIP3    H149204   2.719   3.262   8.045
 5223TIP3    H249205   2.708   3.262   8.196
 5224TIP3   OH249206   2.625   3.248   8.358
 5224TIP3    H149207   2.646   3.199   8.438
 5224TIP3    H249208   2.608   3.338   8.393
 5225TIP3   OH249209   2.261   2.996   8.420
 5225TIP3    H149210   2.246   2.930   8.491
 5225TIP3    H249211   2.356   3.015   8.431
 5226TIP3   OH249212   2.872   3.402   8.414
 5226TIP3    H149213   2.782   3.441   8.415
 5226TIP3    H249214   2.921   3.467   8.361
 5227TIP3   OH249215   2.594   3.489   8.473
 5227TIP3    H149216   2.588   3.561   8.407
 5227TIP3    H249217   2.614   3.543   8.551
 5228TIP3   OH249218   2.472   2.184   8.367
 5228TIP3    H149219   2.482   2.249   8.440
 5228TIP3    H249220   2.561   2.148   8.364
 5229TIP3   OH249221   2.315   3.263   8.276
 5229TIP3    H149222   2.381   3.300   8.336
 5229TIP3    H249223   2.369   3.196   8.234
 5230TIP3   OH249224   2.144   2.508   8.240
 5230TIP3    H149225   2.200   2.588   8.237
 5230TIP3    H249226   2.071   2.532   8.182
 5231TIP3   OH249227   2.952   3.510   8.130
 5231TIP3    H149228   2.897   3.429   8.122
 5231TIP3    H249229   3.034   3.481   8.084
 5232TIP3   OH249230   3.392   3.451   8.120
 5232TIP3    H149231   3.409   3.379   8.185
 5232TIP3    H249232   3.477   3.452   8.070
 5233TIP3   OH249233   2.500   3.037   8.118
 5233TIP3    H149234   2.536   3.014   8.204
 5233TIP3    H249235   2.576   3.020   8.057
 5234TIP3   OH249236   3.083   3.181   8.132
 5234TIP3    H149237   3.062   3.170   8.227
 5234TIP3    H249238   3.064   3.089   8.098
 5235TIP3   OH249239   2.612   2.866   8.343
 5235TIP3    H149240   2.559   2.802   8.393
 5235TIP3    H249241   2.655   2.809   8.274
 5236TIP3   OH249242   2.718   2.701   8.168
 5236TIP3    H149243   2.725   2.731   8.075
 5236TIP3    H249244   2.812   2.684   8.191
 5237TIP3   OH249245   3.661   2.907   8.135
 5237TIP3    H149246   3.643   2.882   8.041
 5237TIP3    H249247   3.664   3.006   8.127
 5238TIP3   OH249248   2.716   3.717   8.380
 5238TIP3    H149249   2.814   3.714   8.369
 5238TIP3    H249250   2.693   3.778   8.308
 5239TIP3   OH249251   2.037   3.215   8.267
 5239TIP3    H149252   2.135   3.221   8.273
 5239TIP3    H249253   2.028   3.153   8.191
 5240TIP3   OH249254   3.805   2.798   8.332
 5240TIP3    H149255   3.752   2.823   8.252
 5240TIP3    H249256   3.788   2.873   8.391
 5241TIP3   OH249257   3.607   2.522   8.180
 5241TIP3    H149258   3.621   2.575   8.100
 5241TIP3    H249259   3.580   2.435   8.144
 5242TIP3   OH249260   3.542   2.248   8.156
 5242TIP3    H149261   3.607   2.208   8.218
 5242TIP3    H249262   3.467   2.262   8.216
 5243TIP3   OH249263   3.744   2.120   8.300
 5243TIP3    H149264   3.768   2.065   8.221
 5243TIP3    H249265   3.831   2.161   8.321
 5244TIP3   OH249266   2.127   1.976   8.363
 5244TIP3    H149267   2.137   2.055   8.306
 5244TIP3    H249268   2.134   2.017   8.451
 5245TIP3   OH249269   2.248   2.167   8.213
 5245TIP3    H149270   2.308   2.108   8.164
 5245TIP3    H249271   2.295   2.177   8.298
 5246TIP3   OH249272   2.989   3.673   8.331
 5246TIP3    H149273   3.079   3.705   8.311
 5246TIP3    H249274   2.973   3.624   8.247
 5247TIP3   OH249275   2.220   3.653   8.168
 5247TIP3    H149276   2.198   3.694   8.254
 5247TIP3    H249277   2.287   3.587   8.192
 5248TIP3   OH249278   4.864   2.704   8.262
 5248TIP3    H149279   4.940   2.744   8.310
 5248TIP3    H249280   4.913   2.633   8.217
 5249TIP3   OH249281   5.113   2.769   8.360
 5249TIP3    H149282   5.103   2.819   8.442
 5249TIP3    H249283   5.175   2.826   8.307
 5250TIP3   OH249284   5.489   1.933   8.441
 5250TIP3    H149285   5.405   1.928   8.394
 5250TIP3    H249286   5.536   2.003   8.390
 5251TIP3   OH249287   5.593   3.393   8.208
 5251TIP3    H149288   5.611   3.486   8.230
 5251TIP3    H249289   5.667   3.352   8.255
 5252TIP3   OH249290   5.180   3.621   8.317
 5252TIP3    H149291   5.203   3.561   8.242
 5252TIP3    H249292   5.224   3.573   8.390
 5253TIP3   OH249293   5.284   2.929   8.239
 5253TIP3    H149294   5.250   2.945   8.149
 5253TIP3    H249295   5.379   2.915   8.217
 5254TIP3   OH249296   4.846   2.237   8.283
 5254TIP3    H149297   4.762   2.274   8.314
 5254TIP3    H249298   4.819   2.165   8.227
 5255TIP3   OH249299   4.475   2.288   8.146
 5255TIP3    H149300   4.419   2.246   8.216
 5255TIP3    H249301   4.411   2.354   8.110
 5256TIP3   OH249302   3.928   2.291   8.390
 5256TIP3    H149303   3.992   2.342   8.335
 5256TIP3    H249304   3.876   2.367   8.421
 5257TIP3   OH249305   4.355   2.563   8.295
 5257TIP3    H149306   4.324   2.508   8.222
 5257TIP3    H249307   4.417   2.620   8.247
 5258TIP3   OH249308   5.092   2.339   8.270
 5258TIP3    H149309   5.000   2.318   8.303
 5258TIP3    H249310   5.129   2.388   8.347
 5259TIP3   OH249311   5.162   2.520   8.450
 5259TIP3    H149312   5.249   2.516   8.494
 5259TIP3    H249313   5.168   2.602   8.396
 5260TIP3   OH249314   4.899   3.167   8.399
 5260TIP3    H149315   4.847   3.250   8.406
 5260TIP3    H249316   4.834   3.100   8.422
 5261TIP3   OH249317   5.658   2.525   8.429
 5261TIP3    H149318   5.599   2.493   8.357
 5261TIP3    H249319   5.675   2.615   8.396
 5262TIP3   OH249320   4.074   2.813   8.246
 5262TIP3    H149321   4.094   2.895   8.296
 5262TIP3    H249322   3.981   2.797   8.274
 5263TIP3   OH249323   5.270   3.221   8.278
 5263TIP3    H149324   5.288   3.223   8.373
 5263TIP3    H249325   5.174   3.199   8.277
 5264TIP3   OH249326   5.658   3.632   8.304
 5264TIP3    H149327   5.730   3.695   8.300
 5264TIP3    H249328   5.599   3.675   8.369
 5265TIP3   OH249329   4.639   3.310   8.122
 5265TIP3    H149330   4.605   3.258   8.047
 5265TIP3    H249331   4.599   3.262   8.198
 5266TIP3   OH249332   4.508   3.248   8.361
 5266TIP3    H149333   4.538   3.199   8.438
 5266TIP3    H249334   4.500   3.338   8.399
 5267TIP3   OH249335   4.147   2.995   8.420
 5267TIP3    H149336   4.153   2.913   8.473
 5267TIP3    H249337   4.240   3.021   8.411
 5268TIP3   OH249338   4.755   3.401   8.412
 5268TIP3    H149339   4.666   3.441   8.412
 5268TIP3    H249340   4.806   3.469   8.366
 5269TIP3   OH249341   4.488   3.491   8.468
 5269TIP3    H149342   4.478   3.567   8.407
 5269TIP3    H249343   4.507   3.538   8.550
 5270TIP3   OH249344   4.360   2.180   8.362
 5270TIP3    H149345   4.366   2.245   8.436
 5270TIP3    H249346   4.450   2.146   8.363
 5271TIP3   OH249347   4.202   3.254   8.274
 5271TIP3    H149348   4.264   3.290   8.339
 5271TIP3    H249349   4.264   3.207   8.217
 5272TIP3   OH249350   4.031   2.506   8.237
 5272TIP3    H149351   4.088   2.585   8.235
 5272TIP3    H249352   3.958   2.532   8.181
 5273TIP3   OH249353   4.835   3.514   8.126
 5273TIP3    H149354   4.782   3.432   8.119
 5273TIP3    H249355   4.918   3.486   8.080
 5274TIP3   OH249356   5.274   3.446   8.118
 5274TIP3    H149357   5.286   3.370   8.179
 5274TIP3    H249358   5.361   3.451   8.073
 5275TIP3   OH249359   4.386   3.038   8.118
 5275TIP3    H149360   4.423   3.020   8.206
 5275TIP3    H249361   4.463   3.019   8.059
 5276TIP3   OH249362   4.967   3.186   8.134
 5276TIP3    H149363   4.939   3.178   8.227
 5276TIP3    H249364   4.950   3.094   8.100
 5277TIP3   OH249365   4.496   2.866   8.342
 5277TIP3    H149366   4.446   2.802   8.395
 5277TIP3    H249367   4.538   2.808   8.274
 5278TIP3   OH249368   4.604   2.695   8.172
 5278TIP3    H149369   4.612   2.726   8.080
 5278TIP3    H249370   4.699   2.679   8.196
 5279TIP3   OH249371   5.552   2.911   8.135
 5279TIP3    H149372   5.534   2.884   8.042
 5279TIP3    H249373   5.552   3.010   8.126
 5280TIP3   OH249374   4.605   3.717   8.379
 5280TIP3    H149375   4.699   3.708   8.355
 5280TIP3    H249376   4.575   3.777   8.309
 5281TIP3   OH249377   3.922   3.213   8.269
 5281TIP3    H149378   4.021   3.209   8.273
 5281TIP3    H249379   3.905   3.162   8.187
 5282TIP3   OH249380   5.692   2.798   8.331
 5282TIP3    H149381   5.643   2.827   8.251
 5282TIP3    H249382   5.678   2.873   8.391
 5283TIP3   OH249383   5.493   2.532   8.179
 5283TIP3    H149384   5.499   2.577   8.094
 5283TIP3    H249385   5.467   2.442   8.152
 5284TIP3   OH249386   5.433   2.257   8.158
 5284TIP3    H149387   5.492   2.211   8.221
 5284TIP3    H249388   5.352   2.265   8.210
 5285TIP3   OH249389   5.630   2.118   8.295
 5285TIP3    H149390   5.656   2.063   8.218
 5285TIP3    H249391   5.715   2.162   8.319
 5286TIP3   OH249392   4.009   1.976   8.362
 5286TIP3    H149393   4.017   2.048   8.297
 5286TIP3    H249394   4.014   2.028   8.444
 5287TIP3   OH249395   4.133   2.158   8.205
 5287TIP3    H149396   4.193   2.100   8.154
 5287TIP3    H249397   4.180   2.165   8.290
 5288TIP3   OH249398   4.875   3.670   8.329
 5288TIP3    H149399   4.965   3.703   8.313
 5288TIP3    H249400   4.860   3.622   8.243
 5289TIP3   OH249401   4.097   3.647   8.165
 5289TIP3    H149402   4.075   3.699   8.245
 5289TIP3    H249403   4.164   3.584   8.197
 5290TIP3   OH249404   6.753   2.707   8.259
 5290TIP3    H149405   6.823   2.746   8.315
 5290TIP3    H249406   6.807   2.640   8.214
 5291TIP3   OH249407   6.996   2.774   8.363
 5291TIP3    H149408   6.991   2.824   8.446
 5291TIP3    H249409   7.051   2.832   8.303
 5292TIP3   OH249410   7.376   1.937   8.436
 5292TIP3    H149411   7.288   1.928   8.397
 5292TIP3    H249412   7.409   2.019   8.393
 5293TIP3   OH249413   7.482   3.381   8.217
 5293TIP3    H149414   7.504   3.475   8.234
 5293TIP3    H249415   7.561   3.341   8.258
 5294TIP3   OH249416   7.062   3.618   8.316
 5294TIP3    H149417   7.092   3.558   8.244
 5294TIP3    H249418   7.106   3.574   8.392
 5295TIP3   OH249419   7.168   2.930   8.237
 5295TIP3    H149420   7.133   2.946   8.147
 5295TIP3    H249421   7.262   2.916   8.216
 5296TIP3   OH249422   6.728   2.238   8.284
 5296TIP3    H149423   6.641   2.277   8.301
 5296TIP3    H249424   6.707   2.161   8.230
 5297TIP3   OH249425   6.358   2.303   8.148
 5297TIP3    H149426   6.301   2.260   8.216
 5297TIP3    H249427   6.296   2.370   8.111
 5298TIP3   OH249428   5.811   2.297   8.392
 5298TIP3    H149429   5.871   2.350   8.336
 5298TIP3    H249430   5.748   2.366   8.418
 5299TIP3   OH249431   6.245   2.568   8.292
 5299TIP3    H149432   6.211   2.518   8.216
 5299TIP3    H249433   6.317   2.618   8.252
 5300TIP3   OH249434   6.971   2.342   8.271
 5300TIP3    H149435   6.881   2.320   8.304
 5300TIP3    H249436   7.009   2.393   8.347
 5301TIP3   OH249437   7.046   2.523   8.451
 5301TIP3    H149438   7.133   2.515   8.493
 5301TIP3    H249439   7.054   2.603   8.396
 5302TIP3   OH249440   6.787   3.170   8.399
 5302TIP3    H149441   6.734   3.252   8.406
 5302TIP3    H249442   6.723   3.102   8.422
 5303TIP3   OH249443   7.543   2.527   8.423
 5303TIP3    H149444   7.486   2.491   8.351
 5303TIP3    H249445   7.552   2.619   8.390
 5304TIP3   OH249446   5.958   2.809   8.248
 5304TIP3    H149447   5.978   2.889   8.302
 5304TIP3    H249448   5.868   2.789   8.279
 5305TIP3   OH249449   7.153   3.223   8.297
 5305TIP3    H149450   7.156   3.238   8.393
 5305TIP3    H249451   7.060   3.197   8.285
 5306TIP3   OH249452   7.544   3.632   8.292
 5306TIP3    H149453   7.615   3.696   8.308
 5306TIP3    H249454   7.468   3.681   8.328
 5307TIP3   OH249455   6.528   3.314   8.115
 5307TIP3    H149456   6.497   3.258   8.042
 5307TIP3    H249457   6.488   3.267   8.193
 5308TIP3   OH249458   6.397   3.247   8.355
 5308TIP3    H149459   6.413   3.196   8.435
 5308TIP3    H249460   6.382   3.337   8.393
 5309TIP3   OH249461   6.028   2.997   8.419
 5309TIP3    H149462   6.023   2.929   8.489
 5309TIP3    H249463   6.123   3.016   8.414
 5310TIP3   OH249464   6.639   3.398   8.410
 5310TIP3    H149465   6.547   3.429   8.408
 5310TIP3    H249466   6.685   3.464   8.356
 5311TIP3   OH249467   6.374   3.488   8.466
 5311TIP3    H149468   6.363   3.564   8.406
 5311TIP3    H249469   6.390   3.534   8.549
 5312TIP3   OH249470   6.246   2.181   8.366
 5312TIP3    H149471   6.274   2.241   8.440
 5312TIP3    H249472   6.326   2.127   8.354
 5313TIP3   OH249473   6.086   3.255   8.275
 5313TIP3    H149474   6.151   3.294   8.336
 5313TIP3    H249475   6.147   3.208   8.216
 5314TIP3   OH249476   5.914   2.509   8.236
 5314TIP3    H149477   5.971   2.588   8.236
 5314TIP3    H249478   5.842   2.533   8.176
 5315TIP3   OH249479   6.727   3.513   8.128
 5315TIP3    H149480   6.669   3.435   8.117
 5315TIP3    H249481   6.810   3.480   8.086
 5316TIP3   OH249482   7.162   3.445   8.119
 5316TIP3    H149483   7.183   3.376   8.186
 5316TIP3    H249484   7.247   3.452   8.070
 5317TIP3   OH249485   6.272   3.033   8.115
 5317TIP3    H149486   6.314   3.020   8.201
 5317TIP3    H249487   6.348   3.017   8.054
 5318TIP3   OH249488   6.852   3.182   8.132
 5318TIP3    H149489   6.827   3.177   8.226
 5318TIP3    H249490   6.834   3.089   8.101
 5319TIP3   OH249491   6.380   2.874   8.343
 5319TIP3    H149492   6.318   2.810   8.381
 5319TIP3    H249493   6.425   2.817   8.277
 5320TIP3   OH249494   6.493   2.695   8.184
 5320TIP3    H149495   6.494   2.711   8.088
 5320TIP3    H249496   6.589   2.688   8.207
 5321TIP3   OH249497   7.431   2.910   8.131
 5321TIP3    H149498   7.416   2.885   8.036
 5321TIP3    H249499   7.433   3.009   8.123
 5322TIP3   OH249500   6.486   3.721   8.383
 5322TIP3    H149501   6.584   3.717   8.377
 5322TIP3    H249502   6.466   3.777   8.305
 5323TIP3   OH249503   5.806   3.214   8.268
 5323TIP3    H149504   5.905   3.210   8.269
 5323TIP3    H249505   5.786   3.162   8.189
 5324TIP3   OH249506   7.578   2.795   8.329
 5324TIP3    H149507   7.528   2.827   8.250
 5324TIP3    H249508   7.560   2.866   8.393
 5325TIP3   OH249509   7.379   2.526   8.185
 5325TIP3    H149510   7.391   2.576   8.103
 5325TIP3    H249511   7.348   2.440   8.152
 5326TIP3   OH249512   7.312   2.260   8.152
 5326TIP3    H149513   7.375   2.212   8.210
 5326TIP3    H249514   7.235   2.269   8.211
 5327TIP3   OH249515   7.513   2.129   8.284
 5327TIP3    H149516   7.545   2.065   8.215
 5327TIP3    H249517   7.597   2.172   8.314
 5328TIP3   OH249518   5.901   1.981   8.362
 5328TIP3    H149519   5.916   2.060   8.304
 5328TIP3    H249520   5.903   2.026   8.448
 5329TIP3   OH249521   6.024   2.174   8.217
 5329TIP3    H149522   6.082   2.113   8.167
 5329TIP3    H249523   6.078   2.187   8.298
 5330TIP3   OH249524   6.758   3.671   8.331
 5330TIP3    H149525   6.848   3.702   8.312
 5330TIP3    H249526   6.741   3.624   8.245
 5331TIP3   OH249527   5.980   3.649   8.162
 5331TIP3    H149528   5.959   3.700   8.242
 5331TIP3    H249529   6.048   3.587   8.196
 5332TIP3   OH249530   8.640   2.655   8.237
 5332TIP3    H149531   8.700   2.707   8.293
 5332TIP3    H249532   8.698   2.579   8.217
 5333TIP3   OH249533   8.850   2.775   8.365
 5333TIP3    H149534   8.860   2.841   8.436
 5333TIP3    H249535   8.909   2.815   8.295
 5334TIP3   OH249536   9.199   1.912   8.470
 5334TIP3    H149537   9.113   1.904   8.427
 5334TIP3    H249538   9.255   1.951   8.401
 5335TIP3   OH249539   0.012   3.392   8.183
 5335TIP3    H149540  -0.002   3.485   8.163
 5335TIP3    H249541   0.065   3.393   8.264
 5336TIP3   OH249542   8.973   3.667   8.309
 5336TIP3    H149543   9.001   3.584   8.265
 5336TIP3    H249544   8.980   3.641   8.402
 5337TIP3   OH249545   9.019   2.901   8.214
 5337TIP3    H149546   9.014   2.869   8.121
 5337TIP3    H249547   9.114   2.919   8.223
 5338TIP3   OH249548   8.585   2.242   8.272
 5338TIP3    H149549   8.522   2.268   8.340
 5338TIP3    H249550   8.541   2.169   8.225
 5339TIP3   OH249551   8.242   2.279   8.147
 5339TIP3    H149552   8.187   2.244   8.222
 5339TIP3    H249553   8.181   2.344   8.107
 5340TIP3   OH249554   7.696   2.294   8.390
 5340TIP3    H149555   7.758   2.343   8.332
 5340TIP3    H249556   7.643   2.369   8.422
 5341TIP3   OH249557   8.158   2.569   8.296
 5341TIP3    H149558   8.119   2.522   8.220
 5341TIP3    H249559   8.220   2.626   8.249
 5342TIP3   OH249560   8.847   2.313   8.273
 5342TIP3    H149561   8.751   2.303   8.293
 5342TIP3    H249562   8.875   2.380   8.339
 5343TIP3   OH249563   8.917   2.515   8.435
 5343TIP3    H149564   9.010   2.511   8.410
 5343TIP3    H249565   8.889   2.595   8.386
 5344TIP3   OH249566   8.672   3.166   8.404
 5344TIP3    H149567   8.624   3.252   8.405
 5344TIP3    H249568   8.601   3.104   8.423
 5345TIP3   OH249569   7.841   2.817   8.248
 5345TIP3    H149570   7.862   2.897   8.302
 5345TIP3    H249571   7.748   2.799   8.274
 5346TIP3   OH249572   9.030   3.244   8.304
 5346TIP3    H149573   9.039   3.216   8.396
 5346TIP3    H249574   8.933   3.241   8.292
 5347TIP3   OH249575   8.407   3.315   8.119
 5347TIP3    H149576   8.370   3.261   8.047
 5347TIP3    H249577   8.369   3.268   8.197
 5348TIP3   OH249578   8.272   3.254   8.356
 5348TIP3    H149579   8.295   3.196   8.431
 5348TIP3    H249580   8.274   3.342   8.399
 5349TIP3   OH249581   7.913   3.001   8.420
 5349TIP3    H149582   7.919   2.920   8.474
 5349TIP3    H249583   8.006   3.024   8.404
 5350TIP3   OH249584   8.524   3.398   8.398
 5350TIP3    H149585   8.439   3.445   8.411
 5350TIP3    H249586   8.570   3.459   8.337
 5351TIP3   OH249587   8.265   3.493   8.474
 5351TIP3    H149588   8.240   3.559   8.407
 5351TIP3    H249589   8.280   3.550   8.550
 5352TIP3   OH249590   8.128   2.190   8.366
 5352TIP3    H149591   8.124   2.260   8.433
 5352TIP3    H249592   8.221   2.165   8.381
 5353TIP3   OH249593   7.971   3.254   8.270
 5353TIP3    H149594   8.027   3.295   8.338
 5353TIP3    H249595   8.039   3.204   8.223
 5354TIP3   OH249596   7.805   2.507   8.235
 5354TIP3    H149597   7.852   2.591   8.227
 5354TIP3    H249598   7.727   2.523   8.181
 5355TIP3   OH249599   8.612   3.518   8.134
 5355TIP3    H149600   8.552   3.441   8.123
 5355TIP3    H249601   8.689   3.486   8.083
 5356TIP3   OH249602   9.046   3.448   8.124
 5356TIP3    H149603   9.060   3.378   8.191
 5356TIP3    H249604   9.129   3.443   8.070
 5357TIP3   OH249605   8.161   3.032   8.122
 5357TIP3    H149606   8.200   3.004   8.206
 5357TIP3    H249607   8.236   3.016   8.060
 5358TIP3   OH249608   8.744   3.174   8.134
 5358TIP3    H149609   8.726   3.161   8.229
 5358TIP3    H249610   8.719   3.084   8.098
 5359TIP3   OH249611   8.257   2.864   8.339
 5359TIP3    H149612   8.241   2.799   8.409
 5359TIP3    H249613   8.298   2.808   8.269
 5360TIP3   OH249614   8.381   2.697   8.166
 5360TIP3    H149615   8.379   2.717   8.069
 5360TIP3    H249616   8.478   2.681   8.181
 5361TIP3   OH249617   9.296   2.909   8.188
 5361TIP3    H149618   9.287   2.866   8.101
 5361TIP3    H249619   9.279   3.003   8.162
 5362TIP3   OH249620   8.375   3.731   8.380
 5362TIP3    H149621   8.471   3.712   8.369
 5362TIP3    H249622   8.360   3.789   8.303
 5363TIP3   OH249623   7.691   3.210   8.275
 5363TIP3    H149624   7.789   3.204   8.275
 5363TIP3    H249625   7.669   3.161   8.193
 5364TIP3   OH249626   9.255   2.581   8.262
 5364TIP3    H149627   9.280   2.613   8.175
 5364TIP3    H249628   9.225   2.491   8.238
 5365TIP3   OH249629   9.160   2.325   8.136
 5365TIP3    H149630   9.214   2.259   8.180
 5365TIP3    H249631   9.086   2.272   8.100
 5366TIP3   OH249632   7.776   1.976   8.370
 5366TIP3    H149633   7.773   2.046   8.302
 5366TIP3    H249634   7.805   2.028   8.448
 5367TIP3   OH249635   7.897   2.158   8.207
 5367TIP3    H149636   7.957   2.100   8.156
 5367TIP3    H249637   7.944   2.168   8.291
 5368TIP3   OH249638   8.632   3.671   8.341
 5368TIP3    H149639   8.713   3.722   8.322
 5368TIP3    H249640   8.623   3.623   8.255
 5369TIP3   OH249641   7.867   3.656   8.167
 5369TIP3    H149642   7.840   3.707   8.245
 5369TIP3    H249643   7.931   3.593   8.203
 5370TIP3   OH249644   1.092   4.590   8.248
 5370TIP3    H149645   1.169   4.619   8.302
 5370TIP3    H249646   1.139   4.521   8.197
 5371TIP3   OH249647   1.330   4.654   8.354
 5371TIP3    H149648   1.308   4.713   8.428
 5371TIP3    H249649   1.386   4.711   8.296
 5372TIP3   OH249650   1.719   3.825   8.436
 5372TIP3    H149651   1.634   3.817   8.390
 5372TIP3    H249652   1.758   3.904   8.391
 5373TIP3   OH249653   1.825   5.277   8.203
 5373TIP3    H149654   1.840   5.369   8.233
 5373TIP3    H249655   1.896   5.234   8.254
 5374TIP3   OH249656   1.413   5.503   8.313
 5374TIP3    H149657   1.439   5.443   8.240
 5374TIP3    H249658   1.458   5.457   8.387
 5375TIP3   OH249659   1.509   4.808   8.234
 5375TIP3    H149660   1.478   4.827   8.143
 5375TIP3    H249661   1.605   4.795   8.214
 5376TIP3   OH249662   1.068   4.119   8.287
 5376TIP3    H149663   0.987   4.152   8.328
 5376TIP3    H249664   1.034   4.055   8.223
 5377TIP3   OH249665   0.713   4.163   8.144
 5377TIP3    H149666   0.652   4.136   8.217
 5377TIP3    H249667   0.657   4.227   8.093
 5378TIP3   OH249668   0.151   4.164   8.395
 5378TIP3    H149669   0.240   4.170   8.356
 5378TIP3    H249670   0.124   4.256   8.403
 5379TIP3   OH249671   0.618   4.451   8.298
 5379TIP3    H149672   0.571   4.404   8.227
 5379TIP3    H249673   0.685   4.498   8.246
 5380TIP3   OH249674   1.319   4.231   8.274
 5380TIP3    H149675   1.226   4.210   8.299
 5380TIP3    H249676   1.351   4.282   8.352
 5381TIP3   OH249677   1.394   4.412   8.447
 5381TIP3    H149678   1.485   4.414   8.481
 5381TIP3    H249679   1.391   4.495   8.394
 5382TIP3   OH249680   1.148   5.050   8.397
 5382TIP3    H149681   1.094   5.131   8.400
 5382TIP3    H249682   1.085   4.986   8.432
 5383TIP3   OH249683   1.885   4.413   8.432
 5383TIP3    H149684   1.838   4.365   8.361
 5383TIP3    H249685   1.892   4.501   8.390
 5384TIP3   OH249686   0.217   4.716   8.218
 5384TIP3    H149687   0.267   4.735   8.300
 5384TIP3    H249688   0.125   4.730   8.246
 5385TIP3   OH249689   1.498   5.099   8.288
 5385TIP3    H149690   1.479   5.130   8.377
 5385TIP3    H249691   1.411   5.064   8.262
 5386TIP3   OH249692   1.877   5.515   8.315
 5386TIP3    H149693   1.953   5.575   8.303
 5386TIP3    H249694   1.828   5.562   8.385
 5387TIP3   OH249695   0.881   5.212   8.105
 5387TIP3    H149696   0.842   5.147   8.045
 5387TIP3    H249697   0.842   5.182   8.191
 5388TIP3   OH249698   0.745   5.137   8.359
 5388TIP3    H149699   0.735   5.073   8.432
 5388TIP3    H249700   0.724   5.219   8.407
 5389TIP3   OH249701   0.349   4.826   8.433
 5389TIP3    H149702   0.355   4.837   8.529
 5389TIP3    H249703   0.408   4.897   8.400
 5390TIP3   OH249704   0.967   5.313   8.387
 5390TIP3    H149705   0.876   5.340   8.409
 5390TIP3    H249706   1.003   5.396   8.351
 5391TIP3   OH249707   0.705   5.381   8.481
 5391TIP3    H149708   0.709   5.445   8.407
 5391TIP3    H249709   0.709   5.444   8.554
 5392TIP3   OH249710   0.589   4.076   8.370
 5392TIP3    H149711   0.575   4.143   8.440
 5392TIP3    H249712   0.683   4.059   8.386
 5393TIP3   OH249713   0.457   5.068   8.310
 5393TIP3    H149714   0.516   5.128   8.360
 5393TIP3    H249715   0.518   5.043   8.237
 5394TIP3   OH249716   0.314   4.416   8.191
 5394TIP3    H149717   0.306   4.498   8.244
 5394TIP3    H249718   0.221   4.390   8.178
 5395TIP3   OH249719   1.066   5.406   8.120
 5395TIP3    H149720   1.009   5.326   8.116
 5395TIP3    H249721   1.149   5.369   8.082
 5396TIP3   OH249722   1.504   5.330   8.116
 5396TIP3    H149723   1.528   5.264   8.184
 5396TIP3    H249724   1.589   5.339   8.067
 5397TIP3   OH249725   0.618   4.932   8.120
 5397TIP3    H149726   0.654   4.888   8.198
 5397TIP3    H249727   0.692   4.919   8.057
 5398TIP3   OH249728   1.203   5.062   8.126
 5398TIP3    H149729   1.183   5.055   8.222
 5398TIP3    H249730   1.175   4.973   8.094
 5399TIP3   OH249731   0.732   4.759   8.345
 5399TIP3    H149732   0.706   4.689   8.406
 5399TIP3    H249733   0.768   4.706   8.270
 5400TIP3   OH249734   0.834   4.591   8.169
 5400TIP3    H149735   0.828   4.595   8.071
 5400TIP3    H249736   0.930   4.579   8.185
 5401TIP3   OH249737   1.765   4.789   8.136
 5401TIP3    H149738   1.753   4.762   8.042
 5401TIP3    H249739   1.771   4.887   8.127
 5402TIP3   OH249740   0.837   5.603   8.384
 5402TIP3    H149741   0.932   5.624   8.387
 5402TIP3    H249742   0.810   5.654   8.306
 5403TIP3   OH249743   0.197   5.105   8.316
 5403TIP3    H149744   0.293   5.081   8.305
 5403TIP3    H249745   0.161   5.084   8.229
 5404TIP3   OH249746   1.923   4.679   8.333
 5404TIP3    H149747   1.868   4.706   8.256
 5404TIP3    H249748   1.907   4.754   8.394
 5405TIP3   OH249749   1.720   4.419   8.180
 5405TIP3    H149750   1.732   4.464   8.095
 5405TIP3    H249751   1.694   4.329   8.151
 5406TIP3   OH249752   1.656   4.146   8.155
 5406TIP3    H149753   1.722   4.101   8.213
 5406TIP3    H249754   1.580   4.152   8.213
 5407TIP3   OH249755   1.859   4.010   8.296
 5407TIP3    H149756   1.885   3.953   8.219
 5407TIP3    H249757   1.944   4.052   8.321
 5408TIP3   OH249758   0.251   3.882   8.373
 5408TIP3    H149759   0.249   3.951   8.305
 5408TIP3    H249760   0.258   3.937   8.453
 5409TIP3   OH249761   0.371   4.065   8.218
 5409TIP3    H149762   0.424   4.003   8.164
 5409TIP3    H249763   0.429   4.064   8.297
 5410TIP3   OH249764   1.119   5.551   8.332
 5410TIP3    H149765   1.208   5.581   8.309
 5410TIP3    H249766   1.094   5.512   8.245
 5411TIP3   OH249767   0.352   5.521   8.189
 5411TIP3    H149768   0.324   5.537   8.281
 5411TIP3    H249769   0.428   5.463   8.202
 5412TIP3   OH249770   2.980   4.587   8.260
 5412TIP3    H149771   3.058   4.626   8.305
 5412TIP3    H249772   3.029   4.517   8.212
 5413TIP3   OH249773   3.224   4.658   8.353
 5413TIP3    H149774   3.191   4.715   8.423
 5413TIP3    H249775   3.285   4.716   8.301
 5414TIP3   OH249776   3.599   3.819   8.438
 5414TIP3    H149777   3.510   3.820   8.399
 5414TIP3    H249778   3.644   3.893   8.393
 5415TIP3   OH249779   3.705   5.272   8.214
 5415TIP3    H149780   3.723   5.366   8.235
 5415TIP3    H249781   3.781   5.233   8.260
 5416TIP3   OH249782   3.297   5.509   8.321
 5416TIP3    H149783   3.320   5.450   8.246
 5416TIP3    H249784   3.338   5.458   8.393
 5417TIP3   OH249785   3.399   4.817   8.242
 5417TIP3    H149786   3.364   4.837   8.152
 5417TIP3    H249787   3.493   4.803   8.218
 5418TIP3   OH249788   2.959   4.119   8.286
 5418TIP3    H149789   2.875   4.162   8.304
 5418TIP3    H249790   2.933   4.048   8.225
 5419TIP3   OH249791   2.586   4.182   8.152
 5419TIP3    H149792   2.529   4.139   8.220
 5419TIP3    H249793   2.528   4.256   8.122
 5420TIP3   OH249794   2.042   4.181   8.391
 5420TIP3    H149795   2.100   4.234   8.333
 5420TIP3    H249796   1.985   4.252   8.425
 5421TIP3   OH249797   2.466   4.452   8.287
 5421TIP3    H149798   2.448   4.403   8.206
 5421TIP3    H249799   2.535   4.511   8.255
 5422TIP3   OH249800   3.198   4.232   8.270
 5422TIP3    H149801   3.111   4.206   8.309
 5422TIP3    H249802   3.239   4.283   8.344
 5423TIP3   OH249803   3.282   4.410   8.450
 5423TIP3    H149804   3.369   4.403   8.494
 5423TIP3    H249805   3.292   4.491   8.395
 5424TIP3   OH249806   3.024   5.053   8.408
 5424TIP3    H149807   2.971   5.135   8.409
 5424TIP3    H249808   2.958   4.986   8.432
 5425TIP3   OH249809   3.767   4.415   8.426
 5425TIP3    H149810   3.711   4.379   8.355
 5425TIP3    H249811   3.784   4.505   8.390
 5426TIP3   OH249812   2.196   4.696   8.246
 5426TIP3    H149813   2.218   4.772   8.304
 5426TIP3    H249814   2.104   4.678   8.274
 5427TIP3   OH249815   3.371   5.105   8.281
 5427TIP3    H149816   3.351   5.132   8.372
 5427TIP3    H249817   3.290   5.056   8.258
 5428TIP3   OH249818   3.768   5.513   8.306
 5428TIP3    H149819   3.841   5.576   8.297
 5428TIP3    H249820   3.709   5.563   8.365
 5429TIP3   OH249821   2.752   5.196   8.117
 5429TIP3    H149822   2.719   5.142   8.043
 5429TIP3    H249823   2.710   5.151   8.194
 5430TIP3   OH249824   2.627   5.135   8.360
 5430TIP3    H149825   2.640   5.084   8.441
 5430TIP3    H249826   2.615   5.225   8.397
 5431TIP3   OH249827   2.260   4.881   8.424
 5431TIP3    H149828   2.271   4.802   8.480
 5431TIP3    H249829   2.352   4.906   8.406
 5432TIP3   OH249830   2.871   5.288   8.406
 5432TIP3    H149831   2.778   5.319   8.408
 5432TIP3    H249832   2.915   5.366   8.368
 5433TIP3   OH249833   2.607   5.376   8.468
 5433TIP3    H149834   2.599   5.446   8.399
 5433TIP3    H249835   2.621   5.432   8.545
 5434TIP3   OH249836   2.470   4.065   8.360
 5434TIP3    H149837   2.492   4.127   8.433
 5434TIP3    H249838   2.547   4.007   8.359
 5435TIP3   OH249839   2.315   5.144   8.276
 5435TIP3    H149840   2.378   5.181   8.341
 5435TIP3    H249841   2.377   5.091   8.225
 5436TIP3   OH249842   2.141   4.396   8.235
 5436TIP3    H149843   2.202   4.472   8.234
 5436TIP3    H249844   2.073   4.424   8.172
 5437TIP3   OH249845   2.947   5.399   8.125
 5437TIP3    H149846   2.894   5.316   8.122
 5437TIP3    H249847   3.030   5.367   8.083
 5438TIP3   OH249848   3.393   5.337   8.119
 5438TIP3    H149849   3.407   5.263   8.182
 5438TIP3    H249850   3.479   5.339   8.071
 5439TIP3   OH249851   2.503   4.935   8.117
 5439TIP3    H149852   2.539   4.907   8.203
 5439TIP3    H249853   2.579   4.912   8.057
 5440TIP3   OH249854   3.084   5.069   8.134
 5440TIP3    H149855   3.053   5.063   8.226
 5440TIP3    H249856   3.062   4.978   8.101
 5441TIP3   OH249857   2.605   4.761   8.343
 5441TIP3    H149858   2.562   4.695   8.400
 5441TIP3    H249859   2.647   4.703   8.275
 5442TIP3   OH249860   2.722   4.587   8.180
 5442TIP3    H149861   2.728   4.611   8.084
 5442TIP3    H249862   2.818   4.572   8.202
 5443TIP3   OH249863   3.666   4.792   8.135
 5443TIP3    H149864   3.648   4.765   8.042
 5443TIP3    H249865   3.667   4.891   8.128
 5444TIP3   OH249866   2.718   5.605   8.376
 5444TIP3    H149867   2.813   5.596   8.352
 5444TIP3    H249868   2.688   5.665   8.304
 5445TIP3   OH249869   2.035   5.096   8.266
 5445TIP3    H149870   2.134   5.095   8.269
 5445TIP3    H249871   2.017   5.042   8.187
 5446TIP3   OH249872   3.810   4.677   8.328
 5446TIP3    H149873   3.756   4.705   8.251
 5446TIP3    H249874   3.790   4.748   8.392
 5447TIP3   OH249875   3.597   4.420   8.178
 5447TIP3    H149876   3.614   4.462   8.093
 5447TIP3    H249877   3.573   4.329   8.151
 5448TIP3   OH249878   3.548   4.140   8.161
 5448TIP3    H149879   3.610   4.090   8.220
 5448TIP3    H249880   3.471   4.151   8.219
 5449TIP3   OH249881   3.738   4.001   8.297
 5449TIP3    H149882   3.768   3.946   8.220
 5449TIP3    H249883   3.822   4.045   8.322
 5450TIP3   OH249884   2.122   3.865   8.370
 5450TIP3    H149885   2.131   3.936   8.304
 5450TIP3    H249886   2.132   3.916   8.453
 5451TIP3   OH249887   2.245   4.044   8.207
 5451TIP3    H149888   2.309   3.988   8.159
 5451TIP3    H249889   2.291   4.058   8.292
 5452TIP3   OH249890   2.990   5.549   8.332
 5452TIP3    H149891   3.077   5.588   8.316
 5452TIP3    H249892   2.977   5.505   8.244
 5453TIP3   OH249893   2.232   5.549   8.174
 5453TIP3    H149894   2.207   5.591   8.259
 5453TIP3    H249895   2.289   5.476   8.202
 5454TIP3   OH249896   4.868   4.589   8.259
 5454TIP3    H149897   4.940   4.627   8.314
 5454TIP3    H249898   4.921   4.520   8.215
 5455TIP3   OH249899   5.109   4.656   8.359
 5455TIP3    H149900   5.087   4.712   8.434
 5455TIP3    H249901   5.162   4.715   8.300
 5456TIP3   OH249902   5.492   3.819   8.442
 5456TIP3    H149903   5.407   3.807   8.398
 5456TIP3    H249904   5.531   3.892   8.389
 5457TIP3   OH249905   5.597   5.272   8.209
 5457TIP3    H149906   5.615   5.363   8.239
 5457TIP3    H249907   5.676   5.227   8.246
 5458TIP3   OH249908   5.178   5.503   8.312
 5458TIP3    H149909   5.205   5.443   8.240
 5458TIP3    H249910   5.221   5.458   8.388
 5459TIP3   OH249911   5.281   4.815   8.238
 5459TIP3    H149912   5.247   4.830   8.147
 5459TIP3    H249913   5.375   4.798   8.215
 5460TIP3   OH249914   4.844   4.117   8.290
 5460TIP3    H149915   4.760   4.158   8.314
 5460TIP3    H249916   4.815   4.047   8.231
 5461TIP3   OH249917   4.475   4.182   8.151
 5461TIP3    H149918   4.413   4.141   8.217
 5461TIP3    H249919   4.415   4.244   8.105
 5462TIP3   OH249920   3.922   4.177   8.390
 5462TIP3    H149921   3.984   4.229   8.334
 5462TIP3    H249922   3.863   4.249   8.418
 5463TIP3   OH249923   4.353   4.442   8.293
 5463TIP3    H149924   4.330   4.394   8.212
 5463TIP3    H249925   4.422   4.501   8.259
 5464TIP3   OH249926   5.090   4.223   8.267
 5464TIP3    H149927   5.000   4.204   8.304
 5464TIP3    H249928   5.130   4.274   8.341
 5465TIP3   OH249929   5.171   4.406   8.440
 5465TIP3    H149930   5.254   4.408   8.490
 5465TIP3    H249931   5.174   4.490   8.389
 5466TIP3   OH249932   4.912   5.044   8.402
 5466TIP3    H149933   4.860   5.127   8.404
 5466TIP3    H249934   4.846   4.979   8.430
 5467TIP3   OH249935   5.653   4.412   8.423
 5467TIP3    H149936   5.596   4.376   8.352
 5467TIP3    H249937   5.664   4.504   8.391
 5468TIP3   OH249938   4.088   4.696   8.242
 5468TIP3    H149939   4.113   4.773   8.299
 5468TIP3    H249940   3.995   4.683   8.269
 5469TIP3   OH249941   5.264   5.109   8.281
 5469TIP3    H149942   5.286   5.110   8.375
 5469TIP3    H249943   5.169   5.085   8.283
 5470TIP3   OH249944   5.658   5.516   8.311
 5470TIP3    H149945   5.729   5.578   8.295
 5470TIP3    H249946   5.602   5.568   8.372
 5471TIP3   OH249947   4.639   5.195   8.119
 5471TIP3    H149948   4.602   5.145   8.044
 5471TIP3    H249949   4.598   5.148   8.195
 5472TIP3   OH249950   4.508   5.138   8.360
 5472TIP3    H149951   4.534   5.086   8.438
 5472TIP3    H249952   4.497   5.227   8.401
 5473TIP3   OH249953   4.145   4.880   8.424
 5473TIP3    H149954   4.141   4.804   8.485
 5473TIP3    H249955   4.239   4.905   8.427
 5474TIP3   OH249956   4.759   5.280   8.408
 5474TIP3    H149957   4.667   5.313   8.408
 5474TIP3    H249958   4.804   5.352   8.359
 5475TIP3   OH249959   4.490   5.378   8.473
 5475TIP3    H149960   4.482   5.451   8.409
 5475TIP3    H249961   4.508   5.429   8.552
 5476TIP3   OH249962   4.360   4.071   8.362
 5476TIP3    H149963   4.378   4.138   8.432
 5476TIP3    H249964   4.447   4.030   8.356
 5477TIP3   OH249965   4.200   5.144   8.282
 5477TIP3    H149966   4.266   5.180   8.342
 5477TIP3    H249967   4.258   5.086   8.230
 5478TIP3   OH249968   4.027   4.395   8.237
 5478TIP3    H149969   4.084   4.474   8.240
 5478TIP3    H249970   3.955   4.421   8.179
 5479TIP3   OH249971   4.839   5.395   8.130
 5479TIP3    H149972   4.782   5.316   8.121
 5479TIP3    H249973   4.921   5.366   8.085
 5480TIP3   OH249974   5.278   5.334   8.117
 5480TIP3    H149975   5.292   5.260   8.180
 5480TIP3    H249976   5.362   5.334   8.067
 5481TIP3   OH249977   4.387   4.914   8.116
 5481TIP3    H149978   4.425   4.895   8.203
 5481TIP3    H249979   4.464   4.901   8.056
 5482TIP3   OH249980   4.967   5.068   8.132
 5482TIP3    H149981   4.945   5.059   8.227
 5482TIP3    H249982   4.949   4.977   8.099
 5483TIP3   OH249983   4.497   4.754   8.343
 5483TIP3    H149984   4.449   4.686   8.394
 5483TIP3    H249985   4.538   4.699   8.272
 5484TIP3   OH249986   4.609   4.583   8.173
 5484TIP3    H149987   4.614   4.613   8.080
 5484TIP3    H249988   4.704   4.566   8.193
 5485TIP3   OH249989   5.549   4.798   8.135
 5485TIP3    H149990   5.529   4.769   8.042
 5485TIP3    H249991   5.549   4.897   8.124
 5486TIP3   OH249992   4.602   5.605   8.378
 5486TIP3    H149993   4.696   5.598   8.349
 5486TIP3    H249994   4.570   5.669   8.313
 5487TIP3   OH249995   3.922   5.100   8.268
 5487TIP3    H149996   4.021   5.100   8.271
 5487TIP3    H249997   3.905   5.046   8.189
 5488TIP3   OH249998   5.690   4.690   8.333
 5488TIP3    H149999   5.636   4.711   8.254
 5488TIP3    H250000   5.669   4.767   8.390
 5489TIP3   OH250001   5.495   4.413   8.185
 5489TIP3    H150002   5.509   4.459   8.102
 5489TIP3    H250003   5.460   4.326   8.155
 5490TIP3   OH250004   5.429   4.145   8.159
 5490TIP3    H150005   5.496   4.098   8.215
 5490TIP3    H250006   5.354   4.152   8.220
 5491TIP3   OH250007   5.630   4.009   8.290
 5491TIP3    H150008   5.654   3.952   8.213
 5491TIP3    H250009   5.717   4.046   8.316
 5492TIP3   OH250010   4.011   3.871   8.362
 5492TIP3    H150011   4.029   3.950   8.305
 5492TIP3    H250012   4.013   3.915   8.448
 5493TIP3   OH250013   4.139   4.053   8.212
 5493TIP3    H150014   4.199   3.994   8.162
 5493TIP3    H250015   4.191   4.066   8.294
 5494TIP3   OH250016   4.870   5.559   8.330
 5494TIP3    H150017   4.962   5.587   8.320
 5494TIP3    H250018   4.858   5.509   8.246
 5495TIP3   OH250019   4.090   5.534   8.163
 5495TIP3    H150020   4.070   5.586   8.244
 5495TIP3    H250021   4.161   5.476   8.195
 5496TIP3   OH250022   6.751   4.599   8.255
 5496TIP3    H150023   6.822   4.628   8.317
 5496TIP3    H250024   6.801   4.526   8.213
 5497TIP3   OH250025   6.995   4.652   8.362
 5497TIP3    H150026   6.983   4.702   8.444
 5497TIP3    H250027   7.059   4.709   8.311
 5498TIP3   OH250028   7.373   3.820   8.443
 5498TIP3    H150029   7.285   3.821   8.403
 5498TIP3    H250030   7.418   3.895   8.398
 5499TIP3   OH250031   7.480   5.272   8.212
 5499TIP3    H150032   7.499   5.366   8.231
 5499TIP3    H250033   7.560   5.234   8.253
 5500TIP3   OH250034   7.064   5.505   8.317
 5500TIP3    H150035   7.089   5.445   8.243
 5500TIP3    H250036   7.108   5.457   8.391
 5501TIP3   OH250037   7.165   4.812   8.239
 5501TIP3    H150038   7.131   4.824   8.147
 5501TIP3    H250039   7.261   4.801   8.218
 5502TIP3   OH250040   6.727   4.118   8.284
 5502TIP3    H150041   6.642   4.156   8.310
 5502TIP3    H250042   6.700   4.045   8.228
 5503TIP3   OH250043   6.362   4.179   8.149
 5503TIP3    H150044   6.306   4.134   8.217
 5503TIP3    H250045   6.299   4.247   8.115
 5504TIP3   OH250046   5.814   4.179   8.390
 5504TIP3    H150047   5.873   4.232   8.332
 5504TIP3    H250048   5.752   4.250   8.416
 5505TIP3   OH250049   6.243   4.454   8.293
 5505TIP3    H150050   6.214   4.397   8.221
 5505TIP3    H250051   6.305   4.511   8.243
 5506TIP3   OH250052   6.969   4.228   8.267
 5506TIP3    H150053   6.881   4.205   8.304
 5506TIP3    H250054   7.012   4.272   8.343
 5507TIP3   OH250055   7.055   4.406   8.445
 5507TIP3    H150056   7.145   4.415   8.480
 5507TIP3    H250057   7.046   4.487   8.391
 5508TIP3   OH250058   6.793   5.052   8.400
 5508TIP3    H150059   6.737   5.133   8.406
 5508TIP3    H250060   6.738   4.987   8.445
 5509TIP3   OH250061   7.543   4.416   8.433
 5509TIP3    H150062   7.491   4.376   8.360
 5509TIP3    H250063   7.553   4.506   8.394
 5510TIP3   OH250064   5.956   4.699   8.244
 5510TIP3    H150065   5.982   4.776   8.299
 5510TIP3    H250066   5.865   4.686   8.277
 5511TIP3   OH250067   7.145   5.102   8.291
 5511TIP3    H150068   7.121   5.134   8.379
 5511TIP3    H250069   7.061   5.061   8.262
 5512TIP3   OH250070   7.536   5.521   8.290
 5512TIP3    H150071   7.613   5.577   8.307
 5512TIP3    H250072   7.465   5.577   8.327
 5513TIP3   OH250073   6.526   5.198   8.125
 5513TIP3    H150074   6.498   5.143   8.050
 5513TIP3    H250075   6.483   5.150   8.200
 5514TIP3   OH250076   6.396   5.133   8.356
 5514TIP3    H150077   6.419   5.079   8.433
 5514TIP3    H250078   6.380   5.221   8.398
 5515TIP3   OH250079   6.030   4.877   8.426
 5515TIP3    H150080   6.023   4.800   8.484
 5515TIP3    H250081   6.126   4.894   8.425
 5516TIP3   OH250082   6.642   5.283   8.415
 5516TIP3    H150083   6.549   5.311   8.407
 5516TIP3    H250084   6.689   5.351   8.364
 5517TIP3   OH250085   6.368   5.371   8.470
 5517TIP3    H150086   6.358   5.446   8.408
 5517TIP3    H250087   6.398   5.417   8.548
 5518TIP3   OH250088   6.243   4.067   8.362
 5518TIP3    H150089   6.253   4.129   8.437
 5518TIP3    H250090   6.330   4.025   8.364
 5519TIP3   OH250091   6.085   5.141   8.271
 5519TIP3    H150092   6.148   5.176   8.334
 5519TIP3    H250093   6.146   5.089   8.216
 5520TIP3   OH250094   5.911   4.395   8.233
 5520TIP3    H150095   5.959   4.479   8.224
 5520TIP3    H250096   5.831   4.410   8.181
 5521TIP3   OH250097   6.724   5.400   8.130
 5521TIP3    H150098   6.666   5.321   8.120
 5521TIP3    H250099   6.805   5.371   8.082
 5522TIP3   OH250100   7.157   5.332   8.121
 5522TIP3    H150101   7.173   5.259   8.185
 5522TIP3    H250102   7.243   5.336   8.074
 5523TIP3   OH250103   6.276   4.918   8.111
 5523TIP3    H150104   6.318   4.896   8.195
 5523TIP3    H250105   6.348   4.897   8.046
 5524TIP3   OH250106   6.859   5.064   8.133
 5524TIP3    H150107   6.830   5.059   8.226
 5524TIP3    H250108   6.834   4.973   8.100
 5525TIP3   OH250109   6.384   4.748   8.345
 5525TIP3    H150110   6.368   4.679   8.411
 5525TIP3    H250111   6.424   4.696   8.271
 5526TIP3   OH250112   6.489   4.585   8.168
 5526TIP3    H150113   6.496   4.607   8.072
 5526TIP3    H250114   6.583   4.567   8.190
 5527TIP3   OH250115   7.418   4.792   8.132
 5527TIP3    H150116   7.409   4.761   8.039
 5527TIP3    H250117   7.419   4.890   8.119
 5528TIP3   OH250118   6.487   5.601   8.382
 5528TIP3    H150119   6.584   5.592   8.370
 5528TIP3    H250120   6.465   5.658   8.306
 5529TIP3   OH250121   5.807   5.093   8.271
 5529TIP3    H150122   5.905   5.094   8.276
 5529TIP3    H250123   5.794   5.041   8.189
 5530TIP3   OH250124   7.581   4.688   8.328
 5530TIP3    H150125   7.523   4.711   8.252
 5530TIP3    H250126   7.560   4.759   8.392
 5531TIP3   OH250127   7.379   4.411   8.185
 5531TIP3    H150128   7.393   4.462   8.104
 5531TIP3    H250129   7.347   4.326   8.149
 5532TIP3   OH250130   7.313   4.138   8.156
 5532TIP3    H150131   7.377   4.096   8.219
 5532TIP3    H250132   7.235   4.147   8.212
 5533TIP3   OH250133   7.516   4.004   8.301
 5533TIP3    H150134   7.548   3.945   8.228
 5533TIP3    H250135   7.598   4.050   8.328
 5534TIP3   OH250136   5.898   3.866   8.365
 5534TIP3    H150137   5.907   3.939   8.300
 5534TIP3    H250138   5.904   3.919   8.447
 5535TIP3   OH250139   6.019   4.045   8.207
 5535TIP3    H150140   6.082   3.987   8.159
 5535TIP3    H250141   6.067   4.057   8.292
 5536TIP3   OH250142   6.773   5.548   8.338
 5536TIP3    H150143   6.865   5.574   8.326
 5536TIP3    H250144   6.756   5.505   8.250
 5537TIP3   OH250145   5.981   5.535   8.165
 5537TIP3    H150146   5.959   5.584   8.247
 5537TIP3    H250147   6.053   5.477   8.194
 5538TIP3   OH250148   8.646   4.531   8.232
 5538TIP3    H150149   8.703   4.587   8.289
 5538TIP3    H250150   8.705   4.456   8.214
 5539TIP3   OH250151   8.841   4.665   8.362
 5539TIP3    H150152   8.857   4.730   8.432
 5539TIP3    H250153   8.896   4.705   8.290
 5540TIP3   OH250154   9.195   3.796   8.471
 5540TIP3    H150155   9.112   3.788   8.421
 5540TIP3    H250156   9.257   3.826   8.402
 5541TIP3   OH250157   0.014   5.279   8.189
 5541TIP3    H150158   0.001   5.374   8.173
 5541TIP3    H250159   0.082   5.276   8.259
 5542TIP3   OH250160   8.964   5.533   8.302
 5542TIP3    H150161   8.986   5.464   8.235
 5542TIP3    H250162   8.988   5.483   8.384
 5543TIP3   OH250163   9.014   4.792   8.214
 5543TIP3    H150164   9.008   4.774   8.117
 5543TIP3    H250165   9.109   4.811   8.225
 5544TIP3   OH250166   8.584   4.118   8.279
 5544TIP3    H150167   8.517   4.145   8.343
 5544TIP3    H250168   8.539   4.051   8.225
 5545TIP3   OH250169   8.234   4.160   8.139
 5545TIP3    H150170   8.183   4.133   8.220
 5545TIP3    H250171   8.177   4.231   8.104
 5546TIP3   OH250172   7.695   4.185   8.391
 5546TIP3    H150173   7.754   4.239   8.335
 5546TIP3    H250174   7.636   4.255   8.423
 5547TIP3   OH250175   8.156   4.459   8.297
 5547TIP3    H150176   8.123   4.410   8.219
 5547TIP3    H250177   8.218   4.518   8.252
 5548TIP3   OH250178   8.846   4.208   8.258
 5548TIP3    H150179   8.755   4.184   8.289
 5548TIP3    H250180   8.877   4.267   8.330
 5549TIP3   OH250181   8.919   4.399   8.436
 5549TIP3    H150182   9.012   4.397   8.411
 5549TIP3    H250183   8.890   4.478   8.385
 5550TIP3   OH250184   8.669   5.058   8.402
 5550TIP3    H150185   8.618   5.141   8.408
 5550TIP3    H250186   8.607   4.993   8.435
 5551TIP3   OH250187   7.846   4.698   8.245
 5551TIP3    H150188   7.864   4.780   8.296
 5551TIP3    H250189   7.754   4.681   8.274
 5552TIP3   OH250190   9.022   5.128   8.304
 5552TIP3    H150191   9.030   5.093   8.394
 5552TIP3    H250192   8.925   5.129   8.292
 5553TIP3   OH250193   8.408   5.192   8.120
 5553TIP3    H150194   8.367   5.145   8.046
 5553TIP3    H250195   8.366   5.146   8.196
 5554TIP3   OH250196   8.277   5.139   8.356
 5554TIP3    H150197   8.295   5.085   8.434
 5554TIP3    H250198   8.264   5.226   8.397
 5555TIP3   OH250199   7.925   4.878   8.418
 5555TIP3    H150200   7.938   4.797   8.470
 5555TIP3    H250201   8.016   4.904   8.399
 5556TIP3   OH250202   8.517   5.291   8.410
 5556TIP3    H150203   8.430   5.334   8.419
 5556TIP3    H250204   8.561   5.349   8.346
 5557TIP3   OH250205   8.243   5.379   8.483
 5557TIP3    H150206   8.230   5.446   8.413
 5557TIP3    H250207   8.270   5.438   8.554
 5558TIP3   OH250208   8.129   4.068   8.361
 5558TIP3    H150209   8.136   4.133   8.433
 5558TIP3    H250210   8.214   4.024   8.369
 5559TIP3   OH250211   7.971   5.140   8.271
 5559TIP3    H150212   8.026   5.175   8.343
 5559TIP3    H250213   8.038   5.093   8.220
 5560TIP3   OH250214   7.796   4.396   8.235
 5560TIP3    H150215   7.848   4.479   8.232
 5560TIP3    H250216   7.721   4.419   8.179
 5561TIP3   OH250217   8.601   5.404   8.134
 5561TIP3    H150218   8.546   5.323   8.124
 5561TIP3    H250219   8.681   5.374   8.084
 5562TIP3   OH250220   9.042   5.338   8.124
 5562TIP3    H150221   9.058   5.269   8.193
 5562TIP3    H250222   9.123   5.333   8.068
 5563TIP3   OH250223   8.158   4.926   8.117
 5563TIP3    H150224   8.195   4.895   8.201
 5563TIP3    H250225   8.231   4.904   8.054
 5564TIP3   OH250226   8.742   5.060   8.135
 5564TIP3    H150227   8.722   5.047   8.230
 5564TIP3    H250228   8.719   4.970   8.100
 5565TIP3   OH250229   8.257   4.755   8.336
 5565TIP3    H150230   8.262   4.696   8.413
 5565TIP3    H250231   8.297   4.698   8.267
 5566TIP3   OH250232   8.384   4.581   8.173
 5566TIP3    H150233   8.383   4.599   8.076
 5566TIP3    H250234   8.477   4.551   8.187
 5567TIP3   OH250235   9.292   4.799   8.191
 5567TIP3    H150236   9.275   4.746   8.111
 5567TIP3    H250237   9.279   4.892   8.158
 5568TIP3   OH250238   8.374   5.601   8.387
 5568TIP3    H150239   8.471   5.592   8.375
 5568TIP3    H250240   8.353   5.663   8.314
 5569TIP3   OH250241   7.691   5.102   8.270
 5569TIP3    H150242   7.788   5.095   8.271
 5569TIP3    H250243   7.669   5.050   8.190
 5570TIP3   OH250244   9.252   4.467   8.264
 5570TIP3    H150245   9.285   4.496   8.178
 5570TIP3    H250246   9.204   4.387   8.236
 5571TIP3   OH250247   9.157   4.214   8.145
 5571TIP3    H150248   9.215   4.142   8.171
 5571TIP3    H250249   9.081   4.165   8.107
 5572TIP3   OH250250   7.767   3.862   8.369
 5572TIP3    H150251   7.772   3.931   8.301
 5572TIP3    H250252   7.797   3.913   8.447
 5573TIP3   OH250253   7.895   4.040   8.207
 5573TIP3    H150254   7.959   3.986   8.157
 5573TIP3    H250255   7.942   4.053   8.292
 5574TIP3   OH250256   8.635   5.556   8.341
 5574TIP3    H150257   8.725   5.591   8.335
 5574TIP3    H250258   8.628   5.514   8.252
 5575TIP3   OH250259   7.868   5.537   8.170
 5575TIP3    H150260   7.847   5.578   8.256
 5575TIP3    H250261   7.937   5.473   8.193
 5576TIP3   OH250262   1.094   6.469   8.261
 5576TIP3    H150263   1.164   6.501   8.321
 5576TIP3    H250264   1.147   6.404   8.211
 5577TIP3   OH250265   1.340   6.541   8.361
 5577TIP3    H150266   1.324   6.594   8.441
 5577TIP3    H250267   1.403   6.596   8.309
 5578TIP3   OH250268   1.722   5.706   8.444
 5578TIP3    H150269   1.641   5.698   8.390
 5578TIP3    H250270   1.770   5.775   8.394
 5579TIP3   OH250271   1.822   7.161   8.207
 5579TIP3    H150272   1.840   7.256   8.226
 5579TIP3    H250273   1.898   7.122   8.253
 5580TIP3   OH250274   1.408   7.383   8.320
 5580TIP3    H150275   1.434   7.324   8.246
 5580TIP3    H250276   1.459   7.340   8.393
 5581TIP3   OH250277   1.513   6.694   8.234
 5581TIP3    H150278   1.477   6.714   8.146
 5581TIP3    H250279   1.607   6.682   8.210
 5582TIP3   OH250280   1.072   6.004   8.289
 5582TIP3    H150281   0.994   6.040   8.333
 5582TIP3    H250282   1.034   5.944   8.224
 5583TIP3   OH250283   0.710   6.051   8.140
 5583TIP3    H150284   0.650   6.026   8.214
 5583TIP3    H250285   0.658   6.121   8.094
 5584TIP3   OH250286   0.152   6.052   8.383
 5584TIP3    H150287   0.240   6.046   8.343
 5584TIP3    H250288   0.134   6.147   8.384
 5585TIP3   OH250289   0.617   6.342   8.298
 5585TIP3    H150290   0.571   6.289   8.229
 5585TIP3    H250291   0.678   6.392   8.241
 5586TIP3   OH250292   1.323   6.108   8.269
 5586TIP3    H150293   1.232   6.092   8.301
 5586TIP3    H250294   1.361   6.159   8.344
 5587TIP3   OH250295   1.397   6.296   8.445
 5587TIP3    H150296   1.486   6.302   8.485
 5587TIP3    H250297   1.393   6.378   8.391
 5588TIP3   OH250298   1.154   6.930   8.394
 5588TIP3    H150299   1.102   7.012   8.394
 5588TIP3    H250300   1.089   6.868   8.432
 5589TIP3   OH250301   1.887   6.295   8.432
 5589TIP3    H150302   1.831   6.257   8.361
 5589TIP3    H250303   1.897   6.386   8.399
 5590TIP3   OH250304   0.216   6.602   8.223
 5590TIP3    H150305   0.266   6.622   8.305
 5590TIP3    H250306   0.124   6.623   8.248
 5591TIP3   OH250307   1.493   6.992   8.292
 5591TIP3    H150308   1.477   7.022   8.383
 5591TIP3    H250309   1.404   6.962   8.267
 5592TIP3   OH250310   1.882   7.406   8.291
 5592TIP3    H150311   1.961   7.461   8.303
 5592TIP3    H250312   1.821   7.447   8.355
 5593TIP3   OH250313   0.888   7.097   8.105
 5593TIP3    H150314   0.849   7.029   8.048
 5593TIP3    H250315   0.857   7.066   8.193
 5594TIP3   OH250316   0.759   7.021   8.354
 5594TIP3    H150317   0.736   6.956   8.423
 5594TIP3    H250318   0.728   7.103   8.398
 5595TIP3   OH250319   0.348   6.714   8.439
 5595TIP3    H150320   0.345   6.733   8.534
 5595TIP3    H250321   0.410   6.781   8.405
 5596TIP3   OH250322   0.965   7.204   8.391
 5596TIP3    H150323   0.874   7.227   8.417
 5596TIP3    H250324   0.996   7.288   8.352
 5597TIP3   OH250325   0.700   7.261   8.479
 5597TIP3    H150326   0.703   7.319   8.400
 5597TIP3    H250327   0.707   7.329   8.548
 5598TIP3   OH250328   0.584   5.961   8.368
 5598TIP3    H150329   0.539   6.002   8.444
 5598TIP3    H250330   0.675   5.975   8.399
 5599TIP3   OH250331   0.457   6.959   8.312
 5599TIP3    H150332   0.514   7.018   8.363
 5599TIP3    H250333   0.518   6.932   8.241
 5600TIP3   OH250334   0.311   6.302   8.197
 5600TIP3    H150335   0.301   6.380   8.254
 5600TIP3    H250336   0.219   6.280   8.174
 5601TIP3   OH250337   1.070   7.298   8.117
 5601TIP3    H150338   1.015   7.216   8.115
 5601TIP3    H250339   1.152   7.263   8.075
 5602TIP3   OH250340   1.500   7.214   8.118
 5602TIP3    H150341   1.519   7.142   8.183
 5602TIP3    H250342   1.588   7.223   8.074
 5603TIP3   OH250343   0.622   6.811   8.122
 5603TIP3    H150344   0.667   6.773   8.201
 5603TIP3    H250345   0.691   6.794   8.054
 5604TIP3   OH250346   1.207   6.953   8.128
 5604TIP3    H150347   1.187   6.938   8.223
 5604TIP3    H250348   1.181   6.865   8.091
 5605TIP3   OH250349   0.729   6.646   8.342
 5605TIP3    H150350   0.710   6.576   8.405
 5605TIP3    H250351   0.764   6.593   8.266
 5606TIP3   OH250352   0.824   6.486   8.159
 5606TIP3    H150353   0.811   6.483   8.061
 5606TIP3    H250354   0.921   6.472   8.168
 5607TIP3   OH250355   1.774   6.679   8.137
 5607TIP3    H150356   1.765   6.656   8.041
 5607TIP3    H250357   1.774   6.778   8.132
 5608TIP3   OH250358   0.834   7.485   8.382
 5608TIP3    H150359   0.930   7.505   8.389
 5608TIP3    H250360   0.811   7.537   8.304
 5609TIP3   OH250361   0.195   6.971   8.316
 5609TIP3    H150362   0.292   6.963   8.298
 5609TIP3    H250363   0.158   6.964   8.227
 5610TIP3   OH250364   1.925   6.569   8.330
 5610TIP3    H150365   1.867   6.594   8.254
 5610TIP3    H250366   1.904   6.640   8.393
 5611TIP3   OH250367   1.719   6.294   8.189
 5611TIP3    H150368   1.742   6.344   8.110
 5611TIP3    H250369   1.688   6.209   8.153
 5612TIP3   OH250370   1.660   6.026   8.153
 5612TIP3    H150371   1.723   5.979   8.213
 5612TIP3    H250372   1.582   6.032   8.211
 5613TIP3   OH250373   1.860   5.893   8.289
 5613TIP3    H150374   1.891   5.834   8.216
 5613TIP3    H250375   1.944   5.936   8.317
 5614TIP3   OH250376   0.250   5.758   8.374
 5614TIP3    H150377   0.247   5.820   8.299
 5614TIP3    H250378   0.263   5.821   8.447
 5615TIP3   OH250379   0.367   5.942   8.223
 5615TIP3    H150380   0.419   5.883   8.164
 5615TIP3    H250381   0.430   5.941   8.298
 5616TIP3   OH250382   1.108   7.446   8.332
 5616TIP3    H150383   1.197   7.474   8.309
 5616TIP3    H250384   1.085   7.405   8.245
 5617TIP3   OH250385   0.352   7.407   8.193
 5617TIP3    H150386   0.330   7.434   8.284
 5617TIP3    H250387   0.428   7.349   8.206
 5618TIP3   OH250388   2.979   6.480   8.257
 5618TIP3    H150389   3.048   6.514   8.317
 5618TIP3    H250390   3.031   6.410   8.213
 5619TIP3   OH250391   3.231   6.542   8.367
 5619TIP3    H150392   3.218   6.593   8.448
 5619TIP3    H250393   3.298   6.594   8.316
 5620TIP3   OH250394   3.601   5.706   8.436
 5620TIP3    H150395   3.517   5.694   8.389
 5620TIP3    H250396   3.641   5.781   8.387
 5621TIP3   OH250397   3.705   7.153   8.218
 5621TIP3    H150398   3.720   7.249   8.234
 5621TIP3    H250399   3.787   7.119   8.260
 5622TIP3   OH250400   3.298   7.385   8.320
 5622TIP3    H150401   3.324   7.327   8.246
 5622TIP3    H250402   3.342   7.338   8.394
 5623TIP3   OH250403   3.400   6.697   8.238
 5623TIP3    H150404   3.364   6.714   8.149
 5623TIP3    H250405   3.495   6.683   8.214
 5624TIP3   OH250406   2.956   6.002   8.283
 5624TIP3    H150407   2.872   6.040   8.307
 5624TIP3    H250408   2.929   5.929   8.226
 5625TIP3   OH250409   2.591   6.069   8.159
 5625TIP3    H150410   2.533   6.029   8.228
 5625TIP3    H250411   2.529   6.132   8.116
 5626TIP3   OH250412   2.038   6.068   8.392
 5626TIP3    H150413   2.098   6.121   8.334
 5626TIP3    H250414   1.978   6.140   8.419
 5627TIP3   OH250415   2.475   6.335   8.293
 5627TIP3    H150416   2.449   6.288   8.212
 5627TIP3    H250417   2.547   6.389   8.256
 5628TIP3   OH250418   3.203   6.105   8.275
 5628TIP3    H150419   3.112   6.086   8.305
 5628TIP3    H250420   3.238   6.160   8.349
 5629TIP3   OH250421   3.278   6.293   8.444
 5629TIP3    H150422   3.362   6.291   8.492
 5629TIP3    H250423   3.282   6.377   8.394
 5630TIP3   OH250424   3.015   6.939   8.400
 5630TIP3    H150425   2.964   7.022   8.403
 5630TIP3    H250426   2.948   6.873   8.421
 5631TIP3   OH250427   3.774   6.295   8.428
 5631TIP3    H150428   3.727   6.248   8.356
 5631TIP3    H250429   3.779   6.385   8.389
 5632TIP3   OH250430   2.191   6.584   8.246
 5632TIP3    H150431   2.210   6.664   8.300
 5632TIP3    H250432   2.097   6.567   8.272
 5633TIP3   OH250433   3.385   6.990   8.288
 5633TIP3    H150434   3.402   6.994   8.382
 5633TIP3    H250435   3.290   6.966   8.285
 5634TIP3   OH250436   3.764   7.399   8.299
 5634TIP3    H150437   3.839   7.460   8.297
 5634TIP3    H250438   3.707   7.444   8.363
 5635TIP3   OH250439   2.756   7.090   8.111
 5635TIP3    H150440   2.726   7.034   8.038
 5635TIP3    H250441   2.713   7.043   8.187
 5636TIP3   OH250442   2.625   7.018   8.356
 5636TIP3    H150443   2.642   6.971   8.439
 5636TIP3    H250444   2.612   7.109   8.390
 5637TIP3   OH250445   2.260   6.768   8.420
 5637TIP3    H150446   2.261   6.691   8.481
 5637TIP3    H250447   2.354   6.788   8.412
 5638TIP3   OH250448   2.868   7.176   8.407
 5638TIP3    H150449   2.777   7.213   8.411
 5638TIP3    H250450   2.915   7.249   8.361
 5639TIP3   OH250451   2.605   7.259   8.465
 5639TIP3    H150452   2.593   7.326   8.394
 5639TIP3    H250453   2.618   7.318   8.541
 5640TIP3   OH250454   2.469   5.950   8.364
 5640TIP3    H150455   2.497   6.011   8.436
 5640TIP3    H250456   2.543   5.888   8.359
 5641TIP3   OH250457   2.316   7.031   8.274
 5641TIP3    H150458   2.380   7.067   8.337
 5641TIP3    H250459   2.374   6.972   8.226
 5642TIP3   OH250460   2.142   6.280   8.241
 5642TIP3    H150461   2.197   6.361   8.248
 5642TIP3    H250462   2.072   6.307   8.181
 5643TIP3   OH250463   2.953   7.283   8.131
 5643TIP3    H150464   2.897   7.203   8.121
 5643TIP3    H250465   3.035   7.252   8.087
 5644TIP3   OH250466   3.391   7.213   8.115
 5644TIP3    H150467   3.405   7.140   8.179
 5644TIP3    H250468   3.478   7.220   8.070
 5645TIP3   OH250469   2.499   6.810   8.124
 5645TIP3    H150470   2.543   6.795   8.209
 5645TIP3    H250471   2.574   6.794   8.062
 5646TIP3   OH250472   3.080   6.955   8.130
 5646TIP3    H150473   3.054   6.949   8.224
 5646TIP3    H250474   3.065   6.861   8.100
 5647TIP3   OH250475   2.608   6.639   8.345
 5647TIP3    H150476   2.542   6.576   8.379
 5647TIP3    H250477   2.651   6.585   8.274
 5648TIP3   OH250478   2.719   6.466   8.178
 5648TIP3    H150479   2.720   6.487   8.082
 5648TIP3    H250480   2.815   6.455   8.196
 5649TIP3   OH250481   3.664   6.680   8.138
 5649TIP3    H150482   3.648   6.655   8.044
 5649TIP3    H250483   3.659   6.779   8.132
 5650TIP3   OH250484   2.720   7.491   8.380
 5650TIP3    H150485   2.818   7.486   8.370
 5650TIP3    H250486   2.696   7.549   8.305
 5651TIP3   OH250487   2.035   6.985   8.264
 5651TIP3    H150488   2.134   6.981   8.265
 5651TIP3    H250489   2.015   6.929   8.187
 5652TIP3   OH250490   3.805   6.566   8.335
 5652TIP3    H150491   3.752   6.593   8.256
 5652TIP3    H250492   3.787   6.639   8.396
 5653TIP3   OH250493   3.599   6.300   8.186
 5653TIP3    H150494   3.618   6.349   8.105
 5653TIP3    H250495   3.572   6.213   8.150
 5654TIP3   OH250496   3.543   6.032   8.157
 5654TIP3    H150497   3.607   5.986   8.216
 5654TIP3    H250498   3.466   6.041   8.216
 5655TIP3   OH250499   3.743   5.894   8.288
 5655TIP3    H150500   3.776   5.831   8.219
 5655TIP3    H250501   3.827   5.934   8.319
 5656TIP3   OH250502   2.127   5.749   8.365
 5656TIP3    H150503   2.138   5.822   8.302
 5656TIP3    H250504   2.129   5.799   8.448
 5657TIP3   OH250505   2.249   5.936   8.209
 5657TIP3    H150506   2.312   5.878   8.160
 5657TIP3    H250507   2.301   5.951   8.291
 5658TIP3   OH250508   2.991   7.442   8.332
 5658TIP3    H150509   3.082   7.470   8.313
 5658TIP3    H250510   2.974   7.392   8.248
 5659TIP3   OH250511   2.213   7.418   8.164
 5659TIP3    H150512   2.194   7.465   8.247
 5659TIP3    H250513   2.281   7.355   8.191
 5660TIP3   OH250514   4.864   6.475   8.261
 5660TIP3    H150515   4.933   6.517   8.315
 5660TIP3    H250516   4.920   6.410   8.216
 5661TIP3   OH250517   5.114   6.543   8.355
 5661TIP3    H150518   5.069   6.604   8.415
 5661TIP3    H250519   5.172   6.601   8.300
 5662TIP3   OH250520   5.487   5.702   8.443
 5662TIP3    H150521   5.401   5.691   8.401
 5662TIP3    H250522   5.527   5.776   8.391
 5663TIP3   OH250523   5.595   7.158   8.207
 5663TIP3    H150524   5.612   7.250   8.235
 5663TIP3    H250525   5.669   7.115   8.254
 5664TIP3   OH250526   5.180   7.387   8.317
 5664TIP3    H150527   5.208   7.330   8.242
 5664TIP3    H250528   5.224   7.340   8.391
 5665TIP3   OH250529   5.284   6.701   8.235
 5665TIP3    H150530   5.250   6.714   8.144
 5665TIP3    H250531   5.378   6.688   8.214
 5666TIP3   OH250532   4.842   6.007   8.280
 5666TIP3    H150533   4.760   6.040   8.319
 5666TIP3    H250534   4.812   5.936   8.223
 5667TIP3   OH250535   4.475   6.061   8.148
 5667TIP3    H150536   4.415   6.022   8.215
 5667TIP3    H250537   4.416   6.129   8.107
 5668TIP3   OH250538   3.927   6.063   8.391
 5668TIP3    H150539   3.988   6.114   8.334
 5668TIP3    H250540   3.871   6.137   8.422
 5669TIP3   OH250541   4.362   6.333   8.289
 5669TIP3    H150542   4.338   6.286   8.207
 5669TIP3    H250543   4.429   6.392   8.252
 5670TIP3   OH250544   5.087   6.111   8.269
 5670TIP3    H150545   4.998   6.089   8.304
 5670TIP3    H250546   5.128   6.158   8.345
 5671TIP3   OH250547   5.170   6.292   8.446
 5671TIP3    H150548   5.254   6.292   8.494
 5671TIP3    H250549   5.174   6.374   8.393
 5672TIP3   OH250550   4.905   6.931   8.400
 5672TIP3    H150551   4.856   7.016   8.405
 5672TIP3    H250552   4.837   6.867   8.424
 5673TIP3   OH250553   5.657   6.297   8.430
 5673TIP3    H150554   5.602   6.256   8.361
 5673TIP3    H250555   5.664   6.389   8.395
 5674TIP3   OH250556   4.077   6.581   8.249
 5674TIP3    H150557   4.098   6.662   8.299
 5674TIP3    H250558   3.990   6.557   8.286
 5675TIP3   OH250559   5.271   6.995   8.286
 5675TIP3    H150560   5.286   6.998   8.381
 5675TIP3    H250561   5.177   6.967   8.281
 5676TIP3   OH250562   5.648   7.399   8.313
 5676TIP3    H150563   5.723   7.459   8.302
 5676TIP3    H250564   5.597   7.447   8.382
 5677TIP3   OH250565   4.639   7.083   8.125
 5677TIP3    H150566   4.608   7.031   8.049
 5677TIP3    H250567   4.597   7.034   8.199
 5678TIP3   OH250568   4.508   7.016   8.359
 5678TIP3    H150569   4.528   6.971   8.441
 5678TIP3    H250570   4.498   7.108   8.393
 5679TIP3   OH250571   4.146   6.766   8.423
 5679TIP3    H150572   4.150   6.683   8.472
 5679TIP3    H250573   4.241   6.787   8.412
 5680TIP3   OH250574   4.758   7.169   8.409
 5680TIP3    H150575   4.667   7.204   8.410
 5680TIP3    H250576   4.805   7.239   8.360
 5681TIP3   OH250577   4.490   7.258   8.463
 5681TIP3    H150578   4.478   7.325   8.393
 5681TIP3    H250579   4.506   7.315   8.539
 5682TIP3   OH250580   4.358   5.953   8.364
 5682TIP3    H150581   4.366   6.019   8.436
 5682TIP3    H250582   4.449   5.921   8.363
 5683TIP3   OH250583   4.203   7.029   8.276
 5683TIP3    H150584   4.266   7.065   8.340
 5683TIP3    H250585   4.262   6.969   8.229
 5684TIP3   OH250586   4.032   6.278   8.237
 5684TIP3    H150587   4.094   6.353   8.238
 5684TIP3    H250588   3.964   6.309   8.177
 5685TIP3   OH250589   4.843   7.281   8.129
 5685TIP3    H150590   4.785   7.202   8.121
 5685TIP3    H250591   4.924   7.249   8.084
 5686TIP3   OH250592   5.278   7.215   8.116
 5686TIP3    H150593   5.294   7.141   8.178
 5686TIP3    H250594   5.365   7.222   8.070
 5687TIP3   OH250595   4.388   6.811   8.122
 5687TIP3    H150596   4.437   6.793   8.204
 5687TIP3    H250597   4.458   6.793   8.055
 5688TIP3   OH250598   4.968   6.956   8.131
 5688TIP3    H150599   4.943   6.949   8.226
 5688TIP3    H250600   4.951   6.865   8.099
 5689TIP3   OH250601   4.499   6.639   8.344
 5689TIP3    H150602   4.446   6.574   8.392
 5689TIP3    H250603   4.540   6.585   8.273
 5690TIP3   OH250604   4.602   6.465   8.175
 5690TIP3    H150605   4.604   6.485   8.078
 5690TIP3    H250606   4.698   6.453   8.196
 5691TIP3   OH250607   5.555   6.682   8.133
 5691TIP3    H150608   5.533   6.655   8.040
 5691TIP3    H250609   5.551   6.781   8.126
 5692TIP3   OH250610   4.603   7.492   8.383
 5692TIP3    H150611   4.700   7.493   8.372
 5692TIP3    H250612   4.577   7.546   8.306
 5693TIP3   OH250613   3.922   6.983   8.272
 5693TIP3    H150614   4.020   6.979   8.273
 5693TIP3    H250615   3.901   6.930   8.193
 5694TIP3   OH250616   5.692   6.570   8.330
 5694TIP3    H150617   5.641   6.596   8.250
 5694TIP3    H250618   5.671   6.644   8.390
 5695TIP3   OH250619   5.487   6.297   8.184
 5695TIP3    H150620   5.510   6.345   8.103
 5695TIP3    H250621   5.460   6.209   8.149
 5696TIP3   OH250622   5.430   6.025   8.157
 5696TIP3    H150623   5.491   5.979   8.219
 5696TIP3    H250624   5.350   6.033   8.212
 5697TIP3   OH250625   5.625   5.888   8.301
 5697TIP3    H150626   5.654   5.834   8.222
 5697TIP3    H250627   5.709   5.934   8.323
 5698TIP3   OH250628   4.014   5.748   8.360
 5698TIP3    H150629   4.034   5.824   8.300
 5698TIP3    H250630   4.011   5.796   8.445
 5699TIP3   OH250631   4.134   5.943   8.216
 5699TIP3    H150632   4.197   5.886   8.167
 5699TIP3    H250633   4.184   5.959   8.298
 5700TIP3   OH250634   4.871   7.444   8.332
 5700TIP3    H150635   4.960   7.478   8.315
 5700TIP3    H250636   4.858   7.393   8.249
 5701TIP3   OH250637   4.105   7.425   8.170
 5701TIP3    H150638   4.083   7.474   8.252
 5701TIP3    H250639   4.169   7.359   8.202
 5702TIP3   OH250640   6.746   6.475   8.264
 5702TIP3    H150641   6.816   6.516   8.317
 5702TIP3    H250642   6.803   6.411   8.216
 5703TIP3   OH250643   6.995   6.541   8.356
 5703TIP3    H150644   6.981   6.592   8.436
 5703TIP3    H250645   7.054   6.599   8.300
 5704TIP3   OH250646   7.380   5.707   8.441
 5704TIP3    H150647   7.293   5.698   8.400
 5704TIP3    H250648   7.414   5.787   8.396
 5705TIP3   OH250649   7.482   7.148   8.213
 5705TIP3    H150650   7.499   7.242   8.232
 5705TIP3    H250651   7.558   7.108   8.262
 5706TIP3   OH250652   7.064   7.383   8.319
 5706TIP3    H150653   7.091   7.323   8.247
 5706TIP3    H250654   7.109   7.340   8.395
 5707TIP3   OH250655   7.169   6.697   8.236
 5707TIP3    H150656   7.133   6.712   8.145
 5707TIP3    H250657   7.263   6.682   8.213
 5708TIP3   OH250658   6.726   6.001   8.284
 5708TIP3    H150659   6.644   6.047   8.306
 5708TIP3    H250660   6.695   5.933   8.222
 5709TIP3   OH250661   6.357   6.078   8.154
 5709TIP3    H150662   6.300   6.030   8.219
 5709TIP3    H250663   6.296   6.150   8.126
 5710TIP3   OH250664   5.809   6.063   8.392
 5710TIP3    H150665   5.874   6.112   8.337
 5710TIP3    H250666   5.754   6.139   8.420
 5711TIP3   OH250667   6.245   6.346   8.296
 5711TIP3    H150668   6.204   6.291   8.227
 5711TIP3    H250669   6.314   6.392   8.246
 5712TIP3   OH250670   6.975   6.110   8.271
 5712TIP3    H150671   6.885   6.088   8.306
 5712TIP3    H250672   7.015   6.158   8.346
 5713TIP3   OH250673   7.052   6.294   8.449
 5713TIP3    H150674   7.138   6.290   8.495
 5713TIP3    H250675   7.061   6.375   8.393
 5714TIP3   OH250676   6.787   6.933   8.403
 5714TIP3    H150677   6.737   7.017   8.412
 5714TIP3    H250678   6.721   6.866   8.424
 5715TIP3   OH250679   7.544   6.298   8.428
 5715TIP3    H150680   7.489   6.257   8.357
 5715TIP3    H250681   7.554   6.388   8.390
 5716TIP3   OH250682   5.959   6.582   8.247
 5716TIP3    H150683   5.980   6.663   8.298
 5716TIP3    H250684   5.866   6.569   8.275
 5717TIP3   OH250685   7.145   6.991   8.285
 5717TIP3    H150686   7.153   7.005   8.380
 5717TIP3    H250687   7.052   6.964   8.276
 5718TIP3   OH250688   7.533   7.400   8.294
 5718TIP3    H150689   7.609   7.459   8.304
 5718TIP3    H250690   7.462   7.454   8.334
 5719TIP3   OH250691   6.521   7.086   8.119
 5719TIP3    H150692   6.490   7.035   8.042
 5719TIP3    H250693   6.481   7.034   8.193
 5720TIP3   OH250694   6.399   7.019   8.362
 5720TIP3    H150695   6.418   6.965   8.440
 5720TIP3    H250696   6.394   7.108   8.403
 5721TIP3   OH250697   6.029   6.767   8.424
 5721TIP3    H150698   6.034   6.687   8.479
 5721TIP3    H250699   6.122   6.796   8.423
 5722TIP3   OH250700   6.643   7.174   8.418
 5722TIP3    H150701   6.553   7.212   8.419
 5722TIP3    H250702   6.691   7.243   8.369
 5723TIP3   OH250703   6.381   7.264   8.471
 5723TIP3    H150704   6.367   7.335   8.404
 5723TIP3    H250705   6.393   7.320   8.549
 5724TIP3   OH250706   6.247   5.949   8.367
 5724TIP3    H150707   6.270   6.014   8.438
 5724TIP3    H250708   6.329   5.898   8.363
 5725TIP3   OH250709   6.087   7.026   8.279
 5725TIP3    H150710   6.153   7.060   8.341
 5725TIP3    H250711   6.145   6.974   8.221
 5726TIP3   OH250712   5.911   6.285   8.232
 5726TIP3    H150713   5.954   6.370   8.248
 5726TIP3    H250714   5.836   6.305   8.175
 5727TIP3   OH250715   6.717   7.284   8.132
 5727TIP3    H150716   6.658   7.206   8.122
 5727TIP3    H250717   6.797   7.252   8.083
 5728TIP3   OH250718   7.160   7.213   8.116
 5728TIP3    H150719   7.173   7.137   8.178
 5728TIP3    H250720   7.247   7.220   8.072
 5729TIP3   OH250721   6.273   6.807   8.121
 5729TIP3    H150722   6.318   6.794   8.206
 5729TIP3    H250723   6.344   6.784   8.056
 5730TIP3   OH250724   6.853   6.956   8.135
 5730TIP3    H150725   6.825   6.949   8.229
 5730TIP3    H250726   6.835   6.864   8.103
 5731TIP3   OH250727   6.380   6.641   8.343
 5731TIP3    H150728   6.315   6.579   8.379
 5731TIP3    H250729   6.424   6.584   8.275
 5732TIP3   OH250730   6.487   6.465   8.179
 5732TIP3    H150731   6.490   6.481   8.082
 5732TIP3    H250732   6.582   6.454   8.202
 5733TIP3   OH250733   7.431   6.674   8.130
 5733TIP3    H150734   7.416   6.647   8.036
 5733TIP3    H250735   7.427   6.773   8.122
 5734TIP3   OH250736   6.485   7.501   8.394
 5734TIP3    H150737   6.580   7.503   8.373
 5734TIP3    H250738   6.449   7.561   8.327
 5735TIP3   OH250739   5.809   6.982   8.268
 5735TIP3    H150740   5.907   6.980   8.271
 5735TIP3    H250741   5.791   6.930   8.188
 5736TIP3   OH250742   7.582   6.567   8.327
 5736TIP3    H150743   7.521   6.590   8.253
 5736TIP3    H250744   7.564   6.639   8.391
 5737TIP3   OH250745   7.376   6.301   8.177
 5737TIP3    H150746   7.390   6.354   8.098
 5737TIP3    H250747   7.348   6.214   8.141
 5738TIP3   OH250748   7.309   6.026   8.144
 5738TIP3    H150749   7.373   5.978   8.201
 5738TIP3    H250750   7.235   6.035   8.206
 5739TIP3   OH250751   7.505   5.901   8.290
 5739TIP3    H150752   7.535   5.841   8.217
 5739TIP3    H250753   7.589   5.939   8.323
 5740TIP3   OH250754   5.898   5.752   8.360
 5740TIP3    H150755   5.906   5.826   8.296
 5740TIP3    H250756   5.900   5.805   8.442
 5741TIP3   OH250757   6.021   5.940   8.214
 5741TIP3    H150758   6.084   5.880   8.167
 5741TIP3    H250759   6.065   5.948   8.300
 5742TIP3   OH250760   6.752   7.449   8.330
 5742TIP3    H150761   6.841   7.481   8.311
 5742TIP3    H250762   6.736   7.398   8.247
 5743TIP3   OH250763   5.996   7.427   8.168
 5743TIP3    H150764   5.970   7.473   8.251
 5743TIP3    H250765   6.056   7.358   8.202
 5744TIP3   OH250766   8.641   6.427   8.235
 5744TIP3    H150767   8.695   6.480   8.297
 5744TIP3    H250768   8.704   6.357   8.214
 5745TIP3   OH250769   8.848   6.543   8.361
 5745TIP3    H150770   8.860   6.609   8.431
 5745TIP3    H250771   8.904   6.584   8.290
 5746TIP3   OH250772   9.200   5.679   8.465
 5746TIP3    H150773   9.108   5.678   8.433
 5746TIP3    H250774   9.247   5.736   8.403
 5747TIP3   OH250775   0.018   7.157   8.194
 5747TIP3    H150776   0.010   7.250   8.168
 5747TIP3    H250777   0.077   7.160   8.271
 5748TIP3   OH250778   8.964   7.428   8.302
 5748TIP3    H150779   8.995   7.346   8.260
 5748TIP3    H250780   8.976   7.405   8.396
 5749TIP3   OH250781   9.024   6.666   8.215
 5749TIP3    H150782   9.018   6.630   8.123
 5749TIP3    H250783   9.120   6.683   8.224
 5750TIP3   OH250784   8.591   5.999   8.281
 5750TIP3    H150785   8.522   6.037   8.337
 5750TIP3    H250786   8.543   5.935   8.227
 5751TIP3   OH250787   8.242   6.048   8.155
 5751TIP3    H150788   8.184   6.017   8.229
 5751TIP3    H250789   8.182   6.109   8.108
 5752TIP3   OH250790   7.691   6.066   8.391
 5752TIP3    H150791   7.754   6.115   8.334
 5752TIP3    H250792   7.638   6.142   8.423
 5753TIP3   OH250793   8.170   6.343   8.286
 5753TIP3    H150794   8.132   6.296   8.209
 5753TIP3    H250795   8.242   6.393   8.241
 5754TIP3   OH250796   8.845   6.095   8.267
 5754TIP3    H150797   8.755   6.071   8.298
 5754TIP3    H250798   8.876   6.156   8.338
 5755TIP3   OH250799   8.916   6.286   8.439
 5755TIP3    H150800   9.009   6.276   8.413
 5755TIP3    H250801   8.895   6.367   8.388
 5756TIP3   OH250802   8.671   6.940   8.401
 5756TIP3    H150803   8.623   7.025   8.405
 5756TIP3    H250804   8.604   6.877   8.428
 5757TIP3   OH250805   7.845   6.586   8.246
 5757TIP3    H150806   7.865   6.664   8.302
 5757TIP3    H250807   7.753   6.566   8.273
 5758TIP3   OH250808   9.030   7.013   8.303
 5758TIP3    H150809   9.039   6.985   8.395
 5758TIP3    H250810   8.933   7.011   8.292
 5759TIP3   OH250811   8.408   7.089   8.119
 5759TIP3    H150812   8.372   7.040   8.043
 5759TIP3    H250813   8.368   7.038   8.193
 5760TIP3   OH250814   8.270   7.022   8.358
 5760TIP3    H150815   8.302   6.974   8.435
 5760TIP3    H250816   8.268   7.113   8.393
 5761TIP3   OH250817   7.921   6.764   8.418
 5761TIP3    H150818   7.941   6.692   8.479
 5761TIP3    H250819   8.010   6.795   8.392
 5762TIP3   OH250820   8.524   7.172   8.406
 5762TIP3    H150821   8.438   7.212   8.427
 5762TIP3    H250822   8.563   7.237   8.345
 5763TIP3   OH250823   8.258   7.263   8.471
 5763TIP3    H150824   8.241   7.327   8.399
 5763TIP3    H250825   8.271   7.324   8.544
 5764TIP3   OH250826   8.124   5.961   8.373
 5764TIP3    H150827   8.134   6.034   8.438
 5764TIP3    H250828   8.212   5.923   8.385
 5765TIP3   OH250829   7.970   7.022   8.271
 5765TIP3    H150830   8.028   7.062   8.338
 5765TIP3    H250831   8.038   6.979   8.217
 5766TIP3   OH250832   7.803   6.278   8.237
 5766TIP3    H150833   7.858   6.358   8.233
 5766TIP3    H250834   7.728   6.301   8.181
 5767TIP3   OH250835   8.609   7.288   8.131
 5767TIP3    H150836   8.551   7.209   8.124
 5767TIP3    H250837   8.687   7.255   8.082
 5768TIP3   OH250838   9.047   7.219   8.122
 5768TIP3    H150839   9.061   7.147   8.188
 5768TIP3    H250840   9.129   7.214   8.067
 5769TIP3   OH250841   8.154   6.823   8.120
 5769TIP3    H150842   8.189   6.790   8.203
 5769TIP3    H250843   8.227   6.799   8.057
 5770TIP3   OH250844   8.746   6.941   8.133
 5770TIP3    H150845   8.730   6.929   8.228
 5770TIP3    H250846   8.718   6.851   8.099
 5771TIP3   OH250847   8.247   6.649   8.333
 5771TIP3    H150848   8.200   6.583   8.387
 5771TIP3    H250849   8.293   6.590   8.270
 5772TIP3   OH250850   8.381   6.467   8.173
 5772TIP3    H150851   8.377   6.479   8.075
 5772TIP3    H250852   8.477   6.448   8.187
 5773TIP3   OH250853   9.297   6.684   8.201
 5773TIP3    H150854   9.288   6.638   8.115
 5773TIP3    H250855   9.277   6.777   8.171
 5774TIP3   OH250856   8.375   7.498   8.388
 5774TIP3    H150857   8.472   7.486   8.376
 5774TIP3    H250858   8.354   7.553   8.310
 5775TIP3   OH250859   7.690   6.980   8.274
 5775TIP3    H150860   7.788   6.975   8.271
 5775TIP3    H250861   7.665   6.938   8.190
 5776TIP3   OH250862   9.248   6.358   8.271
 5776TIP3    H150863   9.274   6.388   8.183
 5776TIP3    H250864   9.237   6.264   8.253
 5777TIP3   OH250865   9.161   6.088   8.129
 5777TIP3    H150866   9.216   6.021   8.171
 5777TIP3    H250867   9.084   6.036   8.100
 5778TIP3   OH250868   7.769   5.745   8.370
 5778TIP3    H150869   7.774   5.815   8.302
 5778TIP3    H250870   7.800   5.796   8.447
 5779TIP3   OH250871   7.897   5.923   8.217
 5779TIP3    H150872   7.961   5.870   8.163
 5779TIP3    H250873   7.947   5.937   8.299
 5780TIP3   OH250874   8.633   7.438   8.343
 5780TIP3    H150875   8.716   7.485   8.327
 5780TIP3    H250876   8.623   7.393   8.256
 5781TIP3   OH250877   7.872   7.432   8.173
 5781TIP3    H150878   7.850   7.474   8.258
 5781TIP3    H250879   7.933   7.362   8.199
 5782TIP3   OH250880   1.095   8.346   8.268
 5782TIP3    H150881   1.172   8.369   8.325
 5782TIP3    H250882   1.141   8.282   8.212
 5783TIP3   OH250883   1.348   8.417   8.370
 5783TIP3    H150884   1.325   8.470   8.448
 5783TIP3    H250885   1.416   8.473   8.324
 5784TIP3   OH250886   1.714   7.592   8.442
 5784TIP3    H150887   1.634   7.589   8.390
 5784TIP3    H250888   1.768   7.658   8.393
 5785TIP3   OH250889   1.842   9.024   8.214
 5785TIP3    H150890   1.876   9.108   8.253
 5785TIP3    H250891   1.908   8.961   8.251
 5786TIP3   OH250892   1.361   9.271   8.329
 5786TIP3    H150893   1.415   9.220   8.264
 5786TIP3    H250894   1.408   9.249   8.411
 5787TIP3   OH250895   1.510   8.572   8.242
 5787TIP3    H150896   1.476   8.587   8.150
 5787TIP3    H250897   1.607   8.573   8.223
 5788TIP3   OH250898   1.072   7.888   8.294
 5788TIP3    H150899   0.995   7.921   8.342
 5788TIP3    H250900   1.031   7.828   8.230
 5789TIP3   OH250901   0.715   7.936   8.146
 5789TIP3    H150902   0.654   7.909   8.218
 5789TIP3    H250903   0.662   8.003   8.097
 5790TIP3   OH250904   0.153   7.932   8.396
 5790TIP3    H150905   0.244   7.942   8.363
 5790TIP3    H250906   0.126   8.023   8.414
 5791TIP3   OH250907   0.627   8.218   8.306
 5791TIP3    H150908   0.561   8.188   8.241
 5791TIP3    H250909   0.693   8.257   8.246
 5792TIP3   OH250910   1.319   8.002   8.250
 5792TIP3    H150911   1.231   7.978   8.286
 5792TIP3    H250912   1.353   8.058   8.323
 5793TIP3   OH250913   1.390   8.163   8.442
 5793TIP3    H150914   1.469   8.160   8.499
 5793TIP3    H250915   1.398   8.250   8.398
 5794TIP3   OH250916   1.146   8.799   8.402
 5794TIP3    H150917   1.098   8.883   8.391
 5794TIP3    H250918   1.078   8.745   8.445
 5795TIP3   OH250919   1.885   8.169   8.435
 5795TIP3    H150920   1.829   8.131   8.363
 5795TIP3    H250921   1.886   8.263   8.406
 5796TIP3   OH250922   0.215   8.463   8.247
 5796TIP3    H150923   0.263   8.496   8.326
 5796TIP3    H250924   0.124   8.493   8.260
 5797TIP3   OH250925   1.490   8.868   8.294
 5797TIP3    H150926   1.475   8.909   8.380
 5797TIP3    H250927   1.402   8.834   8.270
 5798TIP3   OH250928   1.913   9.253   8.332
 5798TIP3    H150929   1.986   9.319   8.343
 5798TIP3    H250930   1.836   9.305   8.364
 5799TIP3   OH250931   0.886   8.961   8.096
 5799TIP3    H150932   0.859   8.886   8.041
 5799TIP3    H250933   0.846   8.933   8.180
 5800TIP3   OH250934   0.747   8.913   8.355
 5800TIP3    H150935   0.713   8.865   8.432
 5800TIP3    H250936   0.817   8.967   8.397
 5801TIP3   OH250937   0.347   8.605   8.421
 5801TIP3    H150938   0.356   8.646   8.508
 5801TIP3    H250939   0.421   8.646   8.373
 5802TIP3   OH250940   0.966   9.071   8.386
 5802TIP3    H150941   0.895   9.135   8.412
 5802TIP3    H250942   1.010   9.120   8.313
 5803TIP3   OH250943   0.764   9.242   8.439
 5803TIP3    H150944   0.735   9.293   8.362
 5803TIP3    H250945   0.697   9.263   8.505
 5804TIP3   OH250946   0.589   7.840   8.371
 5804TIP3    H150947   0.572   7.905   8.441
 5804TIP3    H250948   0.684   7.826   8.387
 5805TIP3   OH250949   0.447   8.864   8.309
 5805TIP3    H150950   0.487   8.950   8.331
 5805TIP3    H250951   0.516   8.826   8.252
 5806TIP3   OH250952   0.321   8.193   8.200
 5806TIP3    H150953   0.307   8.272   8.254
 5806TIP3    H250954   0.230   8.162   8.190
 5807TIP3   OH250955   1.079   9.145   8.152
 5807TIP3    H150956   1.023   9.067   8.129
 5807TIP3    H250957   1.162   9.116   8.108
 5808TIP3   OH250958   1.509   9.121   8.137
 5808TIP3    H150959   1.537   9.049   8.196
 5808TIP3    H250960   1.580   9.116   8.069
 5809TIP3   OH250961   0.624   8.699   8.123
 5809TIP3    H150962   0.655   8.643   8.196
 5809TIP3    H250963   0.695   8.679   8.057
 5810TIP3   OH250964   1.213   8.812   8.143
 5810TIP3    H150965   1.196   8.793   8.237
 5810TIP3    H250966   1.181   8.727   8.104
 5811TIP3   OH250967   0.728   8.522   8.346
 5811TIP3    H150968   0.721   8.457   8.417
 5811TIP3    H250969   0.747   8.461   8.271
 5812TIP3   OH250970   0.819   8.357   8.158
 5812TIP3    H150971   0.808   8.370   8.061
 5812TIP3    H250972   0.916   8.358   8.167
 5813TIP3   OH250973   1.771   8.583   8.151
 5813TIP3    H150974   1.748   8.555   8.060
 5813TIP3    H250975   1.780   8.681   8.137
 5814TIP3   OH250976   0.182   8.853   8.328
 5814TIP3    H150977   0.280   8.852   8.316
 5814TIP3    H250978   0.152   8.827   8.239
 5815TIP3   OH250979   1.912   8.441   8.340
 5815TIP3    H150980   1.876   8.481   8.257
 5815TIP3    H250981   1.902   8.515   8.403
 5816TIP3   OH250982   1.697   8.176   8.190
 5816TIP3    H150983   1.743   8.217   8.115
 5816TIP3    H250984   1.672   8.090   8.151
 5817TIP3   OH250985   1.656   7.901   8.155
 5817TIP3    H150986   1.719   7.858   8.217
 5817TIP3    H250987   1.579   7.912   8.213
 5818TIP3   OH250988   1.856   7.773   8.302
 5818TIP3    H150989   1.884   7.720   8.222
 5818TIP3    H250990   1.939   7.821   8.323
 5819TIP3   OH250991   0.253   7.638   8.373
 5819TIP3    H150992   0.247   7.697   8.296
 5819TIP3    H250993   0.252   7.705   8.444
 5820TIP3   OH250994   0.371   7.834   8.220
 5820TIP3    H150995   0.423   7.773   8.164
 5820TIP3    H250996   0.430   7.834   8.299
 5821TIP3   OH250997   1.099   9.382   8.295
 5821TIP3    H150998   1.191   9.366   8.320
 5821TIP3    H250999   1.086   9.305   8.236
 5822TIP3   OH251000   0.367   9.243   8.209
 5822TIP3    H151001   0.321   9.310   8.264
 5822TIP3    H251002   0.456   9.248   8.246
 5823TIP3   OH251003   2.972   8.349   8.273
 5823TIP3    H151004   3.042   8.388   8.331
 5823TIP3    H251005   3.030   8.289   8.223
 5824TIP3   OH251006   3.228   8.425   8.367
 5824TIP3    H151007   3.220   8.481   8.446
 5824TIP3    H251008   3.280   8.482   8.305
 5825TIP3   OH251009   3.605   7.592   8.437
 5825TIP3    H151010   3.520   7.581   8.394
 5825TIP3    H251011   3.640   7.671   8.390
 5826TIP3   OH251012   3.729   9.024   8.220
 5826TIP3    H151013   3.766   9.109   8.252
 5826TIP3    H251014   3.797   8.962   8.254
 5827TIP3   OH251015   3.247   9.268   8.335
 5827TIP3    H151016   3.302   9.218   8.272
 5827TIP3    H251017   3.294   9.247   8.417
 5828TIP3   OH251018   3.394   8.581   8.237
 5828TIP3    H151019   3.360   8.597   8.146
 5828TIP3    H251020   3.490   8.571   8.217
 5829TIP3   OH251021   2.961   7.893   8.290
 5829TIP3    H151022   2.876   7.922   8.323
 5829TIP3    H251023   2.936   7.825   8.228
 5830TIP3   OH251024   2.585   7.954   8.148
 5830TIP3    H151025   2.533   7.915   8.221
 5830TIP3    H251026   2.519   8.020   8.113
 5831TIP3   OH251027   2.040   7.943   8.398
 5831TIP3    H151028   2.104   7.991   8.343
 5831TIP3    H251029   1.988   8.019   8.430
 5832TIP3   OH251030   2.495   8.207   8.304
 5832TIP3    H151031   2.442   8.165   8.235
 5832TIP3    H251032   2.573   8.236   8.252
 5833TIP3   OH251033   3.205   7.998   8.254
 5833TIP3    H151034   3.115   7.975   8.288
 5833TIP3    H251035   3.243   8.040   8.335
 5834TIP3   OH251036   3.274   8.169   8.450
 5834TIP3    H151037   3.357   8.163   8.500
 5834TIP3    H251038   3.284   8.254   8.401
 5835TIP3   OH251039   3.038   8.792   8.401
 5835TIP3    H151040   2.987   8.874   8.383
 5835TIP3    H251041   2.969   8.737   8.441
 5836TIP3   OH251042   3.769   8.175   8.433
 5836TIP3    H151043   3.710   8.144   8.360
 5836TIP3    H251044   3.780   8.268   8.403
 5837TIP3   OH251045   2.179   8.454   8.241
 5837TIP3    H151046   2.215   8.518   8.306
 5837TIP3    H251047   2.085   8.451   8.268
 5838TIP3   OH251048   3.378   8.877   8.287
 5838TIP3    H151049   3.383   8.920   8.374
 5838TIP3    H251050   3.285   8.849   8.282
 5839TIP3   OH251051   3.803   9.254   8.333
 5839TIP3    H151052   3.878   9.318   8.344
 5839TIP3    H251053   3.728   9.306   8.368
 5840TIP3   OH251054   2.765   8.959   8.111
 5840TIP3    H151055   2.750   8.896   8.039
 5840TIP3    H251056   2.709   8.918   8.181
 5841TIP3   OH251057   2.623   8.897   8.362
 5841TIP3    H151058   2.608   8.848   8.444
 5841TIP3    H251059   2.685   8.966   8.393
 5842TIP3   OH251060   2.254   8.631   8.419
 5842TIP3    H151061   2.245   8.623   8.515
 5842TIP3    H251062   2.347   8.655   8.408
 5843TIP3   OH251063   2.845   9.074   8.389
 5843TIP3    H151064   2.782   9.143   8.423
 5843TIP3    H251065   2.892   9.125   8.319
 5844TIP3   OH251066   2.657   9.248   8.447
 5844TIP3    H151067   2.617   9.288   8.368
 5844TIP3    H251068   2.589   9.263   8.515
 5845TIP3   OH251069   2.474   7.836   8.366
 5845TIP3    H151070   2.494   7.898   8.439
 5845TIP3    H251071   2.556   7.785   8.363
 5846TIP3   OH251072   2.300   8.877   8.281
 5846TIP3    H151073   2.337   8.960   8.314
 5846TIP3    H251074   2.379   8.831   8.250
 5847TIP3   OH251075   2.144   8.164   8.235
 5847TIP3    H151076   2.186   8.251   8.246
 5847TIP3    H251077   2.065   8.183   8.182
 5848TIP3   OH251078   2.958   9.150   8.157
 5848TIP3    H151079   2.901   9.071   8.141
 5848TIP3    H251080   3.039   9.118   8.111
 5849TIP3   OH251081   3.392   9.116   8.129
 5849TIP3    H151082   3.424   9.043   8.186
 5849TIP3    H251083   3.459   9.114   8.056
 5850TIP3   OH251084   2.521   8.711   8.122
 5850TIP3    H151085   2.551   8.671   8.206
 5850TIP3    H251086   2.590   8.677   8.059
 5851TIP3   OH251087   3.102   8.814   8.136
 5851TIP3    H151088   3.087   8.793   8.231
 5851TIP3    H251089   3.069   8.727   8.098
 5852TIP3   OH251090   2.613   8.523   8.341
 5852TIP3    H151091   2.574   8.456   8.399
 5852TIP3    H251092   2.652   8.467   8.270
 5853TIP3   OH251093   2.718   8.347   8.168
 5853TIP3    H151094   2.725   8.375   8.074
 5853TIP3    H251095   2.812   8.335   8.192
 5854TIP3   OH251096   3.655   8.577   8.145
 5854TIP3    H151097   3.639   8.550   8.052
 5854TIP3    H251098   3.668   8.675   8.134
 5855TIP3   OH251099   2.040   8.850   8.265
 5855TIP3    H151100   2.138   8.853   8.266
 5855TIP3    H251101   2.029   8.786   8.191
 5856TIP3   OH251102   3.798   8.440   8.336
 5856TIP3    H151103   3.747   8.471   8.257
 5856TIP3    H251104   3.782   8.515   8.397
 5857TIP3   OH251105   3.604   8.180   8.188
 5857TIP3    H151106   3.624   8.222   8.103
 5857TIP3    H251107   3.572   8.093   8.159
 5858TIP3   OH251108   3.540   7.907   8.151
 5858TIP3    H151109   3.606   7.858   8.206
 5858TIP3    H251110   3.470   7.920   8.217
 5859TIP3   OH251111   3.743   7.784   8.290
 5859TIP3    H151112   3.768   7.724   8.216
 5859TIP3    H251113   3.829   7.820   8.319
 5860TIP3   OH251114   2.132   7.627   8.364
 5860TIP3    H151115   2.142   7.700   8.299
 5860TIP3    H251116   2.131   7.680   8.445
 5861TIP3   OH251117   2.248   7.816   8.209
 5861TIP3    H151118   2.314   7.762   8.161
 5861TIP3    H251119   2.295   7.830   8.294
 5862TIP3   OH251120   2.964   9.372   8.309
 5862TIP3    H151121   3.055   9.359   8.340
 5862TIP3    H251122   2.959   9.299   8.246
 5863TIP3   OH251123   2.233   9.233   8.140
 5863TIP3    H151124   2.193   9.275   8.219
 5863TIP3    H251125   2.324   9.225   8.170
 5864TIP3   OH251126   4.860   8.344   8.269
 5864TIP3    H151127   4.929   8.384   8.326
 5864TIP3    H251128   4.918   8.284   8.219
 5865TIP3   OH251129   5.108   8.423   8.361
 5865TIP3    H151130   5.099   8.474   8.442
 5865TIP3    H251131   5.164   8.482   8.305
 5866TIP3   OH251132   5.489   7.595   8.441
 5866TIP3    H151133   5.407   7.584   8.391
 5866TIP3    H251134   5.534   7.666   8.390
 5867TIP3   OH251135   5.620   9.023   8.208
 5867TIP3    H151136   5.652   9.104   8.251
 5867TIP3    H251137   5.684   8.957   8.243
 5868TIP3   OH251138   5.138   9.269   8.333
 5868TIP3    H151139   5.193   9.218   8.270
 5868TIP3    H251140   5.183   9.248   8.416
 5869TIP3   OH251141   5.284   8.567   8.237
 5869TIP3    H151142   5.249   8.562   8.145
 5869TIP3    H251143   5.380   8.571   8.218
 5870TIP3   OH251144   4.845   7.888   8.288
 5870TIP3    H151145   4.768   7.920   8.336
 5870TIP3    H251146   4.807   7.821   8.229
 5871TIP3   OH251147   4.475   7.947   8.150
 5871TIP3    H151148   4.423   7.903   8.223
 5871TIP3    H251149   4.409   8.013   8.119
 5872TIP3   OH251150   3.929   7.951   8.399
 5872TIP3    H151151   3.990   8.000   8.340
 5872TIP3    H251152   3.870   8.024   8.425
 5873TIP3   OH251153   4.383   8.215   8.300
 5873TIP3    H151154   4.330   8.166   8.234
 5873TIP3    H251155   4.459   8.244   8.245
 5874TIP3   OH251156   5.090   7.999   8.256
 5874TIP3    H151157   5.001   7.974   8.291
 5874TIP3    H251158   5.131   8.039   8.336
 5875TIP3   OH251159   5.158   8.167   8.449
 5875TIP3    H151160   5.242   8.166   8.498
 5875TIP3    H251161   5.165   8.250   8.398
 5876TIP3   OH251162   4.921   8.797   8.406
 5876TIP3    H151163   4.870   8.879   8.389
 5876TIP3    H251164   4.853   8.742   8.445
 5877TIP3   OH251165   5.656   8.173   8.434
 5877TIP3    H151166   5.603   8.137   8.359
 5877TIP3    H251167   5.662   8.267   8.407
 5878TIP3   OH251168   4.056   8.449   8.238
 5878TIP3    H151169   4.092   8.511   8.306
 5878TIP3    H251170   3.962   8.445   8.266
 5879TIP3   OH251171   5.266   8.875   8.289
 5879TIP3    H151172   5.258   8.927   8.371
 5879TIP3    H251173   5.174   8.850   8.272
 5880TIP3   OH251174   5.683   9.252   8.331
 5880TIP3    H151175   5.758   9.315   8.342
 5880TIP3    H251176   5.609   9.307   8.363
 5881TIP3   OH251177   4.647   8.958   8.108
 5881TIP3    H151178   4.631   8.897   8.035
 5881TIP3    H251179   4.592   8.915   8.177
 5882TIP3   OH251180   4.507   8.904   8.374
 5882TIP3    H151181   4.503   8.849   8.454
 5882TIP3    H251182   4.569   8.973   8.402
 5883TIP3   OH251183   4.139   8.631   8.412
 5883TIP3    H151184   4.132   8.619   8.507
 5883TIP3    H251185   4.232   8.656   8.399
 5884TIP3   OH251186   4.738   9.073   8.380
 5884TIP3    H151187   4.669   9.138   8.410
 5884TIP3    H251188   4.784   9.129   8.314
 5885TIP3   OH251189   4.548   9.241   8.437
 5885TIP3    H151190   4.506   9.276   8.357
 5885TIP3    H251191   4.482   9.258   8.506
 5886TIP3   OH251192   4.361   7.836   8.367
 5886TIP3    H151193   4.368   7.900   8.442
 5886TIP3    H251194   4.451   7.800   8.367
 5887TIP3   OH251195   4.197   8.885   8.286
 5887TIP3    H151196   4.240   8.957   8.333
 5887TIP3    H251197   4.274   8.836   8.251
 5888TIP3   OH251198   4.030   8.165   8.235
 5888TIP3    H151199   4.068   8.254   8.237
 5888TIP3    H251200   3.948   8.179   8.186
 5889TIP3   OH251201   4.845   9.152   8.148
 5889TIP3    H151202   4.788   9.072   8.139
 5889TIP3    H251203   4.924   9.120   8.099
 5890TIP3   OH251204   5.286   9.121   8.135
 5890TIP3    H151205   5.321   9.054   8.196
 5890TIP3    H251206   5.356   9.120   8.065
 5891TIP3   OH251207   4.411   8.712   8.124
 5891TIP3    H151208   4.441   8.672   8.208
 5891TIP3    H251209   4.479   8.679   8.062
 5892TIP3   OH251210   4.987   8.813   8.140
 5892TIP3    H151211   4.971   8.794   8.235
 5892TIP3    H251212   4.962   8.725   8.103
 5893TIP3   OH251213   4.500   8.524   8.339
 5893TIP3    H151214   4.466   8.458   8.401
 5893TIP3    H251215   4.536   8.467   8.267
 5894TIP3   OH251216   4.605   8.348   8.169
 5894TIP3    H151217   4.618   8.381   8.078
 5894TIP3    H251218   4.698   8.330   8.197
 5895TIP3   OH251219   5.542   8.579   8.149
 5895TIP3    H151220   5.533   8.550   8.055
 5895TIP3    H251221   5.556   8.677   8.136
 5896TIP3   OH251222   3.928   8.854   8.268
 5896TIP3    H151223   4.026   8.861   8.275
 5896TIP3    H251224   3.922   8.789   8.194
 5897TIP3   OH251225   5.683   8.441   8.339
 5897TIP3    H151226   5.639   8.477   8.258
 5897TIP3    H251227   5.673   8.515   8.400
 5898TIP3   OH251228   5.485   8.172   8.187
 5898TIP3    H151229   5.513   8.220   8.107
 5898TIP3    H251230   5.456   8.086   8.150
 5899TIP3   OH251231   5.427   7.906   8.150
 5899TIP3    H151232   5.492   7.861   8.209
 5899TIP3    H251233   5.353   7.920   8.211
 5900TIP3   OH251234   5.628   7.781   8.291
 5900TIP3    H151235   5.654   7.724   8.214
 5900TIP3    H251236   5.715   7.816   8.320
 5901TIP3   OH251237   4.015   7.631   8.372
 5901TIP3    H151238   4.021   7.707   8.311
 5901TIP3    H251239   4.028   7.678   8.456
 5902TIP3   OH251240   4.131   7.822   8.214
 5902TIP3    H151241   4.193   7.763   8.167
 5902TIP3    H251242   4.180   7.835   8.298
 5903TIP3   OH251243   4.861   9.371   8.313
 5903TIP3    H151244   4.955   9.358   8.330
 5903TIP3    H251245   4.847   9.302   8.246
 5904TIP3   OH251246   4.115   9.234   8.147
 5904TIP3    H151247   4.079   9.276   8.227
 5904TIP3    H251248   4.209   9.226   8.171
 5905TIP3   OH251249   6.747   8.335   8.273
 5905TIP3    H151250   6.823   8.363   8.329
 5905TIP3    H251251   6.799   8.277   8.212
 5906TIP3   OH251252   6.997   8.424   8.361
 5906TIP3    H151253   6.977   8.484   8.434
 5906TIP3    H251254   7.049   8.480   8.298
 5907TIP3   OH251255   7.371   7.591   8.442
 5907TIP3    H151256   7.283   7.584   8.403
 5907TIP3    H251257   7.409   7.668   8.394
 5908TIP3   OH251258   7.513   9.028   8.205
 5908TIP3    H151259   7.539   9.111   8.249
 5908TIP3    H251260   7.577   8.964   8.246
 5909TIP3   OH251261   7.023   9.263   8.333
 5909TIP3    H151262   7.073   9.213   8.266
 5909TIP3    H251263   7.073   9.237   8.413
 5910TIP3   OH251264   7.168   8.580   8.239
 5910TIP3    H151265   7.131   8.591   8.148
 5910TIP3    H251266   7.263   8.573   8.216
 5911TIP3   OH251267   6.731   7.893   8.292
 5911TIP3    H151268   6.649   7.919   8.336
 5911TIP3    H251269   6.702   7.823   8.232
 5912TIP3   OH251270   6.358   7.950   8.147
 5912TIP3    H151271   6.302   7.912   8.218
 5912TIP3    H251272   6.296   8.013   8.103
 5913TIP3   OH251273   5.815   7.950   8.400
 5913TIP3    H151274   5.875   7.999   8.340
 5913TIP3    H251275   5.756   8.023   8.428
 5914TIP3   OH251276   6.260   8.212   8.300
 5914TIP3    H151277   6.212   8.164   8.230
 5914TIP3    H251278   6.338   8.244   8.250
 5915TIP3   OH251279   6.975   8.001   8.255
 5915TIP3    H151280   6.883   7.978   8.282
 5915TIP3    H251281   7.009   8.043   8.337
 5916TIP3   OH251282   7.039   8.170   8.448
 5916TIP3    H151283   7.122   8.161   8.498
 5916TIP3    H251284   7.050   8.255   8.400
 5917TIP3   OH251285   6.809   8.791   8.400
 5917TIP3    H151286   6.764   8.876   8.388
 5917TIP3    H251287   6.739   8.740   8.442
 5918TIP3   OH251288   7.545   8.180   8.433
 5918TIP3    H151289   7.494   8.134   8.363
 5918TIP3    H251290   7.543   8.272   8.398
 5919TIP3   OH251291   5.942   8.459   8.238
 5919TIP3    H151292   5.979   8.517   8.308
 5919TIP3    H251293   5.850   8.449   8.268
 5920TIP3   OH251294   7.154   8.891   8.282
 5920TIP3    H151295   7.165   8.919   8.374
 5920TIP3    H251296   7.061   8.864   8.280
 5921TIP3   OH251297   7.566   9.254   8.335
 5921TIP3    H151298   7.643   9.316   8.345
 5921TIP3    H251299   7.492   9.310   8.367
 5922TIP3   OH251300   6.536   8.959   8.116
 5922TIP3    H151301   6.526   8.890   8.050
 5922TIP3    H251302   6.477   8.923   8.186
 5923TIP3   OH251303   6.393   8.902   8.371
 5923TIP3    H151304   6.388   8.848   8.450
 5923TIP3    H251305   6.453   8.973   8.401
 5924TIP3   OH251306   6.025   8.634   8.419
 5924TIP3    H151307   6.024   8.619   8.514
 5924TIP3    H251308   6.118   8.659   8.404
 5925TIP3   OH251309   6.623   9.075   8.386
 5925TIP3    H151310   6.556   9.142   8.414
 5925TIP3    H251311   6.672   9.126   8.318
 5926TIP3   OH251312   6.432   9.244   8.440
 5926TIP3    H151313   6.388   9.280   8.361
 5926TIP3    H251314   6.366   9.257   8.510
 5927TIP3   OH251315   6.244   7.839   8.365
 5927TIP3    H151316   6.265   7.898   8.440
 5927TIP3    H251317   6.323   7.783   8.363
 5928TIP3   OH251318   6.080   8.886   8.280
 5928TIP3    H151319   6.123   8.962   8.320
 5928TIP3    H251320   6.158   8.835   8.251
 5929TIP3   OH251321   5.916   8.167   8.232
 5929TIP3    H151322   5.957   8.255   8.235
 5929TIP3    H251323   5.836   8.184   8.181
 5930TIP3   OH251324   6.738   9.148   8.156
 5930TIP3    H151325   6.675   9.072   8.143
 5930TIP3    H251326   6.815   9.112   8.107
 5931TIP3   OH251327   7.165   9.117   8.131
 5931TIP3    H151328   7.190   9.043   8.191
 5931TIP3    H251329   7.241   9.116   8.067
 5932TIP3   OH251330   6.286   8.699   8.130
 5932TIP3    H151331   6.323   8.664   8.213
 5932TIP3    H251332   6.356   8.672   8.066
 5933TIP3   OH251333   6.875   8.813   8.137
 5933TIP3    H151334   6.859   8.796   8.232
 5933TIP3    H251335   6.844   8.726   8.101
 5934TIP3   OH251336   6.384   8.525   8.344
 5934TIP3    H151337   6.350   8.461   8.408
 5934TIP3    H251338   6.419   8.465   8.274
 5935TIP3   OH251339   6.494   8.350   8.174
 5935TIP3    H151340   6.501   8.381   8.082
 5935TIP3    H251341   6.589   8.337   8.199
 5936TIP3   OH251342   7.431   8.580   8.147
 5936TIP3    H151343   7.415   8.552   8.054
 5936TIP3    H251344   7.441   8.678   8.136
 5937TIP3   OH251345   5.812   8.850   8.262
 5937TIP3    H151346   5.911   8.853   8.265
 5937TIP3    H251347   5.802   8.788   8.188
 5938TIP3   OH251348   7.561   8.445   8.340
 5938TIP3    H151349   7.524   8.483   8.256
 5938TIP3    H251350   7.549   8.520   8.400
 5939TIP3   OH251351   7.353   8.177   8.191
 5939TIP3    H151352   7.401   8.215   8.117
 5939TIP3    H251353   7.331   8.089   8.157
 5940TIP3   OH251354   7.313   7.900   8.146
 5940TIP3    H151355   7.372   7.852   8.209
 5940TIP3    H251356   7.237   7.918   8.203
 5941TIP3   OH251357   7.508   7.774   8.299
 5941TIP3    H151358   7.542   7.718   8.225
 5941TIP3    H251359   7.590   7.820   8.329
 5942TIP3   OH251360   5.899   7.629   8.365
 5942TIP3    H151361   5.914   7.701   8.300
 5942TIP3    H251362   5.907   7.681   8.447
 5943TIP3   OH251363   6.017   7.814   8.209
 5943TIP3    H151364   6.078   7.756   8.157
 5943TIP3    H251365   6.071   7.831   8.289
 5944TIP3   OH251366   6.741   9.368   8.310
 5944TIP3    H151367   6.834   9.357   8.334
 5944TIP3    H251368   6.733   9.298   8.244
 5945TIP3   OH251369   6.002   9.231   8.143
 5945TIP3    H151370   5.964   9.272   8.223
 5945TIP3    H251371   6.095   9.225   8.170
 5946TIP3   OH251372   8.646   8.307   8.242
 5946TIP3    H151373   8.702   8.364   8.299
 5946TIP3    H251374   8.708   8.234   8.227
 5947TIP3   OH251375   8.855   8.431   8.376
 5947TIP3    H151376   8.855   8.510   8.433
 5947TIP3    H251377   8.922   8.460   8.309
 5948TIP3   OH251378   9.195   7.564   8.473
 5948TIP3    H151379   9.110   7.561   8.428
 5948TIP3    H251380   9.256   7.591   8.402
 5949TIP3   OH251381   0.059   9.054   8.197
 5949TIP3    H151382   0.071   9.149   8.211
 5949TIP3    H251383   0.093   9.013   8.278
 5950TIP3   OH251384   8.895   9.302   8.306
 5950TIP3    H151385   8.932   9.217   8.272
 5950TIP3    H251386   8.900   9.290   8.402
 5951TIP3   OH251387   9.029   8.546   8.220
 5951TIP3    H151388   9.011   8.519   8.128
 5951TIP3    H251389   9.125   8.561   8.217
 5952TIP3   OH251390   8.590   7.899   8.276
 5952TIP3    H151391   8.523   7.926   8.341
 5952TIP3    H251392   8.549   7.824   8.232
 5953TIP3   OH251393   8.239   7.945   8.156
 5953TIP3    H151394   8.185   7.906   8.228
 5953TIP3    H251395   8.174   8.007   8.115
 5954TIP3   OH251396   7.696   7.939   8.397
 5954TIP3    H151397   7.774   7.970   8.347
 5954TIP3    H251398   7.656   8.026   8.415
 5955TIP3   OH251399   8.146   8.218   8.295
 5955TIP3    H151400   8.100   8.167   8.227
 5955TIP3    H251401   8.221   8.253   8.242
 5956TIP3   OH251402   8.850   7.978   8.244
 5956TIP3    H151403   8.758   7.960   8.271
 5956TIP3    H251404   8.884   8.025   8.323
 5957TIP3   OH251405   8.929   8.160   8.435
 5957TIP3    H151406   9.024   8.156   8.421
 5957TIP3    H251407   8.906   8.240   8.384
 5958TIP3   OH251408   8.677   8.815   8.415
 5958TIP3    H151409   8.630   8.899   8.399
 5958TIP3    H251410   8.605   8.757   8.444
 5959TIP3   OH251411   7.815   8.466   8.233
 5959TIP3    H151412   7.856   8.528   8.298
 5959TIP3    H251413   7.727   8.450   8.273
 5960TIP3   OH251414   9.004   8.869   8.294
 5960TIP3    H151415   9.011   8.867   8.390
 5960TIP3    H251416   8.919   8.826   8.278
 5961TIP3   OH251417   8.417   8.962   8.116
 5961TIP3    H151418   8.399   8.905   8.041
 5961TIP3    H251419   8.361   8.917   8.183
 5962TIP3   OH251420   8.278   8.895   8.368
 5962TIP3    H151421   8.270   8.844   8.450
 5962TIP3    H251422   8.338   8.967   8.399
 5963TIP3   OH251423   7.918   8.633   8.406
 5963TIP3    H151424   7.908   8.612   8.500
 5963TIP3    H251425   8.011   8.659   8.397
 5964TIP3   OH251426   8.499   9.067   8.383
 5964TIP3    H151427   8.431   9.136   8.405
 5964TIP3    H251428   8.552   9.113   8.315
 5965TIP3   OH251429   8.315   9.239   8.446
 5965TIP3    H151430   8.268   9.282   8.373
 5965TIP3    H251431   8.255   9.251   8.521
 5966TIP3   OH251432   8.125   7.839   8.371
 5966TIP3    H151433   8.128   7.902   8.445
 5966TIP3    H251434   8.216   7.807   8.378
 5967TIP3   OH251435   7.955   8.882   8.266
 5967TIP3    H151436   7.996   8.959   8.306
 5967TIP3    H251437   8.032   8.829   8.239
 5968TIP3   OH251438   7.798   8.157   8.234
 5968TIP3    H151439   7.847   8.240   8.224
 5968TIP3    H251440   7.721   8.175   8.179
 5969TIP3   OH251441   8.620   9.137   8.157
 5969TIP3    H151442   8.559   9.061   8.144
 5969TIP3    H251443   8.699   9.104   8.106
 5970TIP3   OH251444   9.044   9.119   8.141
 5970TIP3    H151445   9.068   9.052   8.206
 5970TIP3    H251446   9.124   9.124   8.081
 5971TIP3   OH251447   8.165   8.709   8.135
 5971TIP3    H151448   8.204   8.673   8.217
 5971TIP3    H251449   8.231   8.675   8.070
 5972TIP3   OH251450   8.747   8.808   8.144
 5972TIP3    H151451   8.726   8.795   8.238
 5972TIP3    H251452   8.720   8.720   8.107
 5973TIP3   OH251453   8.258   8.519   8.336
 5973TIP3    H151454   8.211   8.452   8.387
 5973TIP3    H251455   8.299   8.464   8.266
 5974TIP3   OH251456   8.387   8.342   8.172
 5974TIP3    H151457   8.391   8.369   8.078
 5974TIP3    H251458   8.482   8.325   8.191
 5975TIP3   OH251459   9.296   8.585   8.177
 5975TIP3    H151460   9.280   8.559   8.083
 5975TIP3    H251461   9.287   8.684   8.167
 5976TIP3   OH251462   7.696   8.848   8.260
 5976TIP3    H151463   7.794   8.855   8.260
 5976TIP3    H251464   7.685   8.790   8.182
 5977TIP3   OH251465   9.240   8.226   8.263
 5977TIP3    H151466   9.274   8.259   8.179
 5977TIP3    H251467   9.211   8.137   8.234
 5978TIP3   OH251468   9.158   7.968   8.144
 5978TIP3    H151469   9.218   7.899   8.175
 5978TIP3    H251470   9.090   7.915   8.098
 5979TIP3   OH251471   7.780   7.631   8.374
 5979TIP3    H151472   7.784   7.705   8.309
 5979TIP3    H251473   7.801   7.681   8.455
 5980TIP3   OH251474   7.902   7.819   8.216
 5980TIP3    H151475   7.960   7.759   8.166
 5980TIP3    H251476   7.954   7.831   8.298
 5981TIP3   OH251477   8.611   9.373   8.292
 5981TIP3    H151478   8.706   9.389   8.290
 5981TIP3    H251479   8.608   9.292   8.238
 5982TIP3   OH251480   7.886   9.237   8.144
 5982TIP3    H151481   7.850   9.279   8.224
 5982TIP3    H251482   7.978   9.225   8.171
 5983TIP3   OH251483   1.260   1.022   0.666
 5983TIP3    H151484   1.248   1.120   0.670
 5983TIP3    H251485   1.176   0.992   0.629
 5984TIP3   OH251486   1.142   0.896   1.004
 5984TIP3    H151487   1.139   0.862   1.096
 5984TIP3    H251488   1.065   0.857   0.959
 5985TIP3   OH251489   0.389   0.908   1.172
 5985TIP3    H151490   0.376   0.831   1.230
 5985TIP3    H251491   0.465   0.952   1.215
 5986TIP3   OH251492   1.466   1.222   0.850
 5986TIP3    H151493   1.436   1.155   0.913
 5986TIP3    H251494   1.499   1.290   0.910
 5987TIP3   OH251495   0.402   1.336   0.977
 5987TIP3    H151496   0.403   1.246   0.937
 5987TIP3    H251497   0.492   1.335   1.011
 5988TIP3   OH251498   0.158   0.667   0.539
 5988TIP3    H151499   0.155   0.761   0.517
 5988TIP3    H251500   0.089   0.657   0.606
 5989TIP3   OH251501   0.160   0.903   0.804
 5989TIP3    H151502   0.216   0.825   0.826
 5989TIP3    H251503   0.220   0.953   0.747
 5990TIP3   OH251504   1.212   1.765   0.850
 5990TIP3    H151505   1.275   1.706   0.801
 5990TIP3    H251506   1.175   1.699   0.910
 5991TIP3   OH251507   0.954   1.157   1.109
 5991TIP3    H151508   0.989   1.140   1.020
 5991TIP3    H251509   1.038   1.170   1.160
 5992TIP3   OH251510   1.826   0.296   1.115
 5992TIP3    H151511   1.825   0.364   1.185
 5992TIP3    H251512   1.900   0.331   1.063
 5993TIP3   OH251513   1.326   0.628   1.115
 5993TIP3    H151514   1.340   0.535   1.141
 5993TIP3    H251515   1.287   0.617   1.025
 5994TIP3   OH251516   0.634   0.405   0.793
 5994TIP3    H151517   0.644   0.486   0.740
 5994TIP3    H251518   0.588   0.347   0.729
 5995TIP3   OH251519   1.357   0.453   0.679
 5995TIP3    H151520   1.411   0.410   0.749
 5995TIP3    H251521   1.423   0.506   0.632
 5996TIP3   OH251522   0.299   0.687   0.876
 5996TIP3    H151523   0.367   0.644   0.930
 5996TIP3    H251524   0.317   0.642   0.790
 5997TIP3   OH251525   0.738   0.825   0.817
 5997TIP3    H151526   0.825   0.785   0.839
 5997TIP3    H251527   0.701   0.756   0.760
 5998TIP3   OH251528   1.856   0.474   1.347
 5998TIP3    H151529   1.810   0.553   1.313
 5998TIP3    H251530   1.872   0.500   1.440
 5999TIP3   OH251531   0.507   0.326   1.212
 5999TIP3    H151532   0.477   0.378   1.135
 5999TIP3    H251533   0.443   0.355   1.281
 6000TIP3   OH251534   1.182   1.254   0.563
 6000TIP3    H151535   1.167   1.259   0.468
 6000TIP3    H251536   1.154   1.343   0.593
 6001TIP3   OH251537   0.714   1.095   1.198
 6001TIP3    H151538   0.662   1.174   1.225
 6001TIP3    H251539   0.796   1.137   1.165
 6002TIP3   OH251540   1.517   0.378   0.883
 6002TIP3    H151541   1.456   0.352   0.955
 6002TIP3    H251542   1.593   0.408   0.934
 6003TIP3   OH251543   0.477   0.520   1.000
 6003TIP3    H151544   0.553   0.569   1.038
 6003TIP3    H251545   0.521   0.466   0.930
 6004TIP3   OH251546   0.586   1.304   1.296
 6004TIP3    H151547   0.573   1.397   1.271
 6004TIP3    H251548   0.502   1.284   1.345
 6005TIP3   OH251549   0.200   1.259   0.410
 6005TIP3    H151550   0.192   1.314   0.330
 6005TIP3    H251551   0.223   1.325   0.480
 6006TIP3   OH251552   1.540   1.422   1.053
 6006TIP3    H151553   1.450   1.448   1.082
 6006TIP3    H251554   1.569   1.507   1.015
 6007TIP3   OH251555   1.608   0.218   1.256
 6007TIP3    H151556   1.541   0.263   1.203
 6007TIP3    H251557   1.684   0.222   1.195
 6008TIP3   OH251558   0.893   0.100   0.944
 6008TIP3    H151559   0.925   0.015   0.978
 6008TIP3    H251560   0.810   0.116   0.995
 6009TIP3   OH251561   1.373   1.600   0.720
 6009TIP3    H151562   1.399   1.516   0.678
 6009TIP3    H251563   1.444   1.660   0.689
 6010TIP3   OH251564   1.470   1.375   0.578
 6010TIP3    H151565   1.464   1.304   0.511
 6010TIP3    H251566   1.462   1.324   0.661
 6011TIP3   OH251567   1.644   1.243   1.445
 6011TIP3    H151568   1.635   1.170   1.379
 6011TIP3    H251569   1.664   1.318   1.385
 6012TIP3   OH251570   1.098   0.937   0.409
 6012TIP3    H151571   1.025   1.004   0.404
 6012TIP3    H251572   1.173   0.991   0.378
 6013TIP3   OH251573   1.088   0.853   0.131
 6013TIP3    H151574   1.149   0.866   0.207
 6013TIP3    H251575   1.143   0.802   0.070
 6014TIP3   OH251576   1.846   0.896   1.239
 6014TIP3    H151577   1.769   0.954   1.223
 6014TIP3    H251578   1.906   0.928   1.168
 6015TIP3   OH251579   1.479   0.931   0.517
 6015TIP3    H151580   1.409   0.967   0.577
 6015TIP3    H251581   1.540   0.894   0.585
 6016TIP3   OH251582   1.472   0.774   1.435
 6016TIP3    H151583   1.473   0.859   1.482
 6016TIP3    H251584   1.402   0.795   1.370
 6017TIP3   OH251585   0.626   1.014   0.684
 6017TIP3    H151586   0.572   0.960   0.622
 6017TIP3    H251587   0.686   0.946   0.722
 6018TIP3   OH251588   0.745   1.344   0.964
 6018TIP3    H151589   0.757   1.340   0.867
 6018TIP3    H251590   0.820   1.296   0.999
 6019TIP3   OH251591   0.642   0.887   1.058
 6019TIP3    H151592   0.683   0.888   0.969
 6019TIP3    H251593   0.691   0.955   1.109
 6020TIP3   OH251594   1.287   1.461   1.142
 6020TIP3    H151595   1.235   1.512   1.206
 6020TIP3    H251596   1.278   1.370   1.177
 6021TIP3   OH251597   0.728   1.329   1.530
 6021TIP3    H151598   0.665   1.395   1.567
 6021TIP3    H251599   0.684   1.312   1.443
 6022TIP3   OH251600   1.338   0.869   0.291
 6022TIP3    H151601   1.384   0.896   0.374
 6022TIP3    H251602   1.385   0.924   0.225
 6023TIP3   OH251603   0.430   0.954   1.451
 6023TIP3    H151604   0.438   1.001   1.537
 6023TIP3    H251605   0.333   0.939   1.451
 6024TIP3   OH251606   1.101   1.491   0.650
 6024TIP3    H151607   1.122   1.556   0.718
 6024TIP3    H251608   1.058   1.545   0.582
 6025TIP3   OH251609   0.555   1.521   1.604
 6025TIP3    H151610   0.537   1.553   1.513
 6025TIP3    H251611   0.465   1.494   1.633
 6026TIP3   OH251612   1.739   0.059   0.305
 6026TIP3    H151613   1.640   0.058   0.312
 6026TIP3    H251614   1.755   0.152   0.281
 6027TIP3   OH251615   0.449   0.911   0.496
 6027TIP3    H151616   0.440   0.989   0.437
 6027TIP3    H251617   0.416   0.842   0.438
 6028TIP3   OH251618   1.809   1.475   0.093
 6028TIP3    H151619   1.843   1.566   0.096
 6028TIP3    H251620   1.894   1.427   0.101
 6029TIP3   OH251621   0.145   1.141   1.388
 6029TIP3    H151622   0.096   1.149   1.304
 6029TIP3    H251623   0.138   1.045   1.409
 6030TIP3   OH251624   0.148   1.447   0.991
 6030TIP3    H151625   0.229   1.394   0.975
 6030TIP3    H251626   0.175   1.498   1.070
 6031TIP3   OH251627   1.930   1.494   1.604
 6031TIP3    H151628   1.909   1.400   1.592
 6031TIP3    H251629   1.842   1.522   1.637
 6032TIP3   OH251630   0.983   1.455   1.502
 6032TIP3    H151631   1.010   1.524   1.567
 6032TIP3    H251632   0.889   1.437   1.521
 6033TIP3   OH251633   1.078   1.827   0.431
 6033TIP3    H151634   1.072   1.847   0.336
 6033TIP3    H251635   1.066   1.915   0.472
 6034TIP3   OH251636   0.427   1.697   0.634
 6034TIP3    H151637   0.436   1.658   0.724
 6034TIP3    H251638   0.333   1.680   0.614
 6035TIP3   OH251639   1.371   1.775   0.154
 6035TIP3    H151640   1.427   1.704   0.117
 6035TIP3    H251641   1.375   1.757   0.249
 6036TIP3   OH251642   1.340   1.747   0.440
 6036TIP3    H151643   1.245   1.769   0.441
 6036TIP3    H251644   1.338   1.658   0.478
 6037TIP3   OH251645   1.607   0.650   1.641
 6037TIP3    H151646   1.564   0.696   1.566
 6037TIP3    H251647   1.616   0.558   1.607
 6038TIP3   OH251648   0.354   1.294   1.449
 6038TIP3    H151649   0.362   1.246   1.534
 6038TIP3    H251650   0.275   1.247   1.411
 6039TIP3   OH251651   0.661   0.172   1.059
 6039TIP3    H151652   0.584   0.155   1.001
 6039TIP3    H251653   0.616   0.227   1.126
 6040TIP3   OH251654   1.106   0.123   1.348
 6040TIP3    H151655   1.132   0.090   1.434
 6040TIP3    H251656   1.008   0.121   1.353
 6041TIP3   OH251657   1.379   0.518   1.451
 6041TIP3    H151658   1.315   0.499   1.524
 6041TIP3    H251659   1.405   0.611   1.470
 6042TIP3   OH251660   1.458   1.009   0.094
 6042TIP3    H151661   1.450   1.047   0.006
 6042TIP3    H251662   1.551   1.034   0.113
 6043TIP3   OH251663   1.083   0.358   0.101
 6043TIP3    H151664   1.022   0.355   0.175
 6043TIP3    H251665   1.104   0.263   0.092
 6044TIP3   OH251666   0.637   0.653   1.174
 6044TIP3    H151667   0.544   0.650   1.205
 6044TIP3    H251668   0.636   0.741   1.129
 6045TIP3   OH251669   0.622   0.630   0.651
 6045TIP3    H151670   0.526   0.619   0.635
 6045TIP3    H251671   0.660   0.604   0.565
 6046TIP3   OH251672   1.178   0.723   0.541
 6046TIP3    H151673   1.140   0.800   0.492
 6046TIP3    H251674   1.245   0.691   0.478
 6047TIP3   OH251675   1.014   0.764   1.699
 6047TIP3    H151676   0.974   0.674   1.712
 6047TIP3    H251677   1.104   0.743   1.729
 6048TIP3   OH251678   1.264   0.678   0.844
 6048TIP3    H151679   1.265   0.755   0.784
 6048TIP3    H251680   1.269   0.605   0.780
 6049TIP3   OH251681   0.366   0.646   1.301
 6049TIP3    H151682   0.417   0.671   1.380
 6049TIP3    H251683   0.337   0.555   1.324
 6050TIP3   OH251684   0.734   0.430   0.058
 6050TIP3    H151685   0.686   0.399   0.137
 6050TIP3    H251686   0.696   0.517   0.038
 6051TIP3   OH251687   0.064   0.411   0.737
 6051TIP3    H151688   0.105   0.393   0.823
 6051TIP3    H251689   0.125   0.369   0.676
 6052TIP3   OH251690   0.164   0.434   0.271
 6052TIP3    H151691   0.219   0.404   0.196
 6052TIP3    H251692   0.123   0.516   0.236
 6053TIP3   OH251693   1.204   0.831   1.260
 6053TIP3    H151694   1.250   0.754   1.219
 6053TIP3    H251695   1.137   0.783   1.314
 6054TIP3   OH251696   0.930   0.395   0.748
 6054TIP3    H151697   0.843   0.364   0.779
 6054TIP3    H251698   0.986   0.379   0.827
 6055TIP3   OH251699   0.360   0.525   0.660
 6055TIP3    H151700   0.300   0.545   0.585
 6055TIP3    H251701   0.404   0.442   0.630
 6056TIP3   OH251702   0.681   0.589   0.386
 6056TIP3    H151703   0.777   0.596   0.406
 6056TIP3    H251704   0.670   0.643   0.306
 6057TIP3   OH251705   1.348   0.308   1.077
 6057TIP3    H151706   1.297   0.315   1.160
 6057TIP3    H251707   1.277   0.282   1.015
 6058TIP3   OH251708   0.602   0.704   0.138
 6058TIP3    H151709   0.544   0.695   0.061
 6058TIP3    H251710   0.688   0.729   0.098
 6059TIP3   OH251711   1.622   1.891   1.734
 6059TIP3    H151712   1.659   1.920   1.649
 6059TIP3    H251713   1.701   1.897   1.789
 6060TIP3   OH251714   0.403   1.116   1.678
 6060TIP3    H151715   0.460   1.138   1.754
 6060TIP3    H251716   0.314   1.113   1.718
 6061TIP3   OH251717   0.950   0.698   0.910
 6061TIP3    H151718   1.045   0.685   0.896
 6061TIP3    H251719   0.926   0.618   0.959
 6062TIP3   OH251720   0.488   0.303   0.590
 6062TIP3    H151721   0.435   0.233   0.636
 6062TIP3    H251722   0.532   0.253   0.519
 6063TIP3   OH251723   0.846   0.499   1.180
 6063TIP3    H151724   0.767   0.556   1.169
 6063TIP3    H251725   0.909   0.558   1.224
 6064TIP3   OH251726   0.927   1.139   0.385
 6064TIP3    H151727   0.853   1.102   0.331
 6064TIP3    H251728   0.880   1.166   0.468
 6065TIP3   OH251729   1.660   1.092   1.234
 6065TIP3    H151730   1.716   1.153   1.180
 6065TIP3    H251731   1.585   1.082   1.173
 6066TIP3   OH251732   1.341   0.424   0.157
 6066TIP3    H151733   1.250   0.433   0.122
 6066TIP3    H251734   1.348   0.502   0.214
 6067TIP3   OH251735   1.059   1.194   1.492
 6067TIP3    H151736   1.017   1.173   1.577
 6067TIP3    H251737   1.043   1.290   1.489
 6068TIP3   OH251738   1.364   0.610   0.367
 6068TIP3    H151739   1.441   0.612   0.427
 6068TIP3    H251740   1.376   0.695   0.321
 6069TIP3   OH251741   0.466   1.081   0.900
 6069TIP3    H151742   0.514   1.064   0.817
 6069TIP3    H251743   0.488   1.004   0.955
 6070TIP3   OH251744   1.131   1.275   0.277
 6070TIP3    H151745   1.088   1.362   0.296
 6070TIP3    H251746   1.062   1.213   0.305
 6071TIP3   OH251747   0.162   0.883   1.455
 6071TIP3    H151748   0.157   0.825   1.533
 6071TIP3    H251749   0.169   0.821   1.381
 6072TIP3   OH251750   0.793   0.900   1.627
 6072TIP3    H151751   0.756   0.849   1.552
 6072TIP3    H251752   0.875   0.850   1.646
 6073TIP3   OH251753   1.326   1.400   1.504
 6073TIP3    H151754   1.256   1.422   1.441
 6073TIP3    H251755   1.297   1.450   1.583
 6074TIP3   OH251756   1.865   0.645   0.326
 6074TIP3    H151757   1.807   0.618   0.252
 6074TIP3    H251758   1.874   0.740   0.306
 6075TIP3   OH251759   1.881   1.197   1.577
 6075TIP3    H151760   1.796   1.220   1.532
 6075TIP3    H251761   1.941   1.187   1.500
 6076TIP3   OH251762   1.670   1.520   0.326
 6076TIP3    H151763   1.663   1.431   0.363
 6076TIP3    H251764   1.718   1.507   0.242
 6077TIP3   OH251765   1.419   1.001   1.053
 6077TIP3    H151766   1.326   0.976   1.040
 6077TIP3    H251767   1.462   0.930   1.001
 6078TIP3   OH251768   0.668   1.434   0.692
 6078TIP3    H151769   0.691   1.522   0.656
 6078TIP3    H251770   0.578   1.425   0.657
 6079TIP3   OH251771   0.251   0.913   0.218
 6079TIP3    H151772   0.331   0.967   0.206
 6079TIP3    H251773   0.185   0.951   0.158
 6080TIP3   OH251774   0.804   1.209   0.618
 6080TIP3    H151775   0.758   1.292   0.645
 6080TIP3    H251776   0.751   1.142   0.666
 6081TIP3   OH251777   0.860   1.617   1.301
 6081TIP3    H151778   0.925   1.683   1.268
 6081TIP3    H251779   0.913   1.573   1.371
 6082TIP3   OH251780   0.699   1.680   0.576
 6082TIP3    H151781   0.602   1.691   0.587
 6082TIP3    H251782   0.729   1.764   0.617
 6083TIP3   OH251783   1.194   1.204   1.234
 6083TIP3    H151784   1.173   1.184   1.328
 6083TIP3    H251785   1.257   1.132   1.213
 6084TIP3   OH251786   1.452   1.326   0.169
 6084TIP3    H151787   1.479   1.276   0.249
 6084TIP3    H251788   1.359   1.300   0.165
 6085TIP3   OH251789   1.502   1.649   1.470
 6085TIP3    H151790   1.407   1.628   1.464
 6085TIP3    H251791   1.512   1.714   1.397
 6086TIP3   OH251792   1.889   1.746   0.173
 6086TIP3    H151793   1.937   1.814   0.123
 6086TIP3    H251794   1.821   1.802   0.216
 6087TIP3   OH251795   0.313   0.394   1.400
 6087TIP3    H151796   0.276   0.429   1.483
 6087TIP3    H251797   0.297   0.298   1.415
 6088TIP3   OH251798   1.534   1.167   0.381
 6088TIP3    H151799   1.522   1.078   0.422
 6088TIP3    H251800   1.630   1.179   0.394
 6089TIP3   OH251801   0.267   1.566   1.227
 6089TIP3    H151802   0.335   1.500   1.248
 6089TIP3    H251803   0.276   1.626   1.302
 6090TIP3   OH251804   0.735   1.374   0.225
 6090TIP3    H151805   0.808   1.325   0.268
 6090TIP3    H251806   0.756   1.467   0.251
 6091TIP3   OH251807   0.419   1.123   0.291
 6091TIP3    H151808   0.341   1.154   0.341
 6091TIP3    H251809   0.449   1.203   0.245
 6092TIP3   OH251810   1.195   0.374   1.301
 6092TIP3    H151811   1.248   0.387   1.382
 6092TIP3    H251812   1.158   0.285   1.319
 6093TIP3   OH251813   1.289   0.294   0.438
 6093TIP3    H151814   1.296   0.339   0.352
 6093TIP3    H251815   1.323   0.364   0.498
 6094TIP3   OH251816   1.039   1.516   0.334
 6094TIP3    H151817   0.964   1.578   0.342
 6094TIP3    H251818   1.088   1.555   0.258
 6095TIP3   OH251819   0.942   0.536   0.517
 6095TIP3    H151820   1.025   0.587   0.527
 6095TIP3    H251821   0.937   0.485   0.601
 6096TIP3   OH251822   1.065   0.644   1.406
 6096TIP3    H151823   1.064   0.657   1.502
 6096TIP3    H251824   1.087   0.550   1.394
 6097TIP3   OH251825   1.030   0.188   0.588
 6097TIP3    H151826   1.006   0.271   0.633
 6097TIP3    H251827   1.117   0.209   0.548
 6098TIP3   OH251828   0.779   1.628   0.304
 6098TIP3    H151829   0.798   1.714   0.260
 6098TIP3    H251830   0.737   1.662   0.386
 6099TIP3   OH251831   0.582   0.338   0.270
 6099TIP3    H151832   0.573   0.412   0.333
 6099TIP3    H251833   0.669   0.303   0.300
 6100TIP3   OH251834   1.616   0.403   1.518
 6100TIP3    H151835   1.522   0.418   1.493
 6100TIP3    H251836   1.654   0.368   1.435
 6101TIP3   OH251837   1.523   0.768   0.925
 6101TIP3    H151838   1.446   0.712   0.944
 6101TIP3    H251839   1.597   0.713   0.961
 6102TIP3   OH251840   0.471   1.361   0.140
 6102TIP3    H151841   0.547   1.385   0.195
 6102TIP3    H251842   0.517   1.303   0.076
 6103TIP3   OH251843   0.307   0.659   0.069
 6103TIP3    H151844   0.311   0.741   0.120
 6103TIP3    H251845   0.222   0.623   0.100
 6104TIP3   OH251846   1.611   1.693   1.064
 6104TIP3    H151847   1.608   1.763   0.996
 6104TIP3    H251848   1.707   1.683   1.073
 6105TIP3   OH251849   0.412   0.154   0.936
 6105TIP3    H151850   0.384   0.144   0.842
 6105TIP3    H251851   0.373   0.073   0.976
 6106TIP3   OH251852   0.259   1.473   0.560
 6106TIP3    H151853   0.172   1.511   0.573
 6106TIP3    H251854   0.284   1.526   0.481
 6107TIP3   OH251855   0.207   1.795   1.743
 6107TIP3    H151856   0.293   1.773   1.782
 6107TIP3    H251857   0.182   1.714   1.697
 6108TIP3   OH251858   0.638   1.643   1.846
 6108TIP3    H151859   0.732   1.625   1.851
 6108TIP3    H251860   0.620   1.623   1.751
 6109TIP3   OH251861   1.128   1.617   0.088
 6109TIP3    H151862   1.067   1.570   0.027
 6109TIP3    H251863   1.203   1.634   0.028
 6110TIP3   OH251864   1.264   1.523   1.737
 6110TIP3    H151865   1.230   1.437   1.771
 6110TIP3    H251866   1.350   1.527   1.785
 6111TIP3   OH251867   1.545   1.572   0.016
 6111TIP3    H151868   1.513   1.498   0.072
 6111TIP3    H251869   1.640   1.555   0.024
 6112TIP3   OH251870   0.132   1.139   1.790
 6112TIP3    H151871   0.137   1.042   1.782
 6112TIP3    H251872   0.037   1.153   1.771
 6113TIP3   OH251873   0.626   1.164   0.015
 6113TIP3    H151874   0.671   1.130   0.094
 6113TIP3    H251875   0.670   1.114  -0.057
 6114TIP3   OH251876   0.845   1.156   1.693
 6114TIP3    H151877   0.810   1.215   1.622
 6114TIP3    H251878   0.826   1.066   1.656
 6115TIP3   OH251879   1.410   1.119   1.497
 6115TIP3    H151880   1.496   1.166   1.499
 6115TIP3    H251881   1.352   1.198   1.496
 6116TIP3   OH251882   0.264   0.858   1.742
 6116TIP3    H151883   0.320   0.778   1.732
 6116TIP3    H251884   0.308   0.900   1.816
 6117TIP3   OH251885   0.743   1.002   0.239
 6117TIP3    H151886   0.670   0.956   0.283
 6117TIP3    H251887   0.780   0.930   0.185
 6118TIP3   OH251888   0.634   0.775   1.429
 6118TIP3    H151889   0.569   0.847   1.438
 6118TIP3    H251890   0.701   0.815   1.369
 6119TIP3   OH251891   0.836   0.807   0.050
 6119TIP3    H151892   0.866   0.821  -0.043
 6119TIP3    H251893   0.925   0.811   0.095
 6120TIP3   OH251894   1.183   1.054   1.817
 6120TIP3    H151895   1.242   1.003   1.756
 6120TIP3    H251896   1.102   1.001   1.816
 6121TIP3   OH251897   1.738   1.067   8.487
 6121TIP3    H151898   1.679   1.075   8.410
 6121TIP3    H251899   1.758   1.160   8.508
 6122TIP3   OH251900   0.746   0.558   1.546
 6122TIP3    H151901   0.734   0.488   1.480
 6122TIP3    H251902   0.728   0.640   1.495
 6123TIP3   OH251903   0.738   0.333   1.357
 6123TIP3    H151904   0.777   0.384   1.281
 6123TIP3    H251905   0.648   0.312   1.321
 6124TIP3   OH251906   0.862   0.920   1.335
 6124TIP3    H151907   0.943   0.960   1.302
 6124TIP3    H251908   0.798   0.987   1.306
 6125TIP3   OH251909   1.289   0.653   1.856
 6125TIP3    H151910   1.329   0.569   1.827
 6125TIP3    H251911   1.366   0.713   1.855
 6126TIP3   OH251912   1.457   0.954   1.712
 6126TIP3    H151913   1.436   1.010   1.634
 6126TIP3    H251914   1.551   0.935   1.700
 6127TIP3   OH251915   0.425   0.639   1.709
 6127TIP3    H151916   0.401   0.562   1.765
 6127TIP3    H251917   0.513   0.613   1.681
 6128TIP3   OH251918   0.827   0.088   1.357
 6128TIP3    H151919   0.808   0.183   1.374
 6128TIP3    H251920   0.769   0.074   1.280
 6129TIP3   OH251921   0.922   0.516   1.762
 6129TIP3    H151922   0.870   0.481   1.837
 6129TIP3    H251923   0.857   0.505   1.689
 6130TIP3   OH251924   1.208   0.425   1.651
 6130TIP3    H151925   1.117   0.411   1.684
 6130TIP3    H251926   1.260   0.399   1.730
 6131TIP3   OH251927   1.363   0.313   1.846
 6131TIP3    H151928   1.366   0.224   1.807
 6131TIP3    H251929   1.360   0.294   1.941
 6132TIP3   OH251930   0.336   0.384   1.785
 6132TIP3    H151931   0.324   0.305   1.728
 6132TIP3    H251932   0.333   0.344   1.874
 6133TIP3   OH251933   0.774   0.009   1.617
 6133TIP3    H151934   0.867   0.006   1.645
 6133TIP3    H251935   0.789   0.044   1.526
 6134TIP3   OH251936   0.859   0.229   1.775
 6134TIP3    H151937   0.817   0.144   1.794
 6134TIP3    H251938   0.812   0.287   1.837
 6135TIP3   OH251939   0.810   1.870   0.204
 6135TIP3    H151940   0.896   1.908   0.180
 6135TIP3    H251941   0.751   1.910   0.141
 6136TIP3   OH251942   0.208   1.341   0.089
 6136TIP3    H151943   0.303   1.356   0.109
 6136TIP3    H251944   0.211   1.341  -0.010
 6137TIP3   OH251945   0.089   1.860   0.607
 6137TIP3    H151946   0.032   1.790   0.569
 6137TIP3    H251947   0.110   1.815   0.692
 6138TIP3   OH251948   0.144   1.696   0.817
 6138TIP3    H151949   0.109   1.607   0.836
 6138TIP3    H251950   0.191   1.715   0.901
 6139TIP3   OH251951   1.903   1.752   1.077
 6139TIP3    H151952   1.916   1.759   1.172
 6139TIP3    H251953   1.959   1.824   1.046
 6140TIP3   OH251954   1.824   1.709   1.371
 6140TIP3    H151955   1.784   1.632   1.325
 6140TIP3    H251956   1.881   1.664   1.436
 6141TIP3   OH251957   1.706   1.276   1.876
 6141TIP3    H151958   1.650   1.278   1.797
 6141TIP3    H251959   1.719   1.371   1.895
 6142TIP3   OH251960   1.825   1.136   0.376
 6142TIP3    H151961   1.911   1.182   0.392
 6142TIP3    H251962   1.823   1.075   0.453
 6143TIP3   OH251963   1.843   0.951   0.583
 6143TIP3    H151964   1.768   0.906   0.629
 6143TIP3    H251965   1.908   0.962   0.655
 6144TIP3   OH251966   1.829   1.219   1.079
 6144TIP3    H151967   1.893   1.152   1.049
 6144TIP3    H251968   1.876   1.303   1.060
 6145TIP3   OH251969   1.685   1.477   1.305
 6145TIP3    H151970   1.616   1.514   1.362
 6145TIP3    H251971   1.638   1.461   1.220
 6146TIP3   OH251972   1.867   0.898   0.211
 6146TIP3    H151973   1.808   0.919   0.137
 6146TIP3    H251974   1.862   0.979   0.265
 6147TIP3   OH251975   1.639   0.626   0.121
 6147TIP3    H151976   1.709   0.665   0.066
 6147TIP3    H251977   1.638   0.534   0.088
 6148TIP3   OH251978   1.645   0.811   0.689
 6148TIP3    H151979   1.629   0.722   0.655
 6148TIP3    H251980   1.617   0.800   0.782
 6149TIP3   OH251981   0.173   1.013   1.050
 6149TIP3    H151982   0.162   0.975   0.960
 6149TIP3    H251983   0.263   0.983   1.077
 6150TIP3   OH251984   1.737   0.979   1.635
 6150TIP3    H151985   1.788   0.894   1.646
 6150TIP3    H251986   1.806   1.041   1.603
 6151TIP3   OH251987   1.858   0.735   1.674
 6151TIP3    H151988   1.764   0.705   1.678
 6151TIP3    H251989   1.909   0.650   1.682
 6152TIP3   OH251990   1.649   0.399  -0.028
 6152TIP3    H151991   1.699   0.337   0.029
 6152TIP3    H251992   1.557   0.369  -0.022
 6153TIP3   OH251993   1.587   0.549   0.513
 6153TIP3    H151994   1.615   0.457   0.537
 6153TIP3    H251995   1.625   0.552   0.423
 6154TIP3   OH251996   1.703   0.604   1.036
 6154TIP3    H151997   1.801   0.610   1.040
 6154TIP3    H251998   1.684   0.625   1.130
 6155TIP3   OH251999   1.692   0.676   1.296
 6155TIP3    H152000   1.598   0.698   1.312
 6155TIP3    H252001   1.735   0.765   1.297
 6156TIP3   OH252002   0.129   0.527   1.631
 6156TIP3    H152003   0.197   0.491   1.691
 6156TIP3    H252004   0.052   0.472   1.648
 6157TIP3   OH252005   1.890   0.120   1.831
 6157TIP3    H152006   1.936   0.048   1.782
 6157TIP3    H252007   1.884   0.188   1.760
 6158TIP3   OH252008   1.669   0.287   0.516
 6158TIP3    H152009   1.701   0.236   0.593
 6158TIP3    H252010   1.612   0.221   0.468
 6159TIP3   OH252011   0.191   0.322   0.984
 6159TIP3    H152012   0.253   0.246   0.993
 6159TIP3    H252013   0.255   0.394   0.973
 6160TIP3   OH252014   0.097   0.635   1.059
 6160TIP3    H152015   0.164   0.640   0.988
 6160TIP3    H252016   0.109   0.720   1.104
 6161TIP3   OH252017   1.834   0.303   1.647
 6161TIP3    H152018   1.747   0.337   1.617
 6161TIP3    H252019   1.840   0.225   1.589
 6162TIP3   OH252020   1.839   0.289   0.157
 6162TIP3    H152021   1.845   0.204   0.114
 6162TIP3    H252022   1.914   0.336   0.116
 6163TIP3   OH252023   0.075   0.256   0.448
 6163TIP3    H152024  -0.022   0.266   0.459
 6163TIP3    H252025   0.097   0.323   0.379
 6164TIP3   OH252026   1.556   1.787   0.676
 6164TIP3    H152027   1.624   1.757   0.612
 6164TIP3    H252028   1.609   1.829   0.746
 6165TIP3   OH252029   0.108   0.155   1.279
 6165TIP3    H152030   0.070   0.177   1.365
 6165TIP3    H252031   0.054   0.208   1.219
 6166TIP3   OH252032   0.310   1.455   1.738
 6166TIP3    H152033   0.252   1.383   1.708
 6166TIP3    H252034   0.272   1.482   1.822
 6167TIP3   OH252035   0.598   1.590   1.349
 6167TIP3    H152036   0.595   1.684   1.320
 6167TIP3    H252037   0.694   1.577   1.345
 6168TIP3   OH252038   1.035   1.725   1.621
 6168TIP3    H152039   1.044   1.702   1.716
 6168TIP3    H252040   1.124   1.763   1.601
 6169TIP3   OH252041   1.252   1.878   1.572
 6169TIP3    H152042   1.325   1.860   1.512
 6169TIP3    H252043   1.296   1.913   1.653
 6170TIP3   OH252044   1.775   0.103   1.463
 6170TIP3    H152045   1.695   0.133   1.417
 6170TIP3    H252046   1.796   0.019   1.415
 6171TIP3   OH252047   0.337   1.902   1.345
 6171TIP3    H152048   0.252   1.940   1.314
 6171TIP3    H252049   0.343   1.939   1.436
 6172TIP3   OH252050   0.588   1.844   1.239
 6172TIP3    H152051   0.501   1.871   1.276
 6172TIP3    H252052   0.596   1.904   1.163
 6173TIP3   OH252053   1.047   1.808   1.165
 6173TIP3    H152054   1.008   1.854   1.090
 6173TIP3    H252055   1.060   1.884   1.227
 6174TIP3   OH252056   1.252   1.686   1.310
 6174TIP3    H152057   1.181   1.727   1.255
 6174TIP3    H252058   1.326   1.736   1.273
 6175TIP3   OH252059   1.538   1.841   1.286
 6175TIP3    H152060   1.539   1.936   1.267
 6175TIP3    H252061   1.566   1.805   1.199
 6176TIP3   OH252062   0.312   1.753   1.032
 6176TIP3    H152063   0.292   1.687   1.101
 6176TIP3    H252064   0.391   1.712   0.990
 6177TIP3   OH252065   0.492   1.614   0.896
 6177TIP3    H152066   0.486   1.519   0.915
 6177TIP3    H252067   0.576   1.635   0.943
 6178TIP3   OH252068   0.719   1.626   1.041
 6178TIP3    H152069   0.757   1.537   1.022
 6178TIP3    H252070   0.750   1.640   1.133
 6179TIP3   OH252071   1.107   0.273   0.928
 6179TIP3    H152072   1.034   0.208   0.932
 6179TIP3    H252073   1.163   0.233   0.859
 6180TIP3   OH252074   1.594   0.068   0.886
 6180TIP3    H152075   1.662   0.119   0.838
 6180TIP3    H252076   1.512   0.116   0.864
 6181TIP3   OH252077   1.806   0.152   0.708
 6181TIP3    H152078   1.864   0.091   0.658
 6181TIP3    H252079   1.865   0.230   0.723
 6182TIP3   OH252080   0.339   0.104   0.680
 6182TIP3    H152081   0.267   0.072   0.624
 6182TIP3    H252082   0.396   0.023   0.685
 6183TIP3   OH252083   0.249   0.092   0.264
 6183TIP3    H152084   0.271   0.168   0.207
 6183TIP3    H252085   0.182   0.132   0.322
 6184TIP3   OH252086   0.778   0.083   0.695
 6184TIP3    H152087   0.858   0.113   0.649
 6184TIP3    H252088   0.803   0.089   0.790
 6185TIP3   OH252089   1.321   0.114   0.776
 6185TIP3    H152090   1.325   0.076   0.687
 6185TIP3    H252091   1.295   0.040   0.833
 6186TIP3   OH252092   1.499   0.114   0.381
 6186TIP3    H152093   1.422   0.168   0.358
 6186TIP3    H252094   1.454   0.048   0.438
 6187TIP3   OH252095   0.215   1.660   0.365
 6187TIP3    H152096   0.128   1.635   0.332
 6187TIP3    H252097   0.218   1.754   0.337
 6188TIP3   OH252098   0.366   0.297   0.111
 6188TIP3    H152099   0.419   0.238   0.055
 6188TIP3    H252100   0.435   0.324   0.176
 6189TIP3   OH252101   0.872   0.289   0.375
 6189TIP3    H152102   0.941   0.239   0.423
 6189TIP3    H252103   0.890   0.380   0.405
 6190TIP3   OH252104   1.098   1.867   0.169
 6190TIP3    H152105   1.185   1.885   0.127
 6190TIP3    H252106   1.097   1.770   0.154
 6191TIP3   OH252107   1.736   1.715   0.496
 6191TIP3    H152108   1.718   1.642   0.431
 6191TIP3    H252109   1.739   1.791   0.434
 6192TIP3   OH252110   0.288   0.174   1.606
 6192TIP3    H152111   0.226   0.108   1.644
 6192TIP3    H252112   0.371   0.134   1.640
 6193TIP3   OH252113   0.506   0.048   1.744
 6193TIP3    H152114   0.584   0.088   1.702
 6193TIP3    H252115   0.552  -0.029   1.782
 6194TIP3   OH252116   0.378   1.709   0.066
 6194TIP3    H152117   0.342   1.758   0.141
 6194TIP3    H252118   0.448   1.656   0.106
 6195TIP3   OH252119   1.384   0.037   1.758
 6195TIP3    H152120   1.379  -0.003   1.846
 6195TIP3    H252121   1.465  -0.003   1.723
 6196TIP3   OH252122   1.692   1.606   1.652
 6196TIP3    H152123   1.635   1.626   1.574
 6196TIP3    H252124   1.722   1.694   1.677
 6197TIP3   OH252125   3.157   1.035   0.667
 6197TIP3    H152126   3.143   1.132   0.669
 6197TIP3    H252127   3.071   1.006   0.633
 6198TIP3   OH252128   3.033   0.892   0.993
 6198TIP3    H152129   3.016   0.862   1.085
 6198TIP3    H252130   2.959   0.855   0.943
 6199TIP3   OH252131   2.232   0.912   1.181
 6199TIP3    H152132   2.229   0.824   1.223
 6199TIP3    H252133   2.302   0.956   1.232
 6200TIP3   OH252134   3.345   1.218   0.856
 6200TIP3    H152135   3.316   1.151   0.920
 6200TIP3    H252136   3.376   1.288   0.915
 6201TIP3   OH252137   2.351   1.360   1.001
 6201TIP3    H152138   2.312   1.275   0.973
 6201TIP3    H252139   2.444   1.342   0.977
 6202TIP3   OH252140   2.028   0.689   0.552
 6202TIP3    H152141   1.992   0.764   0.600
 6202TIP3    H252142   1.959   0.675   0.483
 6203TIP3   OH252143   2.044   0.936   0.801
 6203TIP3    H152144   2.062   0.841   0.814
 6203TIP3    H252145   2.133   0.976   0.794
 6204TIP3   OH252146   3.091   1.762   0.846
 6204TIP3    H152147   3.156   1.710   0.793
 6204TIP3    H252148   3.071   1.696   0.914
 6205TIP3   OH252149   2.824   1.171   1.118
 6205TIP3    H152150   2.853   1.172   1.026
 6205TIP3    H252151   2.909   1.186   1.165
 6206TIP3   OH252152   3.707   0.299   1.124
 6206TIP3    H152153   3.711   0.368   1.194
 6206TIP3    H252154   3.787   0.320   1.075
 6207TIP3   OH252155   3.206   0.633   1.119
 6207TIP3    H152156   3.222   0.538   1.129
 6207TIP3    H252157   3.164   0.636   1.030
 6208TIP3   OH252158   2.506   0.413   0.787
 6208TIP3    H152159   2.525   0.496   0.738
 6208TIP3    H252160   2.447   0.367   0.724
 6209TIP3   OH252161   3.236   0.453   0.681
 6209TIP3    H152162   3.292   0.402   0.746
 6209TIP3    H252163   3.306   0.501   0.634
 6210TIP3   OH252164   2.113   0.677   0.871
 6210TIP3    H152165   2.194   0.662   0.924
 6210TIP3    H252166   2.136   0.620   0.795
 6211TIP3   OH252167   2.624   0.815   0.838
 6211TIP3    H152168   2.710   0.775   0.860
 6211TIP3    H252169   2.594   0.755   0.766
 6212TIP3   OH252170   3.720   0.465   1.342
 6212TIP3    H152171   3.687   0.552   1.312
 6212TIP3    H252172   3.742   0.483   1.435
 6213TIP3   OH252173   2.400   0.334   1.194
 6213TIP3    H152174   2.374   0.389   1.116
 6213TIP3    H252175   2.332   0.362   1.259
 6214TIP3   OH252176   3.064   1.262   0.562
 6214TIP3    H152177   3.044   1.265   0.468
 6214TIP3    H252178   3.031   1.350   0.592
 6215TIP3   OH252179   2.590   1.084   1.204
 6215TIP3    H152180   2.540   1.156   1.249
 6215TIP3    H252181   2.672   1.131   1.177
 6216TIP3   OH252182   3.416   0.342   0.840
 6216TIP3    H152183   3.372   0.337   0.928
 6216TIP3    H252184   3.504   0.373   0.862
 6217TIP3   OH252185   2.358   0.525   1.004
 6217TIP3    H152186   2.420   0.590   1.043
 6217TIP3    H252187   2.405   0.500   0.921
 6218TIP3   OH252188   2.474   1.300   1.311
 6218TIP3    H152189   2.443   1.366   1.247
 6218TIP3    H252190   2.391   1.284   1.364
 6219TIP3   OH252191   2.071   1.245   0.389
 6219TIP3    H152192   2.066   1.295   0.304
 6219TIP3    H252193   2.086   1.318   0.452
 6220TIP3   OH252194   3.429   1.422   1.055
 6220TIP3    H152195   3.338   1.446   1.086
 6220TIP3    H252196   3.457   1.509   1.023
 6221TIP3   OH252197   3.497   0.199   1.252
 6221TIP3    H152198   3.424   0.244   1.208
 6221TIP3    H252199   3.571   0.226   1.191
 6222TIP3   OH252200   2.777   0.096   0.933
 6222TIP3    H152201   2.819   0.015   0.964
 6222TIP3    H252202   2.691   0.092   0.980
 6223TIP3   OH252203   3.258   1.599   0.715
 6223TIP3    H152204   3.292   1.519   0.672
 6223TIP3    H252205   3.330   1.664   0.692
 6224TIP3   OH252206   3.383   1.375   0.580
 6224TIP3    H152207   3.359   1.309   0.514
 6224TIP3    H252208   3.358   1.330   0.663
 6225TIP3   OH252209   3.530   1.253   1.476
 6225TIP3    H152210   3.547   1.181   1.411
 6225TIP3    H252211   3.543   1.331   1.417
 6226TIP3   OH252212   2.978   0.932   0.404
 6226TIP3    H152213   2.923   1.013   0.394
 6226TIP3    H252214   3.062   0.958   0.361
 6227TIP3   OH252215   2.982   0.840   0.134
 6227TIP3    H152216   3.045   0.860   0.207
 6227TIP3    H252217   3.024   0.765   0.089
 6228TIP3   OH252218   3.735   0.891   1.230
 6228TIP3    H152219   3.672   0.965   1.237
 6228TIP3    H252220   3.795   0.927   1.161
 6229TIP3   OH252221   3.359   0.925   0.520
 6229TIP3    H152222   3.294   0.963   0.585
 6229TIP3    H252223   3.429   0.893   0.581
 6230TIP3   OH252224   3.330   0.742   1.445
 6230TIP3    H152225   3.336   0.833   1.481
 6230TIP3    H252226   3.264   0.755   1.374
 6231TIP3   OH252227   2.498   1.017   0.706
 6231TIP3    H152228   2.470   0.978   0.620
 6231TIP3    H252229   2.559   0.948   0.739
 6232TIP3   OH252230   2.636   1.342   0.974
 6232TIP3    H152231   2.648   1.315   0.881
 6232TIP3    H252232   2.699   1.287   1.024
 6233TIP3   OH252233   2.498   0.885   1.065
 6233TIP3    H152234   2.542   0.885   0.977
 6233TIP3    H252235   2.545   0.959   1.112
 6234TIP3   OH252236   3.185   1.455   1.142
 6234TIP3    H152237   3.134   1.513   1.201
 6234TIP3    H252238   3.164   1.366   1.175
 6235TIP3   OH252239   2.625   1.333   1.535
 6235TIP3    H152240   2.560   1.395   1.576
 6235TIP3    H252241   2.590   1.330   1.443
 6236TIP3   OH252242   3.214   0.877   0.293
 6236TIP3    H152243   3.264   0.893   0.377
 6236TIP3    H252244   3.265   0.931   0.229
 6237TIP3   OH252245   2.326   0.952   1.440
 6237TIP3    H152246   2.362   1.009   1.510
 6237TIP3    H252247   2.245   0.921   1.485
 6238TIP3   OH252248   2.989   1.504   0.647
 6238TIP3    H152249   3.014   1.559   0.721
 6238TIP3    H252250   2.951   1.566   0.585
 6239TIP3   OH252251   2.455   1.510   1.616
 6239TIP3    H152252   2.438   1.547   1.527
 6239TIP3    H252253   2.364   1.486   1.644
 6240TIP3   OH252254   3.618   0.055   0.298
 6240TIP3    H152255   3.521   0.053   0.318
 6240TIP3    H252256   3.629   0.148   0.272
 6241TIP3   OH252257   2.382   0.918   0.461
 6241TIP3    H152258   2.347   1.000   0.421
 6241TIP3    H252259   2.319   0.853   0.431
 6242TIP3   OH252260   3.696   1.477   0.090
 6242TIP3    H152261   3.730   1.568   0.093
 6242TIP3    H252262   3.781   1.428   0.099
 6243TIP3   OH252263   2.025   1.171   1.361
 6243TIP3    H152264   1.961   1.150   1.291
 6243TIP3    H252265   2.074   1.087   1.361
 6244TIP3   OH252266   1.991   1.443   1.039
 6244TIP3    H152267   2.074   1.396   1.051
 6244TIP3    H252268   2.006   1.524   1.089
 6245TIP3   OH252269   3.819   1.501   1.609
 6245TIP3    H152270   3.800   1.409   1.584
 6245TIP3    H252271   3.732   1.525   1.649
 6246TIP3   OH252272   2.869   1.451   1.519
 6246TIP3    H152273   2.899   1.522   1.578
 6246TIP3    H252274   2.781   1.428   1.556
 6247TIP3   OH252275   2.952   1.833   0.425
 6247TIP3    H152276   2.959   1.858   0.330
 6247TIP3    H252277   2.952   1.922   0.467
 6248TIP3   OH252278   2.313   1.704   0.650
 6248TIP3    H152279   2.335   1.671   0.741
 6248TIP3    H252280   2.224   1.669   0.635
 6249TIP3   OH252281   3.248   1.770   0.151
 6249TIP3    H152282   3.308   1.697   0.128
 6249TIP3    H252283   3.254   1.770   0.249
 6250TIP3   OH252284   3.217   1.761   0.432
 6250TIP3    H152285   3.120   1.772   0.440
 6250TIP3    H252286   3.231   1.678   0.481
 6251TIP3   OH252287   3.487   0.648   1.641
 6251TIP3    H152288   3.426   0.686   1.574
 6251TIP3    H252289   3.492   0.555   1.609
 6252TIP3   OH252290   2.243   1.299   1.441
 6252TIP3    H152291   2.250   1.259   1.530
 6252TIP3    H252292   2.156   1.264   1.410
 6253TIP3   OH252293   2.534   0.129   1.051
 6253TIP3    H152294   2.460   0.129   0.987
 6253TIP3    H252295   2.496   0.197   1.111
 6254TIP3   OH252296   2.976   0.130   1.348
 6254TIP3    H152297   2.993   0.115   1.441
 6254TIP3    H252298   2.879   0.131   1.344
 6255TIP3   OH252299   3.267   0.453   1.463
 6255TIP3    H152300   3.204   0.431   1.535
 6255TIP3    H252301   3.283   0.548   1.479
 6256TIP3   OH252302   3.343   1.016   0.095
 6256TIP3    H152303   3.346   1.038   0.001
 6256TIP3    H252304   3.426   1.058   0.123
 6257TIP3   OH252305   2.950   0.329   0.090
 6257TIP3    H152306   2.887   0.330   0.163
 6257TIP3    H252307   2.993   0.242   0.104
 6258TIP3   OH252308   2.520   0.647   1.184
 6258TIP3    H152309   2.430   0.637   1.220
 6258TIP3    H252310   2.517   0.737   1.146
 6259TIP3   OH252311   2.516   0.634   0.641
 6259TIP3    H152312   2.419   0.621   0.635
 6259TIP3    H252313   2.547   0.601   0.554
 6260TIP3   OH252314   3.070   0.726   0.544
 6260TIP3    H152315   3.032   0.806   0.499
 6260TIP3    H252316   3.131   0.695   0.475
 6261TIP3   OH252317   2.948   0.739   1.651
 6261TIP3    H152318   2.906   0.657   1.684
 6261TIP3    H252319   3.036   0.732   1.693
 6262TIP3   OH252320   3.163   0.668   0.846
 6262TIP3    H152321   3.150   0.744   0.787
 6262TIP3    H252322   3.163   0.594   0.783
 6263TIP3   OH252323   2.258   0.650   1.289
 6263TIP3    H152324   2.282   0.678   1.379
 6263TIP3    H252325   2.208   0.569   1.308
 6264TIP3   OH252326   2.601   0.436   0.049
 6264TIP3    H152327   2.594   0.396   0.138
 6264TIP3    H252328   2.574   0.528   0.063
 6265TIP3   OH252329   1.950   0.383   0.742
 6265TIP3    H152330   2.013   0.392   0.817
 6265TIP3    H252331   2.002   0.407   0.665
 6266TIP3   OH252332   2.063   0.437   0.313
 6266TIP3    H152333   2.122   0.463   0.239
 6266TIP3    H252334   2.017   0.521   0.333
 6267TIP3   OH252335   3.064   0.825   1.253
 6267TIP3    H152336   3.122   0.758   1.209
 6267TIP3    H252337   3.009   0.766   1.310
 6268TIP3   OH252338   2.799   0.393   0.754
 6268TIP3    H152339   2.703   0.374   0.747
 6268TIP3    H252340   2.818   0.368   0.847
 6269TIP3   OH252341   2.228   0.554   0.660
 6269TIP3    H152342   2.162   0.599   0.603
 6269TIP3    H252343   2.257   0.478   0.604
 6270TIP3   OH252344   2.617   0.581   0.375
 6270TIP3    H152345   2.708   0.605   0.397
 6270TIP3    H252346   2.588   0.646   0.309
 6271TIP3   OH252347   3.246   0.310   1.056
 6271TIP3    H152348   3.196   0.325   1.139
 6271TIP3    H252349   3.170   0.286   0.998
 6272TIP3   OH252350   2.488   0.708   0.138
 6272TIP3    H152351   2.423   0.710   0.066
 6272TIP3    H252352   2.570   0.741   0.095
 6273TIP3   OH252353   3.512   1.882   1.726
 6273TIP3    H152354   3.556   1.916   1.645
 6273TIP3    H252355   3.566   1.924   1.794
 6274TIP3   OH252356   2.271   1.176   1.703
 6274TIP3    H152357   2.329   1.158   1.781
 6274TIP3    H252358   2.186   1.139   1.738
 6275TIP3   OH252359   2.851   0.679   0.918
 6275TIP3    H152360   2.935   0.633   0.898
 6275TIP3    H252361   2.809   0.616   0.978
 6276TIP3   OH252362   2.350   0.328   0.582
 6276TIP3    H152363   2.298   0.259   0.630
 6276TIP3    H252364   2.400   0.272   0.521
 6277TIP3   OH252365   2.745   0.499   1.178
 6277TIP3    H152366   2.668   0.560   1.184
 6277TIP3    H252367   2.815   0.552   1.220
 6278TIP3   OH252368   2.815   1.146   0.387
 6278TIP3    H152369   2.741   1.093   0.352
 6278TIP3    H252370   2.775   1.178   0.473
 6279TIP3   OH252371   3.556   1.103   1.256
 6279TIP3    H152372   3.607   1.163   1.196
 6279TIP3    H252373   3.475   1.093   1.203
 6280TIP3   OH252374   3.204   0.433   0.141
 6280TIP3    H152375   3.111   0.446   0.113
 6280TIP3    H252376   3.219   0.504   0.205
 6281TIP3   OH252377   2.930   1.183   1.498
 6281TIP3    H152378   2.893   1.161   1.585
 6281TIP3    H252379   2.907   1.278   1.493
 6282TIP3   OH252380   3.261   0.609   0.354
 6282TIP3    H152381   3.326   0.614   0.427
 6282TIP3    H252382   3.293   0.681   0.296
 6283TIP3   OH252383   2.321   1.087   0.920
 6283TIP3    H152384   2.380   1.080   0.841
 6283TIP3    H252385   2.358   1.019   0.980
 6284TIP3   OH252386   3.012   1.278   0.270
 6284TIP3    H152387   2.969   1.364   0.293
 6284TIP3    H252388   2.944   1.215   0.302
 6285TIP3   OH252389   2.009   0.904   1.484
 6285TIP3    H152390   1.997   0.842   1.559
 6285TIP3    H252391   1.964   0.858   1.412
 6286TIP3   OH252392   2.692   0.889   1.631
 6286TIP3    H152393   2.646   0.842   1.558
 6286TIP3    H252394   2.778   0.841   1.635
 6287TIP3   OH252395   3.220   1.395   1.509
 6287TIP3    H152396   3.144   1.393   1.448
 6287TIP3    H252397   3.187   1.459   1.575
 6288TIP3   OH252398   3.740   0.635   0.333
 6288TIP3    H152399   3.685   0.608   0.257
 6288TIP3    H252400   3.758   0.728   0.310
 6289TIP3   OH252401   3.783   1.209   1.594
 6289TIP3    H152402   3.699   1.239   1.554
 6289TIP3    H252403   3.838   1.198   1.513
 6290TIP3   OH252404   3.556   1.528   0.324
 6290TIP3    H152405   3.554   1.443   0.369
 6290TIP3    H252406   3.603   1.510   0.241
 6291TIP3   OH252407   3.298   1.009   1.055
 6291TIP3    H152408   3.210   0.972   1.036
 6291TIP3    H252409   3.353   0.943   1.009
 6292TIP3   OH252410   2.565   1.448   0.658
 6292TIP3    H152411   2.578   1.541   0.631
 6292TIP3    H252412   2.472   1.436   0.633
 6293TIP3   OH252413   2.153   0.926   0.114
 6293TIP3    H152414   2.200   0.990   0.171
 6293TIP3    H252415   2.067   0.917   0.158
 6294TIP3   OH252416   2.692   1.207   0.621
 6294TIP3    H152417   2.650   1.296   0.631
 6294TIP3    H252418   2.635   1.148   0.673
 6295TIP3   OH252419   2.756   1.600   1.312
 6295TIP3    H152420   2.818   1.671   1.288
 6295TIP3    H252421   2.802   1.558   1.387
 6296TIP3   OH252422   2.569   1.701   0.558
 6296TIP3    H152423   2.474   1.708   0.585
 6296TIP3    H252424   2.603   1.783   0.601
 6297TIP3   OH252425   3.060   1.203   1.236
 6297TIP3    H152426   3.025   1.178   1.324
 6297TIP3    H252427   3.105   1.120   1.209
 6298TIP3   OH252428   3.336   1.322   0.166
 6298TIP3    H152429   3.361   1.275   0.249
 6298TIP3    H252430   3.242   1.295   0.165
 6299TIP3   OH252431   3.406   1.651   1.448
 6299TIP3    H152432   3.312   1.626   1.442
 6299TIP3    H252433   3.412   1.725   1.383
 6300TIP3   OH252434   3.771   1.748   0.169
 6300TIP3    H152435   3.817   1.815   0.115
 6300TIP3    H252436   3.706   1.808   0.213
 6301TIP3   OH252437   2.201   0.372   1.387
 6301TIP3    H152438   2.146   0.415   1.454
 6301TIP3    H252439   2.189   0.279   1.410
 6302TIP3   OH252440   3.416   1.175   0.381
 6302TIP3    H152441   3.406   1.086   0.421
 6302TIP3    H252442   3.512   1.189   0.393
 6303TIP3   OH252443   2.161   1.567   1.262
 6303TIP3    H152444   2.219   1.489   1.262
 6303TIP3    H252445   2.181   1.605   1.349
 6304TIP3   OH252446   2.613   1.379   0.244
 6304TIP3    H152447   2.678   1.333   0.299
 6304TIP3    H252448   2.634   1.474   0.261
 6305TIP3   OH252449   2.269   1.107   0.275
 6305TIP3    H152450   2.199   1.155   0.325
 6305TIP3    H252451   2.322   1.180   0.239
 6306TIP3   OH252452   3.097   0.365   1.273
 6306TIP3    H152453   3.157   0.391   1.346
 6306TIP3    H252454   3.047   0.290   1.311
 6307TIP3   OH252455   3.160   0.303   0.463
 6307TIP3    H152456   3.153   0.362   0.387
 6307TIP3    H252457   3.186   0.366   0.534
 6308TIP3   OH252458   2.923   1.518   0.330
 6308TIP3    H152459   2.856   1.588   0.336
 6308TIP3    H252460   2.977   1.550   0.254
 6309TIP3   OH252461   2.871   0.533   0.532
 6309TIP3    H152462   2.936   0.605   0.544
 6309TIP3    H252463   2.861   0.496   0.623
 6310TIP3   OH252464   2.937   0.637   1.401
 6310TIP3    H152465   2.928   0.687   1.486
 6310TIP3    H252466   2.965   0.548   1.430
 6311TIP3   OH252467   2.908   0.184   0.585
 6311TIP3    H152468   2.895   0.258   0.647
 6311TIP3    H252469   2.995   0.208   0.545
 6312TIP3   OH252470   2.645   1.639   0.299
 6312TIP3    H152471   2.669   1.726   0.260
 6312TIP3    H252472   2.608   1.669   0.386
 6313TIP3   OH252473   2.479   0.341   0.275
 6313TIP3    H152474   2.480   0.427   0.320
 6313TIP3    H252475   2.563   0.306   0.309
 6314TIP3   OH252476   3.515   0.400   1.535
 6314TIP3    H152477   3.419   0.392   1.521
 6314TIP3    H252478   3.548   0.390   1.443
 6315TIP3   OH252479   3.409   0.774   0.914
 6315TIP3    H152480   3.322   0.730   0.915
 6315TIP3    H252481   3.466   0.710   0.963
 6316TIP3   OH252482   2.352   1.360   0.153
 6316TIP3    H152483   2.439   1.384   0.193
 6316TIP3    H252484   2.383   1.311   0.075
 6317TIP3   OH252485   2.169   0.653   0.067
 6317TIP3    H152486   2.184   0.748   0.085
 6317TIP3    H252487   2.078   0.654   0.035
 6318TIP3   OH252488   3.502   1.692   1.070
 6318TIP3    H152489   3.511   1.756   0.996
 6318TIP3    H252490   3.596   1.681   1.091
 6319TIP3   OH252491   2.276   0.153   0.945
 6319TIP3    H152492   2.250   0.123   0.856
 6319TIP3    H252493   2.242   0.077   0.999
 6320TIP3   OH252494   2.096   1.491   0.541
 6320TIP3    H152495   2.022   1.536   0.583
 6320TIP3    H252496   2.120   1.556   0.471
 6321TIP3   OH252497   2.047   1.762   1.687
 6321TIP3    H152498   2.114   1.748   1.758
 6321TIP3    H252499   2.016   1.670   1.673
 6322TIP3   OH252500   2.490   1.662   1.833
 6322TIP3    H152501   2.585   1.644   1.846
 6322TIP3    H252502   2.477   1.617   1.746
 6323TIP3   OH252503   3.017   1.624   0.087
 6323TIP3    H152504   2.966   1.573   0.021
 6323TIP3    H252505   3.093   1.652   0.033
 6324TIP3   OH252506   3.171   1.525   1.737
 6324TIP3    H152507   3.128   1.439   1.765
 6324TIP3    H252508   3.260   1.512   1.772
 6325TIP3   OH252509   3.435   1.574   0.018
 6325TIP3    H152510   3.398   1.499   0.069
 6325TIP3    H252511   3.530   1.554   0.035
 6326TIP3   OH252512   2.026   1.128   1.791
 6326TIP3    H152513   1.998   1.035   1.793
 6326TIP3    H252514   1.977   1.160   1.713
 6327TIP3   OH252515   2.508   1.145   0.013
 6327TIP3    H152516   2.564   1.149   0.093
 6327TIP3    H252517   2.571   1.108  -0.053
 6328TIP3   OH252518   2.709   1.149   1.704
 6328TIP3    H152519   2.683   1.209   1.630
 6328TIP3    H252520   2.695   1.059   1.665
 6329TIP3   OH252521   3.280   1.123   1.504
 6329TIP3    H152522   3.372   1.155   1.494
 6329TIP3    H252523   3.239   1.211   1.517
 6330TIP3   OH252524   2.168   0.855   1.738
 6330TIP3    H152525   2.145   0.770   1.780
 6330TIP3    H252526   2.206   0.903   1.814
 6331TIP3   OH252527   2.625   0.997   0.251
 6331TIP3    H152528   2.551   0.949   0.291
 6331TIP3    H252529   2.665   0.929   0.192
 6332TIP3   OH252530   2.505   0.759   1.445
 6332TIP3    H152531   2.434   0.827   1.435
 6332TIP3    H252532   2.566   0.786   1.374
 6333TIP3   OH252533   2.734   0.800   0.053
 6333TIP3    H152534   2.764   0.823  -0.037
 6333TIP3    H252535   2.819   0.808   0.102
 6334TIP3   OH252536   3.074   1.043   1.809
 6334TIP3    H152537   3.107   1.022   1.720
 6334TIP3    H252538   3.116   0.974   1.863
 6335TIP3   OH252539   3.614   1.068   8.494
 6335TIP3    H152540   3.564   1.078   8.410
 6335TIP3    H252541   3.643   1.159   8.511
 6336TIP3   OH252542   2.598   0.528   1.554
 6336TIP3    H152543   2.607   0.459   1.485
 6336TIP3    H252544   2.558   0.604   1.506
 6337TIP3   OH252545   2.611   0.343   1.353
 6337TIP3    H152546   2.660   0.395   1.284
 6337TIP3    H252547   2.525   0.328   1.308
 6338TIP3   OH252548   2.732   0.901   1.338
 6338TIP3    H152549   2.823   0.934   1.339
 6338TIP3    H252550   2.682   0.976   1.299
 6339TIP3   OH252551   3.197   0.616   1.808
 6339TIP3    H152552   3.181   0.558   1.886
 6339TIP3    H252553   3.281   0.660   1.828
 6340TIP3   OH252554   3.351   0.953   1.698
 6340TIP3    H152555   3.318   1.010   1.625
 6340TIP3    H252556   3.446   0.949   1.677
 6341TIP3   OH252557   2.437   0.605   1.784
 6341TIP3    H152558   2.345   0.572   1.777
 6341TIP3    H252559   2.478   0.567   1.705
 6342TIP3   OH252560   2.692   0.093   1.319
 6342TIP3    H152561   2.668   0.185   1.344
 6342TIP3    H252562   2.652   0.087   1.230
 6343TIP3   OH252563   2.816   0.506   1.740
 6343TIP3    H152564   2.754   0.514   1.815
 6343TIP3    H252565   2.755   0.486   1.666
 6344TIP3   OH252566   3.093   0.387   1.656
 6344TIP3    H152567   3.010   0.399   1.705
 6344TIP3    H252568   3.155   0.374   1.731
 6345TIP3   OH252569   3.274   0.294   1.841
 6345TIP3    H152570   3.263   0.201   1.868
 6345TIP3    H252571   3.249   0.341   1.923
 6346TIP3   OH252572   2.221   0.416   1.762
 6346TIP3    H152573   2.211   0.340   1.701
 6346TIP3    H252574   2.223   0.370   1.850
 6347TIP3   OH252575   2.695   0.081   1.625
 6347TIP3    H152576   2.783   0.041   1.628
 6347TIP3    H252577   2.678   0.080   1.530
 6348TIP3   OH252578   2.736   0.174   1.909
 6348TIP3    H152579   2.692   0.164   1.822
 6348TIP3    H252580   2.681   0.243   1.950
 6349TIP3   OH252581   2.695   1.876   0.191
 6349TIP3    H152582   2.779   1.925   0.198
 6349TIP3    H252583   2.697   1.856   0.096
 6350TIP3   OH252584   2.049   1.334   0.121
 6350TIP3    H152585   2.145   1.349   0.125
 6350TIP3    H252586   2.043   1.290   0.035
 6351TIP3   OH252587   1.955   1.829   0.594
 6351TIP3    H152588   1.870   1.785   0.572
 6351TIP3    H252589   1.981   1.777   0.672
 6352TIP3   OH252590   2.029   1.672   0.809
 6352TIP3    H152591   1.967   1.629   0.870
 6352TIP3    H252592   2.092   1.709   0.875
 6353TIP3   OH252593   3.774   1.748   1.074
 6353TIP3    H152594   3.792   1.759   1.169
 6353TIP3    H252595   3.821   1.823   1.037
 6354TIP3   OH252596   3.703   1.727   1.367
 6354TIP3    H152597   3.673   1.645   1.323
 6354TIP3    H252598   3.761   1.690   1.436
 6355TIP3   OH252599   3.626   1.305   1.879
 6355TIP3    H152600   3.606   1.209   1.877
 6355TIP3    H252601   3.601   1.335   1.790
 6356TIP3   OH252602   3.701   1.140   0.377
 6356TIP3    H152603   3.787   1.182   0.397
 6356TIP3    H252604   3.694   1.076   0.451
 6357TIP3   OH252605   3.719   0.957   0.587
 6357TIP3    H152606   3.651   0.909   0.640
 6357TIP3    H252607   3.788   0.972   0.653
 6358TIP3   OH252608   3.696   1.211   1.065
 6358TIP3    H152609   3.769   1.149   1.044
 6358TIP3    H252610   3.734   1.295   1.034
 6359TIP3   OH252611   3.578   1.479   1.300
 6359TIP3    H152612   3.512   1.526   1.355
 6359TIP3    H252613   3.527   1.459   1.218
 6360TIP3   OH252614   3.763   0.903   0.205
 6360TIP3    H152615   3.692   0.918   0.140
 6360TIP3    H252616   3.751   0.981   0.264
 6361TIP3   OH252617   3.542   0.630   0.118
 6361TIP3    H152618   3.607   0.669   0.057
 6361TIP3    H252619   3.536   0.538   0.082
 6362TIP3   OH252620   3.535   0.788   0.675
 6362TIP3    H152621   3.520   0.696   0.647
 6362TIP3    H252622   3.507   0.786   0.769
 6363TIP3   OH252623   2.020   1.016   1.069
 6363TIP3    H152624   2.029   0.993   0.974
 6363TIP3    H252625   2.111   0.995   1.101
 6364TIP3   OH252626   3.635   0.979   1.624
 6364TIP3    H152627   3.686   0.894   1.623
 6364TIP3    H252628   3.701   1.044   1.593
 6365TIP3   OH252629   3.741   0.740   1.612
 6365TIP3    H152630   3.649   0.708   1.628
 6365TIP3    H252631   3.795   0.659   1.628
 6366TIP3   OH252632   3.534   0.402  -0.028
 6366TIP3    H152633   3.601   0.341   0.007
 6366TIP3    H252634   3.450   0.355  -0.014
 6367TIP3   OH252635   3.470   0.547   0.520
 6367TIP3    H152636   3.502   0.458   0.544
 6367TIP3    H252637   3.511   0.557   0.432
 6368TIP3   OH252638   3.583   0.602   1.050
 6368TIP3    H152639   3.680   0.620   1.055
 6368TIP3    H252640   3.559   0.604   1.145
 6369TIP3   OH252641   3.564   0.680   1.311
 6369TIP3    H152642   3.475   0.707   1.343
 6369TIP3    H252643   3.609   0.766   1.295
 6370TIP3   OH252644   2.004   0.513   1.645
 6370TIP3    H152645   2.079   0.499   1.707
 6370TIP3    H252646   1.956   0.429   1.653
 6371TIP3   OH252647   3.692   0.063   1.795
 6371TIP3    H152648   3.761  -0.003   1.808
 6371TIP3    H252649   3.741   0.129   1.743
 6372TIP3   OH252650   3.557   0.282   0.522
 6372TIP3    H152651   3.591   0.227   0.595
 6372TIP3    H252652   3.500   0.219   0.471
 6373TIP3   OH252653   2.112   0.364   0.980
 6373TIP3    H152654   2.161   0.279   0.976
 6373TIP3    H252655   2.187   0.425   0.997
 6374TIP3   OH252656   1.955   0.642   1.086
 6374TIP3    H152657   2.003   0.625   1.003
 6374TIP3    H252658   2.003   0.717   1.122
 6375TIP3   OH252659   3.747   0.308   1.614
 6375TIP3    H152660   3.654   0.335   1.598
 6375TIP3    H252661   3.744   0.222   1.569
 6376TIP3   OH252662   3.730   0.288   0.145
 6376TIP3    H152663   3.739   0.200   0.105
 6376TIP3    H252664   3.811   0.331   0.113
 6377TIP3   OH252665   1.955   0.235   0.447
 6377TIP3    H152666   1.863   0.262   0.464
 6377TIP3    H252667   1.985   0.308   0.387
 6378TIP3   OH252668   3.441   1.780   0.668
 6378TIP3    H152669   3.520   1.761   0.614
 6378TIP3    H252670   3.478   1.831   0.743
 6379TIP3   OH252671   1.991   0.146   1.287
 6379TIP3    H152672   1.938   0.144   1.369
 6379TIP3    H252673   1.942   0.206   1.229
 6380TIP3   OH252674   2.220   1.453   1.715
 6380TIP3    H152675   2.134   1.479   1.679
 6380TIP3    H252676   2.218   1.355   1.706
 6381TIP3   OH252677   2.489   1.608   1.355
 6381TIP3    H152678   2.495   1.698   1.316
 6381TIP3    H252679   2.583   1.582   1.348
 6382TIP3   OH252680   2.901   1.718   1.620
 6382TIP3    H152681   2.917   1.698   1.715
 6382TIP3    H252682   2.988   1.756   1.595
 6383TIP3   OH252683   3.117   1.879   1.561
 6383TIP3    H152684   3.194   1.866   1.504
 6383TIP3    H252685   3.158   1.906   1.646
 6384TIP3   OH252686   3.658   0.104   1.452
 6384TIP3    H152687   3.585   0.146   1.402
 6384TIP3    H252688   3.659   0.015   1.410
 6385TIP3   OH252689   2.239   1.903   1.333
 6385TIP3    H152690   2.159   1.956   1.313
 6385TIP3    H252691   2.230   1.887   1.428
 6386TIP3   OH252692   2.474   1.847   1.226
 6386TIP3    H152693   2.384   1.867   1.259
 6386TIP3    H252694   2.476   1.909   1.150
 6387TIP3   OH252695   2.929   1.801   1.174
 6387TIP3    H152696   2.873   1.833   1.103
 6387TIP3    H252697   2.945   1.882   1.226
 6388TIP3   OH252698   3.145   1.678   1.296
 6388TIP3    H152699   3.077   1.721   1.240
 6388TIP3    H252700   3.220   1.738   1.277
 6389TIP3   OH252701   3.391   1.848   1.261
 6389TIP3    H152702   3.410   1.937   1.223
 6389TIP3    H252703   3.427   1.793   1.188
 6390TIP3   OH252704   2.190   1.739   1.022
 6390TIP3    H152705   2.171   1.680   1.098
 6390TIP3    H252706   2.279   1.708   0.994
 6391TIP3   OH252707   2.404   1.639   0.900
 6391TIP3    H152708   2.388   1.547   0.929
 6391TIP3    H252709   2.492   1.654   0.941
 6392TIP3   OH252710   2.638   1.634   1.029
 6392TIP3    H152711   2.665   1.542   1.012
 6392TIP3    H252712   2.651   1.637   1.126
 6393TIP3   OH252713   3.003   0.264   0.922
 6393TIP3    H152714   2.926   0.205   0.923
 6393TIP3    H252715   3.063   0.213   0.865
 6394TIP3   OH252716   3.479   0.063   0.880
 6394TIP3    H152717   3.548   0.112   0.830
 6394TIP3    H252718   3.401   0.119   0.864
 6395TIP3   OH252719   3.695   0.154   0.717
 6395TIP3    H152720   3.744   0.090   0.662
 6395TIP3    H252721   3.754   0.233   0.721
 6396TIP3   OH252722   2.224   0.110   0.666
 6396TIP3    H152723   2.153   0.096   0.601
 6396TIP3    H252724   2.269   0.023   0.659
 6397TIP3   OH252725   2.103   0.101   0.234
 6397TIP3    H152726   2.142   0.181   0.193
 6397TIP3    H252727   2.047   0.140   0.304
 6398TIP3   OH252728   2.639   0.088   0.702
 6398TIP3    H152729   2.723   0.114   0.658
 6398TIP3    H252730   2.663   0.097   0.796
 6399TIP3   OH252731   3.203   0.107   0.775
 6399TIP3    H152732   3.200   0.074   0.683
 6399TIP3    H252733   3.181   0.031   0.831
 6400TIP3   OH252734   3.378   0.120   0.386
 6400TIP3    H152735   3.297   0.167   0.359
 6400TIP3    H252736   3.337   0.046   0.435
 6401TIP3   OH252737   2.100   1.679   0.345
 6401TIP3    H152738   2.011   1.675   0.305
 6401TIP3    H252739   2.115   1.774   0.330
 6402TIP3   OH252740   2.239   0.282   0.094
 6402TIP3    H152741   2.301   0.238   0.035
 6402TIP3    H252742   2.302   0.330   0.150
 6403TIP3   OH252743   2.772   0.301   0.369
 6403TIP3    H152744   2.837   0.245   0.416
 6403TIP3    H252745   2.787   0.385   0.416
 6404TIP3   OH252746   2.982   1.880   0.164
 6404TIP3    H152747   3.069   1.899   0.123
 6404TIP3    H252748   2.983   1.783   0.151
 6405TIP3   OH252749   3.631   1.724   0.491
 6405TIP3    H152750   3.610   1.653   0.425
 6405TIP3    H252751   3.629   1.802   0.432
 6406TIP3   OH252752   2.151   0.166   1.626
 6406TIP3    H152753   2.104   0.080   1.628
 6406TIP3    H252754   2.241   0.134   1.650
 6407TIP3   OH252755   2.370   0.045   1.733
 6407TIP3    H152756   2.463   0.048   1.761
 6407TIP3    H252757   2.328  -0.021   1.793
 6408TIP3   OH252758   2.280   1.779   0.055
 6408TIP3    H152759   2.217   1.821   0.116
 6408TIP3    H252760   2.302   1.696   0.100
 6409TIP3   OH252761   3.321   9.367   1.873
 6409TIP3    H152762   3.275   9.282   1.869
 6409TIP3    H252763   3.393   9.356   1.808
 6410TIP3   OH252764   3.580   1.591   1.658
 6410TIP3    H152765   3.531   1.619   1.578
 6410TIP3    H252766   3.550   1.659   1.722
 6411TIP3   OH252767   5.049   1.025   0.668
 6411TIP3    H152768   5.035   1.122   0.676
 6411TIP3    H252769   4.970   1.000   0.617
 6412TIP3   OH252770   4.922   0.885   0.992
 6412TIP3    H152771   4.910   0.863   1.087
 6412TIP3    H252772   4.844   0.847   0.948
 6413TIP3   OH252773   4.108   0.889   1.164
 6413TIP3    H152774   4.124   0.814   1.226
 6413TIP3    H252775   4.200   0.914   1.142
 6414TIP3   OH252776   5.228   1.227   0.878
 6414TIP3    H152777   5.210   1.149   0.932
 6414TIP3    H252778   5.250   1.293   0.945
 6415TIP3   OH252779   4.223   1.358   0.998
 6415TIP3    H152780   4.184   1.273   0.970
 6415TIP3    H252781   4.316   1.343   0.973
 6416TIP3   OH252782   3.908   0.679   0.552
 6416TIP3    H152783   3.875   0.759   0.592
 6416TIP3    H252784   3.835   0.657   0.491
 6417TIP3   OH252785   3.938   0.937   0.808
 6417TIP3    H152786   3.964   0.843   0.818
 6417TIP3    H252787   4.023   0.985   0.800
 6418TIP3   OH252788   4.986   1.767   0.837
 6418TIP3    H152789   5.047   1.707   0.789
 6418TIP3    H252790   4.966   1.710   0.912
 6419TIP3   OH252791   4.711   1.166   1.106
 6419TIP3    H152792   4.747   1.160   1.017
 6419TIP3    H252793   4.793   1.179   1.158
 6420TIP3   OH252794   5.595   0.299   1.132
 6420TIP3    H152795   5.596   0.369   1.200
 6420TIP3    H252796   5.669   0.330   1.077
 6421TIP3   OH252797   5.099   0.624   1.111
 6421TIP3    H152798   5.104   0.528   1.118
 6421TIP3    H252799   5.075   0.633   1.017
 6422TIP3   OH252800   4.394   0.413   0.785
 6422TIP3    H152801   4.404   0.497   0.736
 6422TIP3    H252802   4.339   0.362   0.723
 6423TIP3   OH252803   5.129   0.428   0.661
 6423TIP3    H152804   5.184   0.386   0.731
 6423TIP3    H252805   5.190   0.496   0.630
 6424TIP3   OH252806   3.999   0.672   0.873
 6424TIP3    H152807   4.076   0.650   0.927
 6424TIP3    H252808   4.026   0.629   0.790
 6425TIP3   OH252809   4.504   0.824   0.833
 6425TIP3    H152810   4.590   0.784   0.857
 6425TIP3    H252811   4.474   0.760   0.765
 6426TIP3   OH252812   5.630   0.468   1.347
 6426TIP3    H152813   5.585   0.549   1.312
 6426TIP3    H252814   5.623   0.483   1.443
 6427TIP3   OH252815   4.289   0.331   1.197
 6427TIP3    H152816   4.250   0.380   1.121
 6427TIP3    H252817   4.221   0.348   1.265
 6428TIP3   OH252818   4.953   1.258   0.565
 6428TIP3    H152819   4.935   1.264   0.470
 6428TIP3    H252820   4.923   1.347   0.595
 6429TIP3   OH252821   4.472   1.085   1.201
 6429TIP3    H152822   4.421   1.163   1.232
 6429TIP3    H252823   4.556   1.127   1.170
 6430TIP3   OH252824   5.307   0.368   0.861
 6430TIP3    H152825   5.244   0.340   0.930
 6430TIP3    H252826   5.383   0.396   0.915
 6431TIP3   OH252827   4.234   0.518   0.999
 6431TIP3    H152828   4.308   0.566   1.042
 6431TIP3    H252829   4.279   0.482   0.919
 6432TIP3   OH252830   4.356   1.306   1.290
 6432TIP3    H152831   4.332   1.359   1.212
 6432TIP3    H252832   4.268   1.304   1.334
 6433TIP3   OH252833   3.952   1.247   0.390
 6433TIP3    H152834   3.951   1.297   0.305
 6433TIP3    H252835   3.956   1.320   0.456
 6434TIP3   OH252836   5.313   1.422   1.061
 6434TIP3    H152837   5.220   1.448   1.076
 6434TIP3    H252838   5.344   1.505   1.020
 6435TIP3   OH252839   5.377   0.212   1.261
 6435TIP3    H152840   5.310   0.265   1.215
 6435TIP3    H252841   5.453   0.224   1.199
 6436TIP3   OH252842   4.659   0.105   0.942
 6436TIP3    H152843   4.708   0.029   0.974
 6436TIP3    H252844   4.573   0.095   0.991
 6437TIP3   OH252845   5.154   1.595   0.716
 6437TIP3    H152846   5.182   1.514   0.671
 6437TIP3    H252847   5.230   1.655   0.694
 6438TIP3   OH252848   5.273   1.373   0.570
 6438TIP3    H152849   5.249   1.301   0.509
 6438TIP3    H252850   5.249   1.334   0.655
 6439TIP3   OH252851   5.409   1.237   1.463
 6439TIP3    H152852   5.413   1.166   1.394
 6439TIP3    H252853   5.425   1.314   1.405
 6440TIP3   OH252854   4.869   0.928   0.405
 6440TIP3    H152855   4.808   1.004   0.392
 6440TIP3    H252856   4.951   0.959   0.363
 6441TIP3   OH252857   4.864   0.848   0.135
 6441TIP3    H152858   4.929   0.862   0.207
 6441TIP3    H252859   4.910   0.784   0.080
 6442TIP3   OH252860   5.620   0.899   1.256
 6442TIP3    H152861   5.548   0.960   1.231
 6442TIP3    H252862   5.683   0.921   1.184
 6443TIP3   OH252863   5.256   0.920   0.510
 6443TIP3    H152864   5.191   0.959   0.573
 6443TIP3    H252865   5.321   0.885   0.575
 6444TIP3   OH252866   5.232   0.766   1.440
 6444TIP3    H152867   5.225   0.854   1.483
 6444TIP3    H252868   5.165   0.779   1.370
 6445TIP3   OH252869   4.368   1.014   0.691
 6445TIP3    H152870   4.356   0.970   0.604
 6445TIP3    H252871   4.423   0.949   0.739
 6446TIP3   OH252872   4.526   1.342   0.975
 6446TIP3    H152873   4.547   1.329   0.882
 6446TIP3    H252874   4.592   1.288   1.023
 6447TIP3   OH252875   4.366   0.898   1.059
 6447TIP3    H152876   4.416   0.883   0.976
 6447TIP3    H252877   4.427   0.959   1.107
 6448TIP3   OH252878   5.055   1.461   1.121
 6448TIP3    H152879   5.015   1.513   1.192
 6448TIP3    H252880   5.057   1.372   1.160
 6449TIP3   OH252881   4.521   1.347   1.506
 6449TIP3    H152882   4.450   1.391   1.556
 6449TIP3    H252883   4.477   1.339   1.419
 6450TIP3   OH252884   5.103   0.871   0.288
 6450TIP3    H152885   5.157   0.886   0.369
 6450TIP3    H252886   5.151   0.927   0.224
 6451TIP3   OH252887   4.228   0.919   1.446
 6451TIP3    H152888   4.246   1.014   1.443
 6451TIP3    H252889   4.136   0.918   1.479
 6452TIP3   OH252890   4.888   1.507   0.645
 6452TIP3    H152891   4.909   1.561   0.723
 6452TIP3    H252892   4.837   1.567   0.591
 6453TIP3   OH252893   4.325   1.500   1.606
 6453TIP3    H152894   4.312   1.545   1.520
 6453TIP3    H252895   4.234   1.474   1.628
 6454TIP3   OH252896   5.502   0.061   0.300
 6454TIP3    H152897   5.405   0.059   0.320
 6454TIP3    H252898   5.514   0.154   0.272
 6455TIP3   OH252899   4.267   0.914   0.449
 6455TIP3    H152900   4.229   0.998   0.416
 6455TIP3    H252901   4.198   0.850   0.428
 6456TIP3   OH252902   5.582   1.475   0.088
 6456TIP3    H152903   5.615   1.567   0.095
 6456TIP3    H252904   5.668   1.428   0.096
 6457TIP3   OH252905   3.895   1.169   1.361
 6457TIP3    H152906   3.855   1.163   1.273
 6457TIP3    H252907   3.942   1.083   1.363
 6458TIP3   OH252908   3.879   1.430   1.038
 6458TIP3    H152909   3.968   1.396   1.050
 6458TIP3    H252910   3.890   1.522   1.061
 6459TIP3   OH252911   5.677   1.511   1.616
 6459TIP3    H152912   5.669   1.416   1.604
 6459TIP3    H252913   5.589   1.533   1.655
 6460TIP3   OH252914   4.774   1.449   1.512
 6460TIP3    H152915   4.780   1.528   1.569
 6460TIP3    H252916   4.678   1.423   1.517
 6461TIP3   OH252917   4.844   1.832   0.425
 6461TIP3    H152918   4.851   1.865   0.332
 6461TIP3    H252919   4.837   1.917   0.474
 6462TIP3   OH252920   4.198   1.699   0.652
 6462TIP3    H152921   4.219   1.672   0.744
 6462TIP3    H252922   4.108   1.665   0.639
 6463TIP3   OH252923   5.131   1.775   0.147
 6463TIP3    H152924   5.186   1.701   0.114
 6463TIP3    H252925   5.139   1.764   0.243
 6464TIP3   OH252926   5.108   1.762   0.430
 6464TIP3    H152927   5.010   1.771   0.432
 6464TIP3    H252928   5.121   1.684   0.486
 6465TIP3   OH252929   5.378   0.648   1.642
 6465TIP3    H152930   5.314   0.685   1.579
 6465TIP3    H252931   5.385   0.555   1.615
 6466TIP3   OH252932   4.121   1.303   1.413
 6466TIP3    H152933   4.129   1.286   1.509
 6466TIP3    H252934   4.037   1.257   1.393
 6467TIP3   OH252935   4.421   0.122   1.064
 6467TIP3    H152936   4.350   0.114   0.997
 6467TIP3    H252937   4.378   0.190   1.120
 6468TIP3   OH252938   4.871   0.104   1.332
 6468TIP3    H152939   4.882   0.101   1.428
 6468TIP3    H252940   4.774   0.113   1.325
 6469TIP3   OH252941   5.153   0.496   1.434
 6469TIP3    H152942   5.093   0.488   1.512
 6469TIP3    H252943   5.184   0.588   1.437
 6470TIP3   OH252944   5.226   1.011   0.095
 6470TIP3    H152945   5.226   1.040   0.003
 6470TIP3    H252946   5.309   1.055   0.125
 6471TIP3   OH252947   4.843   0.329   0.094
 6471TIP3    H152948   4.777   0.332   0.165
 6471TIP3    H252949   4.872   0.236   0.102
 6472TIP3   OH252950   4.400   0.657   1.172
 6472TIP3    H152951   4.318   0.637   1.220
 6472TIP3    H252952   4.378   0.747   1.138
 6473TIP3   OH252953   4.402   0.636   0.643
 6473TIP3    H152954   4.305   0.625   0.634
 6473TIP3    H252955   4.434   0.614   0.553
 6474TIP3   OH252956   4.954   0.718   0.542
 6474TIP3    H152957   4.920   0.799   0.497
 6474TIP3    H252958   5.015   0.683   0.475
 6475TIP3   OH252959   4.858   0.774   1.639
 6475TIP3    H152960   4.814   0.689   1.660
 6475TIP3    H252961   4.908   0.783   1.722
 6476TIP3   OH252962   5.061   0.680   0.835
 6476TIP3    H152963   5.035   0.763   0.789
 6476TIP3    H252964   5.053   0.618   0.761
 6477TIP3   OH252965   4.159   0.642   1.290
 6477TIP3    H152966   4.184   0.672   1.379
 6477TIP3    H252967   4.106   0.562   1.308
 6478TIP3   OH252968   4.496   0.431   0.055
 6478TIP3    H152969   4.450   0.389   0.131
 6478TIP3    H252970   4.466   0.524   0.058
 6479TIP3   OH252971   3.831   0.388   0.742
 6479TIP3    H152972   3.893   0.390   0.819
 6479TIP3    H252973   3.888   0.401   0.666
 6480TIP3   OH252974   3.954   0.431   0.316
 6480TIP3    H152975   4.002   0.465   0.238
 6480TIP3    H252976   3.907   0.510   0.349
 6481TIP3   OH252977   4.968   0.843   1.261
 6481TIP3    H152978   5.014   0.769   1.216
 6481TIP3    H252979   4.913   0.793   1.325
 6482TIP3   OH252980   4.689   0.387   0.750
 6482TIP3    H152981   4.592   0.371   0.746
 6482TIP3    H252982   4.705   0.371   0.845
 6483TIP3   OH252983   4.130   0.569   0.642
 6483TIP3    H152984   4.050   0.600   0.593
 6483TIP3    H252985   4.159   0.493   0.587
 6484TIP3   OH252986   4.473   0.587   0.380
 6484TIP3    H152987   4.564   0.604   0.408
 6484TIP3    H252988   4.458   0.648   0.304
 6485TIP3   OH252989   5.125   0.315   1.063
 6485TIP3    H152990   5.074   0.317   1.146
 6485TIP3    H252991   5.055   0.288   1.000
 6486TIP3   OH252992   4.376   0.704   0.141
 6486TIP3    H152993   4.314   0.705   0.067
 6486TIP3    H252994   4.458   0.739   0.099
 6487TIP3   OH252995   5.384   1.896   1.731
 6487TIP3    H152996   5.412   1.951   1.657
 6487TIP3    H252997   5.467   1.901   1.785
 6488TIP3   OH252998   4.165   1.162   1.660
 6488TIP3    H152999   4.240   1.162   1.723
 6488TIP3    H253000   4.100   1.111   1.710
 6489TIP3   OH253001   4.731   0.679   0.925
 6489TIP3    H153002   4.816   0.636   0.906
 6489TIP3    H253003   4.688   0.614   0.982
 6490TIP3   OH253004   4.240   0.322   0.584
 6490TIP3    H153005   4.185   0.255   0.633
 6490TIP3    H253006   4.290   0.265   0.524
 6491TIP3   OH253007   4.610   0.496   1.180
 6491TIP3    H153008   4.539   0.564   1.184
 6491TIP3    H253009   4.686   0.544   1.216
 6492TIP3   OH253010   4.706   1.139   0.392
 6492TIP3    H153011   4.633   1.084   0.356
 6492TIP3    H253012   4.664   1.171   0.476
 6493TIP3   OH253013   5.433   1.110   1.233
 6493TIP3    H153014   5.490   1.173   1.182
 6493TIP3    H253015   5.362   1.093   1.169
 6494TIP3   OH253016   5.097   0.428   0.148
 6494TIP3    H153017   5.005   0.441   0.117
 6494TIP3    H253018   5.112   0.501   0.210
 6495TIP3   OH253019   4.810   1.188   1.479
 6495TIP3    H153020   4.771   1.161   1.563
 6495TIP3    H253021   4.804   1.285   1.485
 6496TIP3   OH253022   5.134   0.606   0.367
 6496TIP3    H153023   5.211   0.609   0.427
 6496TIP3    H253024   5.151   0.686   0.314
 6497TIP3   OH253025   4.203   1.095   0.912
 6497TIP3    H153026   4.257   1.086   0.830
 6497TIP3    H253027   4.243   1.026   0.969
 6498TIP3   OH253028   4.908   1.265   0.280
 6498TIP3    H153029   4.864   1.351   0.298
 6498TIP3    H253030   4.838   1.203   0.309
 6499TIP3   OH253031   3.909   0.901   1.446
 6499TIP3    H153032   3.877   0.842   1.517
 6499TIP3    H253033   3.847   0.879   1.373
 6500TIP3   OH253034   4.605   0.886   1.636
 6500TIP3    H153035   4.564   0.824   1.573
 6500TIP3    H253036   4.699   0.860   1.631
 6501TIP3   OH253037   5.102   1.402   1.485
 6501TIP3    H153038   5.013   1.414   1.450
 6501TIP3    H253039   5.094   1.449   1.570
 6502TIP3   OH253040   5.625   0.645   0.336
 6502TIP3    H153041   5.571   0.620   0.258
 6502TIP3    H253042   5.642   0.739   0.313
 6503TIP3   OH253043   5.652   1.200   1.590
 6503TIP3    H153044   5.566   1.222   1.548
 6503TIP3    H253045   5.711   1.192   1.511
 6504TIP3   OH253046   5.445   1.524   0.322
 6504TIP3    H153047   5.434   1.438   0.364
 6504TIP3    H253048   5.489   1.507   0.237
 6505TIP3   OH253049   5.192   0.999   1.050
 6505TIP3    H153050   5.100   0.974   1.033
 6505TIP3    H253051   5.238   0.929   0.999
 6506TIP3   OH253052   4.450   1.445   0.660
 6506TIP3    H153053   4.481   1.533   0.630
 6506TIP3    H253054   4.363   1.441   0.619
 6507TIP3   OH253055   4.044   0.939   0.105
 6507TIP3    H153056   4.087   0.994   0.175
 6507TIP3    H253057   3.954   0.925   0.141
 6508TIP3   OH253058   4.578   1.209   0.623
 6508TIP3    H153059   4.532   1.296   0.632
 6508TIP3    H253060   4.521   1.149   0.673
 6509TIP3   OH253061   4.645   1.620   1.302
 6509TIP3    H153062   4.705   1.689   1.270
 6509TIP3    H253063   4.701   1.577   1.370
 6510TIP3   OH253064   4.458   1.695   0.561
 6510TIP3    H153065   4.364   1.697   0.586
 6510TIP3    H253066   4.488   1.780   0.600
 6511TIP3   OH253067   4.945   1.191   1.236
 6511TIP3    H153068   4.912   1.176   1.328
 6511TIP3    H253069   4.987   1.105   1.216
 6512TIP3   OH253070   5.221   1.324   0.166
 6512TIP3    H153071   5.249   1.276   0.248
 6512TIP3    H253072   5.128   1.296   0.164
 6513TIP3   OH253073   5.276   1.640   1.458
 6513TIP3    H153074   5.184   1.608   1.447
 6513TIP3    H253075   5.283   1.708   1.387
 6514TIP3   OH253076   5.659   1.749   0.171
 6514TIP3    H153077   5.704   1.819   0.120
 6514TIP3    H253078   5.595   1.805   0.220
 6515TIP3   OH253079   4.070   0.369   1.388
 6515TIP3    H153080   4.052   0.415   1.472
 6515TIP3    H253081   4.039   0.279   1.411
 6516TIP3   OH253082   5.305   1.163   0.378
 6516TIP3    H153083   5.293   1.076   0.420
 6516TIP3    H253084   5.402   1.177   0.388
 6517TIP3   OH253085   4.053   1.587   1.253
 6517TIP3    H153086   4.109   1.508   1.252
 6517TIP3    H253087   4.073   1.621   1.342
 6518TIP3   OH253088   4.504   1.373   0.241
 6518TIP3    H153089   4.569   1.326   0.295
 6518TIP3    H253090   4.527   1.467   0.258
 6519TIP3   OH253091   4.155   1.113   0.278
 6519TIP3    H153092   4.083   1.159   0.326
 6519TIP3    H253093   4.205   1.188   0.240
 6520TIP3   OH253094   4.931   0.372   1.330
 6520TIP3    H153095   4.999   0.379   1.400
 6520TIP3    H253096   4.902   0.280   1.339
 6521TIP3   OH253097   5.035   0.293   0.436
 6521TIP3    H153098   5.050   0.344   0.354
 6521TIP3    H253099   5.076   0.354   0.501
 6522TIP3   OH253100   4.807   1.510   0.328
 6522TIP3    H153101   4.740   1.578   0.346
 6522TIP3    H253102   4.856   1.553   0.254
 6523TIP3   OH253103   4.729   0.544   0.531
 6523TIP3    H153104   4.808   0.603   0.530
 6523TIP3    H253105   4.734   0.501   0.619
 6524TIP3   OH253106   4.828   0.647   1.402
 6524TIP3    H153107   4.830   0.689   1.490
 6524TIP3    H253108   4.859   0.555   1.415
 6525TIP3   OH253109   4.814   0.173   0.612
 6525TIP3    H153110   4.779   0.256   0.648
 6525TIP3    H253111   4.894   0.203   0.566
 6526TIP3   OH253112   4.535   1.637   0.302
 6526TIP3    H153113   4.564   1.723   0.265
 6526TIP3    H253114   4.497   1.668   0.388
 6527TIP3   OH253115   4.366   0.340   0.277
 6527TIP3    H153116   4.368   0.428   0.320
 6527TIP3    H253117   4.453   0.306   0.309
 6528TIP3   OH253118   5.390   0.404   1.526
 6528TIP3    H153119   5.293   0.415   1.515
 6528TIP3    H253120   5.415   0.378   1.436
 6529TIP3   OH253121   5.303   0.775   0.919
 6529TIP3    H153122   5.220   0.724   0.913
 6529TIP3    H253123   5.364   0.711   0.963
 6530TIP3   OH253124   4.235   1.359   0.155
 6530TIP3    H153125   4.320   1.387   0.194
 6530TIP3    H253126   4.269   1.310   0.078
 6531TIP3   OH253127   4.048   0.656   0.070
 6531TIP3    H153128   4.070   0.747   0.095
 6531TIP3    H253129   3.963   0.667   0.025
 6532TIP3   OH253130   5.389   1.688   1.067
 6532TIP3    H153131   5.399   1.754   0.996
 6532TIP3    H253132   5.484   1.673   1.085
 6533TIP3   OH253133   4.174   0.149   0.947
 6533TIP3    H153134   4.146   0.132   0.855
 6533TIP3    H253135   4.130   0.073   0.993
 6534TIP3   OH253136   3.974   1.490   0.544
 6534TIP3    H153137   3.906   1.544   0.587
 6534TIP3    H253138   4.000   1.552   0.472
 6535TIP3   OH253139   3.964   1.738   1.643
 6535TIP3    H153140   3.987   1.722   1.736
 6535TIP3    H253141   3.910   1.659   1.622
 6536TIP3   OH253142   4.351   1.666   1.820
 6536TIP3    H153143   4.442   1.643   1.842
 6536TIP3    H253144   4.337   1.615   1.737
 6537TIP3   OH253145   4.900   1.624   0.097
 6537TIP3    H153146   4.842   1.568   0.042
 6537TIP3    H253147   4.970   1.646   0.033
 6538TIP3   OH253148   5.054   1.533   1.721
 6538TIP3    H153149   5.014   1.450   1.757
 6538TIP3    H253150   5.130   1.540   1.783
 6539TIP3   OH253151   5.320   1.578   0.015
 6539TIP3    H153152   5.280   1.505   0.066
 6539TIP3    H253153   5.413   1.556   0.033
 6540TIP3   OH253154   3.916   1.115   1.816
 6540TIP3    H153155   3.922   1.018   1.798
 6540TIP3    H253156   3.886   1.154   1.730
 6541TIP3   OH253157   4.393   1.143   0.015
 6541TIP3    H153158   4.453   1.153   0.090
 6541TIP3    H253159   4.453   1.104  -0.052
 6542TIP3   OH253160   4.593   1.151   1.674
 6542TIP3    H153161   4.555   1.209   1.605
 6542TIP3    H253162   4.582   1.059   1.640
 6543TIP3   OH253163   5.165   1.122   1.496
 6543TIP3    H153164   5.254   1.165   1.503
 6543TIP3    H253165   5.114   1.205   1.491
 6544TIP3   OH253166   4.019   0.850   1.758
 6544TIP3    H153167   4.031   0.783   1.689
 6544TIP3    H253168   4.042   0.797   1.837
 6545TIP3   OH253169   4.512   0.993   0.257
 6545TIP3    H153170   4.436   0.944   0.294
 6545TIP3    H253171   4.549   0.929   0.194
 6546TIP3   OH253172   4.421   0.732   1.458
 6546TIP3    H153173   4.348   0.790   1.486
 6546TIP3    H253174   4.466   0.791   1.394
 6547TIP3   OH253175   4.616   0.800   0.054
 6547TIP3    H153176   4.645   0.827  -0.035
 6547TIP3    H253177   4.702   0.806   0.102
 6548TIP3   OH253178   4.944   1.063   1.822
 6548TIP3    H153179   5.011   1.025   1.764
 6548TIP3    H253180   4.894   0.984   1.849
 6549TIP3   OH253181   5.505   1.081   8.475
 6549TIP3    H153182   5.441   1.102   8.404
 6549TIP3    H253183   5.533   1.169   8.503
 6550TIP3   OH253184   4.477   0.497   1.560
 6550TIP3    H153185   4.488   0.435   1.484
 6550TIP3    H253186   4.450   0.580   1.513
 6551TIP3   OH253187   4.499   0.331   1.355
 6551TIP3    H153188   4.542   0.388   1.286
 6551TIP3    H253189   4.410   0.318   1.315
 6552TIP3   OH253190   4.625   0.915   1.342
 6552TIP3    H153191   4.714   0.945   1.319
 6552TIP3    H253192   4.568   0.988   1.308
 6553TIP3   OH253193   5.107   0.617   1.824
 6553TIP3    H153194   5.158   0.534   1.826
 6553TIP3    H253195   5.171   0.681   1.859
 6554TIP3   OH253196   5.241   0.963   1.711
 6554TIP3    H153197   5.204   1.013   1.636
 6554TIP3    H253198   5.334   0.953   1.680
 6555TIP3   OH253199   4.310   0.630   1.764
 6555TIP3    H153200   4.238   0.565   1.772
 6555TIP3    H253201   4.378   0.581   1.716
 6556TIP3   OH253202   4.596   0.094   1.334
 6556TIP3    H153203   4.576   0.190   1.349
 6556TIP3    H253204   4.509   0.067   1.300
 6557TIP3   OH253205   4.727   0.527   1.714
 6557TIP3    H153206   4.701   0.494   1.802
 6557TIP3    H253207   4.654   0.487   1.661
 6558TIP3   OH253208   4.978   0.429   1.634
 6558TIP3    H153209   4.886   0.448   1.661
 6558TIP3    H253210   5.023   0.422   1.720
 6559TIP3   OH253211   5.165   0.299   1.816
 6559TIP3    H153212   5.140   0.205   1.819
 6559TIP3    H253213   5.132   0.335   1.901
 6560TIP3   OH253214   4.120   0.407   1.765
 6560TIP3    H153215   4.115   0.334   1.700
 6560TIP3    H253216   4.107   0.361   1.850
 6561TIP3   OH253217   4.552   9.359   1.609
 6561TIP3    H153218   4.632   9.311   1.636
 6561TIP3    H253219   4.581   9.398   1.525
 6562TIP3   OH253220   4.595   0.283   1.820
 6562TIP3    H153221   4.598   0.188   1.807
 6562TIP3    H253222   4.573   0.293   1.913
 6563TIP3   OH253223   4.583   1.881   0.188
 6563TIP3    H153224   4.666   1.929   0.202
 6563TIP3    H253225   4.594   1.855   0.095
 6564TIP3   OH253226   3.933   1.330   0.118
 6564TIP3    H153227   4.029   1.343   0.127
 6564TIP3    H253228   3.930   1.290   0.030
 6565TIP3   OH253229   3.842   1.837   0.603
 6565TIP3    H153230   3.760   1.791   0.571
 6565TIP3    H253231   3.867   1.777   0.675
 6566TIP3   OH253232   3.914   1.674   0.809
 6566TIP3    H153233   3.854   1.616   0.860
 6566TIP3    H253234   3.972   1.706   0.881
 6567TIP3   OH253235   5.670   1.756   1.068
 6567TIP3    H153236   5.697   1.772   1.160
 6567TIP3    H253237   5.702   1.836   1.024
 6568TIP3   OH253238   5.612   1.702   1.388
 6568TIP3    H153239   5.565   1.635   1.334
 6568TIP3    H253240   5.649   1.644   1.457
 6569TIP3   OH253241   5.498   1.291   1.874
 6569TIP3    H153242   5.413   1.295   1.923
 6569TIP3    H253243   5.492   1.366   1.814
 6570TIP3   OH253244   5.583   1.135   0.378
 6570TIP3    H153245   5.670   1.178   0.391
 6570TIP3    H253246   5.582   1.072   0.454
 6571TIP3   OH253247   5.618   0.948   0.573
 6571TIP3    H153248   5.547   0.900   0.621
 6571TIP3    H253249   5.678   0.974   0.646
 6572TIP3   OH253250   5.604   1.223   1.075
 6572TIP3    H153251   5.663   1.150   1.047
 6572TIP3    H253252   5.652   1.301   1.041
 6573TIP3   OH253253   5.457   1.478   1.306
 6573TIP3    H153254   5.382   1.513   1.357
 6573TIP3    H253255   5.414   1.453   1.221
 6574TIP3   OH253256   5.637   0.895   0.212
 6574TIP3    H153257   5.580   0.914   0.135
 6574TIP3    H253258   5.628   0.976   0.265
 6575TIP3   OH253259   5.418   0.626   0.117
 6575TIP3    H153260   5.488   0.668   0.065
 6575TIP3    H253261   5.418   0.534   0.080
 6576TIP3   OH253262   5.432   0.800   0.686
 6576TIP3    H153263   5.412   0.710   0.654
 6576TIP3    H253264   5.398   0.793   0.778
 6577TIP3   OH253265   3.899   1.028   1.065
 6577TIP3    H153266   3.899   0.998   0.971
 6577TIP3    H253267   3.985   0.989   1.093
 6578TIP3   OH253268   5.497   0.968   1.609
 6578TIP3    H153269   5.547   0.883   1.619
 6578TIP3    H253270   5.567   1.030   1.582
 6579TIP3   OH253271   5.630   0.746   1.639
 6579TIP3    H153272   5.541   0.710   1.665
 6579TIP3    H253273   5.687   0.666   1.648
 6580TIP3   OH253274   5.419   0.396  -0.024
 6580TIP3    H153275   5.475   0.334   0.028
 6580TIP3    H253276   5.330   0.360  -0.015
 6581TIP3   OH253277   5.360   0.559   0.514
 6581TIP3    H153278   5.387   0.466   0.533
 6581TIP3    H253279   5.416   0.575   0.436
 6582TIP3   OH253280   5.472   0.603   1.042
 6582TIP3    H153281   5.571   0.607   1.048
 6582TIP3    H253282   5.453   0.636   1.132
 6583TIP3   OH253283   5.459   0.676   1.293
 6583TIP3    H153284   5.371   0.700   1.328
 6583TIP3    H253285   5.506   0.762   1.302
 6584TIP3   OH253286   3.892   0.526   1.652
 6584TIP3    H153287   3.973   0.501   1.699
 6584TIP3    H253288   3.847   0.439   1.646
 6585TIP3   OH253289   5.563   0.067   1.840
 6585TIP3    H153290   5.641   0.026   1.800
 6585TIP3    H253291   5.598   0.148   1.880
 6586TIP3   OH253292   5.437   0.289   0.521
 6586TIP3    H153293   5.474   0.239   0.597
 6586TIP3    H253294   5.384   0.221   0.473
 6587TIP3   OH253295   4.000   0.351   0.960
 6587TIP3    H153296   4.056   0.271   0.970
 6587TIP3    H253297   4.066   0.420   0.976
 6588TIP3   OH253298   3.838   0.644   1.080
 6588TIP3    H153299   3.880   0.627   0.994
 6588TIP3    H253300   3.889   0.720   1.110
 6589TIP3   OH253301   5.615   0.313   1.633
 6589TIP3    H153302   5.521   0.335   1.612
 6589TIP3    H253303   5.616   0.222   1.600
 6590TIP3   OH253304   5.596   0.284   0.160
 6590TIP3    H153305   5.625   0.205   0.112
 6590TIP3    H253306   5.676   0.337   0.163
 6591TIP3   OH253307   3.839   0.237   0.457
 6591TIP3    H153308   3.747   0.269   0.465
 6591TIP3    H253309   3.877   0.305   0.397
 6592TIP3   OH253310   5.331   1.782   0.672
 6592TIP3    H153311   5.400   1.759   0.607
 6592TIP3    H253312   5.380   1.835   0.738
 6593TIP3   OH253313   3.877   0.137   1.288
 6593TIP3    H153314   3.818   0.113   1.362
 6593TIP3    H253315   3.825   0.207   1.245
 6594TIP3   OH253316   4.074   1.444   1.687
 6594TIP3    H153317   3.987   1.477   1.659
 6594TIP3    H253318   4.058   1.409   1.776
 6595TIP3   OH253319   4.376   1.611   1.356
 6595TIP3    H153320   4.380   1.702   1.321
 6595TIP3    H253321   4.470   1.585   1.348
 6596TIP3   OH253322   4.779   1.716   1.602
 6596TIP3    H153323   4.778   1.710   1.699
 6596TIP3    H253324   4.870   1.751   1.586
 6597TIP3   OH253325   5.005   1.849   1.556
 6597TIP3    H153326   5.083   1.840   1.499
 6597TIP3    H253327   5.040   1.894   1.635
 6598TIP3   OH253328   5.525   0.097   1.455
 6598TIP3    H153329   5.461   0.150   1.404
 6598TIP3    H253330   5.531   0.015   1.401
 6599TIP3   OH253331   4.116   1.902   1.322
 6599TIP3    H153332   4.042   1.963   1.307
 6599TIP3    H253333   4.114   1.891   1.418
 6600TIP3   OH253334   4.359   1.857   1.233
 6600TIP3    H153335   4.264   1.873   1.255
 6600TIP3    H253336   4.370   1.918   1.158
 6601TIP3   OH253337   4.812   1.816   1.161
 6601TIP3    H153338   4.734   1.858   1.123
 6601TIP3    H253339   4.841   1.887   1.223
 6602TIP3   OH253340   5.038   1.681   1.291
 6602TIP3    H153341   4.973   1.727   1.234
 6602TIP3    H253342   5.118   1.732   1.266
 6603TIP3   OH253343   5.291   1.834   1.268
 6603TIP3    H153344   5.312   1.926   1.243
 6603TIP3    H253345   5.320   1.790   1.185
 6604TIP3   OH253346   4.077   1.748   1.020
 6604TIP3    H153347   4.053   1.704   1.105
 6604TIP3    H253348   4.164   1.706   0.999
 6605TIP3   OH253349   4.288   1.636   0.901
 6605TIP3    H153350   4.275   1.542   0.923
 6605TIP3    H253351   4.375   1.652   0.944
 6606TIP3   OH253352   4.517   1.638   1.038
 6606TIP3    H153353   4.555   1.550   1.023
 6606TIP3    H253354   4.534   1.650   1.134
 6607TIP3   OH253355   4.881   0.284   0.927
 6607TIP3    H153356   4.808   0.220   0.939
 6607TIP3    H253357   4.907   0.263   0.836
 6608TIP3   OH253358   5.350   0.069   0.880
 6608TIP3    H153359   5.421   0.123   0.839
 6608TIP3    H253360   5.272   0.127   0.868
 6609TIP3   OH253361   5.577   0.160   0.703
 6609TIP3    H153362   5.636   0.095   0.662
 6609TIP3    H253363   5.636   0.237   0.723
 6610TIP3   OH253364   4.110   0.113   0.683
 6610TIP3    H153365   4.021   0.094   0.650
 6610TIP3    H253366   4.156   0.029   0.664
 6611TIP3   OH253367   3.986   0.098   0.227
 6611TIP3    H153368   4.026   0.179   0.188
 6611TIP3    H253369   3.930   0.135   0.297
 6612TIP3   OH253370   4.527   0.088   0.699
 6612TIP3    H153371   4.612   0.110   0.656
 6612TIP3    H253372   4.550   0.100   0.793
 6613TIP3   OH253373   5.088   0.125   0.773
 6613TIP3    H153374   5.088   0.092   0.682
 6613TIP3    H253375   5.068   0.046   0.826
 6614TIP3   OH253376   5.264   0.117   0.386
 6614TIP3    H153377   5.183   0.163   0.358
 6614TIP3    H253378   5.225   0.046   0.442
 6615TIP3   OH253379   3.967   1.678   0.352
 6615TIP3    H153380   3.879   1.679   0.308
 6615TIP3    H253381   3.995   1.768   0.328
 6616TIP3   OH253382   4.126   0.285   0.098
 6616TIP3    H153383   4.190   0.232   0.049
 6616TIP3    H253384   4.185   0.337   0.155
 6617TIP3   OH253385   4.655   0.293   0.371
 6617TIP3    H153386   4.732   0.243   0.404
 6617TIP3    H253387   4.671   0.381   0.408
 6618TIP3   OH253388   4.867   1.883   0.164
 6618TIP3    H153389   4.951   1.904   0.120
 6618TIP3    H253390   4.872   1.785   0.154
 6619TIP3   OH253391   5.510   1.714   0.494
 6619TIP3    H153392   5.491   1.641   0.429
 6619TIP3    H253393   5.513   1.789   0.431
 6620TIP3   OH253394   4.052   0.159   1.598
 6620TIP3    H153395   3.994   0.081   1.607
 6620TIP3    H253396   4.132   0.127   1.644
 6621TIP3   OH253397   4.267   0.086   1.781
 6621TIP3    H153398   4.356   0.113   1.755
 6621TIP3    H253399   4.293  -0.005   1.811
 6622TIP3   OH253400   4.169   1.784   0.058
 6622TIP3    H153401   4.098   1.824   0.112
 6622TIP3    H253402   4.184   1.699   0.102
 6623TIP3   OH253403   5.133   9.347   1.767
 6623TIP3    H153404   5.087   9.261   1.771
 6623TIP3    H253405   5.222   9.320   1.740
 6624TIP3   OH253406   5.440   1.620   1.667
 6624TIP3    H153407   5.367   1.613   1.600
 6624TIP3    H253408   5.440   1.716   1.682
 6625TIP3   OH253409   6.926   1.032   0.662
 6625TIP3    H153410   6.907   1.128   0.649
 6625TIP3    H253411   6.849   0.993   0.616
 6626TIP3   OH253412   6.793   0.887   1.003
 6626TIP3    H153413   6.783   0.856   1.095
 6626TIP3    H253414   6.713   0.853   0.958
 6627TIP3   OH253415   6.003   0.910   1.194
 6627TIP3    H153416   6.005   0.820   1.232
 6627TIP3    H253417   6.094   0.942   1.212
 6628TIP3   OH253418   7.118   1.225   0.871
 6628TIP3    H153419   7.091   1.147   0.921
 6628TIP3    H253420   7.131   1.290   0.941
 6629TIP3   OH253421   6.115   1.361   0.985
 6629TIP3    H153422   6.080   1.272   0.964
 6629TIP3    H253423   6.210   1.343   0.975
 6630TIP3   OH253424   5.807   0.692   0.545
 6630TIP3    H153425   5.772   0.762   0.602
 6630TIP3    H253426   5.737   0.687   0.477
 6631TIP3   OH253427   5.824   0.938   0.812
 6631TIP3    H153428   5.848   0.844   0.818
 6631TIP3    H253429   5.908   0.984   0.798
 6632TIP3   OH253430   6.868   1.769   0.849
 6632TIP3    H153431   6.929   1.711   0.796
 6632TIP3    H253432   6.848   1.705   0.919
 6633TIP3   OH253433   6.589   1.181   1.115
 6633TIP3    H153434   6.622   1.175   1.025
 6633TIP3    H253435   6.674   1.190   1.162
 6634TIP3   OH253436   7.473   0.299   1.106
 6634TIP3    H153437   7.494   0.365   1.176
 6634TIP3    H253438   7.541   0.320   1.040
 6635TIP3   OH253439   6.972   0.631   1.122
 6635TIP3    H153440   6.989   0.537   1.139
 6635TIP3    H253441   6.926   0.625   1.035
 6636TIP3   OH253442   6.283   0.413   0.782
 6636TIP3    H153443   6.289   0.497   0.732
 6636TIP3    H253444   6.222   0.363   0.724
 6637TIP3   OH253445   7.015   0.454   0.690
 6637TIP3    H153446   7.069   0.411   0.762
 6637TIP3    H253447   7.084   0.502   0.643
 6638TIP3   OH253448   5.893   0.670   0.871
 6638TIP3    H153449   5.964   0.644   0.932
 6638TIP3    H253450   5.923   0.625   0.790
 6639TIP3   OH253451   6.385   0.828   0.826
 6639TIP3    H153452   6.464   0.781   0.863
 6639TIP3    H253453   6.358   0.763   0.758
 6640TIP3   OH253454   7.499   0.469   1.325
 6640TIP3    H153455   7.458   0.553   1.294
 6640TIP3    H253456   7.517   0.491   1.418
 6641TIP3   OH253457   6.184   0.338   1.194
 6641TIP3    H153458   6.159   0.395   1.119
 6641TIP3    H253459   6.109   0.355   1.257
 6642TIP3   OH253460   6.837   1.258   0.561
 6642TIP3    H153461   6.817   1.266   0.465
 6642TIP3    H253462   6.811   1.348   0.592
 6643TIP3   OH253463   6.362   1.088   1.214
 6643TIP3    H153464   6.307   1.168   1.233
 6643TIP3    H253465   6.446   1.130   1.183
 6644TIP3   OH253466   7.187   0.362   0.872
 6644TIP3    H153467   7.126   0.333   0.942
 6644TIP3    H253468   7.261   0.394   0.925
 6645TIP3   OH253469   6.121   0.520   0.994
 6645TIP3    H153470   6.183   0.582   1.040
 6645TIP3    H253471   6.176   0.487   0.921
 6646TIP3   OH253472   6.244   1.308   1.299
 6646TIP3    H153473   6.221   1.393   1.259
 6646TIP3    H253474   6.162   1.289   1.350
 6647TIP3   OH253475   5.830   1.241   0.389
 6647TIP3    H153476   5.835   1.294   0.306
 6647TIP3    H253477   5.844   1.310   0.458
 6648TIP3   OH253478   7.195   1.433   1.080
 6648TIP3    H153479   7.102   1.461   1.085
 6648TIP3    H253480   7.233   1.510   1.035
 6649TIP3   OH253481   7.268   0.216   1.260
 6649TIP3    H153482   7.192   0.248   1.210
 6649TIP3    H253483   7.340   0.232   1.194
 6650TIP3   OH253484   6.546   0.096   0.939
 6650TIP3    H153485   6.599   0.020   0.969
 6650TIP3    H253486   6.459   0.079   0.983
 6651TIP3   OH253487   7.033   1.604   0.720
 6651TIP3    H153488   7.055   1.520   0.675
 6651TIP3    H253489   7.113   1.658   0.699
 6652TIP3   OH253490   7.123   1.380   0.578
 6652TIP3    H153491   7.122   1.305   0.517
 6652TIP3    H253492   7.116   1.333   0.663
 6653TIP3   OH253493   7.308   1.251   1.457
 6653TIP3    H153494   7.315   1.173   1.398
 6653TIP3    H253495   7.321   1.322   1.391
 6654TIP3   OH253496   6.756   0.938   0.409
 6654TIP3    H153497   6.703   1.020   0.400
 6654TIP3    H253498   6.839   0.963   0.365
 6655TIP3   OH253499   6.751   0.843   0.137
 6655TIP3    H153500   6.815   0.867   0.207
 6655TIP3    H253501   6.793   0.763   0.103
 6656TIP3   OH253502   7.508   0.897   1.243
 6656TIP3    H153503   7.437   0.963   1.231
 6656TIP3    H253504   7.568   0.927   1.172
 6657TIP3   OH253505   7.134   0.912   0.511
 6657TIP3    H153506   7.065   0.954   0.569
 6657TIP3    H253507   7.197   0.881   0.580
 6658TIP3   OH253508   7.119   0.770   1.436
 6658TIP3    H153509   7.082   0.848   1.481
 6658TIP3    H253510   7.080   0.785   1.348
 6659TIP3   OH253511   6.262   1.019   0.691
 6659TIP3    H153512   6.240   0.974   0.607
 6659TIP3    H253513   6.325   0.954   0.731
 6660TIP3   OH253514   6.413   1.350   0.967
 6660TIP3    H153515   6.437   1.327   0.875
 6660TIP3    H253516   6.473   1.295   1.022
 6661TIP3   OH253517   6.263   0.904   1.058
 6661TIP3    H153518   6.308   0.898   0.970
 6661TIP3    H253519   6.320   0.967   1.108
 6662TIP3   OH253520   6.927   1.464   1.121
 6662TIP3    H153521   6.899   1.523   1.192
 6662TIP3    H253522   6.925   1.377   1.165
 6663TIP3   OH253523   6.395   1.340   1.517
 6663TIP3    H153524   6.329   1.396   1.565
 6663TIP3    H253525   6.347   1.323   1.433
 6664TIP3   OH253526   6.983   0.876   0.286
 6664TIP3    H153527   7.041   0.872   0.365
 6664TIP3    H253528   7.036   0.930   0.224
 6665TIP3   OH253529   6.103   0.965   1.451
 6665TIP3    H153530   6.115   1.021   1.530
 6665TIP3    H253531   6.010   0.939   1.461
 6666TIP3   OH253532   6.773   1.503   0.647
 6666TIP3    H153533   6.788   1.559   0.723
 6666TIP3    H253534   6.725   1.561   0.587
 6667TIP3   OH253535   6.235   1.521   1.634
 6667TIP3    H153536   6.234   1.565   1.547
 6667TIP3    H253537   6.141   1.496   1.644
 6668TIP3   OH253538   7.391   0.061   0.303
 6668TIP3    H153539   7.294   0.051   0.315
 6668TIP3    H253540   7.396   0.154   0.275
 6669TIP3   OH253541   6.154   0.916   0.459
 6669TIP3    H153542   6.116   0.996   0.415
 6669TIP3    H253543   6.090   0.849   0.435
 6670TIP3   OH253544   7.464   1.441   0.090
 6670TIP3    H153545   7.496   1.530   0.071
 6670TIP3    H253546   7.549   1.396   0.109
 6671TIP3   OH253547   5.788   1.172   1.364
 6671TIP3    H153548   5.743   1.171   1.278
 6671TIP3    H253549   5.833   1.086   1.359
 6672TIP3   OH253550   5.771   1.434   1.028
 6672TIP3    H153551   5.866   1.417   1.037
 6672TIP3    H253552   5.761   1.516   1.077
 6673TIP3   OH253553   7.564   1.503   1.613
 6673TIP3    H153554   7.557   1.407   1.596
 6673TIP3    H253555   7.472   1.520   1.645
 6674TIP3   OH253556   6.649   1.443   1.515
 6674TIP3    H153557   6.659   1.522   1.570
 6674TIP3    H253558   6.552   1.423   1.519
 6675TIP3   OH253559   6.734   1.834   0.425
 6675TIP3    H153560   6.735   1.858   0.330
 6675TIP3    H253561   6.725   1.922   0.468
 6676TIP3   OH253562   6.082   1.699   0.651
 6676TIP3    H153563   6.112   1.664   0.739
 6676TIP3    H253564   5.992   1.662   0.648
 6677TIP3   OH253565   7.017   1.786   0.148
 6677TIP3    H153566   7.072   1.709   0.122
 6677TIP3    H253567   7.016   1.777   0.246
 6678TIP3   OH253568   6.993   1.758   0.432
 6678TIP3    H153569   6.896   1.774   0.442
 6678TIP3    H253570   7.005   1.680   0.487
 6679TIP3   OH253571   7.244   0.645   1.656
 6679TIP3    H153572   7.202   0.685   1.578
 6679TIP3    H253573   7.264   0.554   1.628
 6680TIP3   OH253574   6.016   1.315   1.436
 6680TIP3    H153575   6.033   1.273   1.524
 6680TIP3    H253576   5.929   1.273   1.415
 6681TIP3   OH253577   6.303   0.109   1.052
 6681TIP3    H153578   6.224   0.104   0.995
 6681TIP3    H253579   6.276   0.186   1.106
 6682TIP3   OH253580   6.731   0.143   1.396
 6682TIP3    H153581   6.769   0.081   1.459
 6682TIP3    H253582   6.635   0.127   1.399
 6683TIP3   OH253583   7.028   0.511   1.434
 6683TIP3    H153584   6.971   0.493   1.513
 6683TIP3    H253585   7.048   0.606   1.445
 6684TIP3   OH253586   7.121   1.007   0.095
 6684TIP3    H153587   7.112   1.042   0.005
 6684TIP3    H253588   7.213   1.032   0.113
 6685TIP3   OH253589   6.721   0.334   0.088
 6685TIP3    H153590   6.656   0.337   0.158
 6685TIP3    H253591   6.762   0.246   0.105
 6686TIP3   OH253592   6.285   0.655   1.156
 6686TIP3    H153593   6.209   0.642   1.217
 6686TIP3    H253594   6.268   0.749   1.130
 6687TIP3   OH253595   6.290   0.637   0.635
 6687TIP3    H153596   6.193   0.629   0.627
 6687TIP3    H253597   6.322   0.602   0.550
 6688TIP3   OH253598   6.843   0.729   0.544
 6688TIP3    H153599   6.802   0.806   0.497
 6688TIP3    H253600   6.901   0.694   0.474
 6689TIP3   OH253601   6.708   0.748   1.657
 6689TIP3    H153602   6.676   0.663   1.693
 6689TIP3    H253603   6.741   0.787   1.740
 6690TIP3   OH253604   6.924   0.670   0.843
 6690TIP3    H153605   6.920   0.749   0.786
 6690TIP3    H253606   6.937   0.600   0.777
 6691TIP3   OH253607   6.036   0.644   1.284
 6691TIP3    H153608   6.073   0.685   1.365
 6691TIP3    H253609   5.993   0.563   1.320
 6692TIP3   OH253610   6.377   0.431   0.052
 6692TIP3    H153611   6.334   0.393   0.132
 6692TIP3    H253612   6.355   0.525   0.055
 6693TIP3   OH253613   5.724   0.382   0.747
 6693TIP3    H153614   5.784   0.391   0.823
 6693TIP3    H253615   5.779   0.403   0.671
 6694TIP3   OH253616   5.834   0.436   0.310
 6694TIP3    H153617   5.887   0.468   0.235
 6694TIP3    H253618   5.797   0.518   0.348
 6695TIP3   OH253619   6.836   0.827   1.258
 6695TIP3    H153620   6.894   0.760   1.215
 6695TIP3    H253621   6.779   0.769   1.314
 6696TIP3   OH253622   6.576   0.388   0.742
 6696TIP3    H153623   6.479   0.373   0.753
 6696TIP3    H253624   6.609   0.381   0.833
 6697TIP3   OH253625   6.020   0.568   0.627
 6697TIP3    H153626   5.941   0.605   0.581
 6697TIP3    H253627   6.039   0.486   0.578
 6698TIP3   OH253628   6.396   0.581   0.367
 6698TIP3    H153629   6.484   0.616   0.387
 6698TIP3    H253630   6.358   0.644   0.303
 6699TIP3   OH253631   7.013   0.303   1.068
 6699TIP3    H153632   6.963   0.318   1.151
 6699TIP3    H253633   6.937   0.286   1.007
 6700TIP3   OH253634   6.257   0.711   0.138
 6700TIP3    H153635   6.196   0.711   0.063
 6700TIP3    H253636   6.342   0.740   0.098
 6701TIP3   OH253637   7.275   1.891   1.740
 6701TIP3    H153638   7.299   1.931   1.655
 6701TIP3    H253639   7.357   1.908   1.789
 6702TIP3   OH253640   6.059   1.148   1.654
 6702TIP3    H153641   6.125   1.165   1.725
 6702TIP3    H253642   5.981   1.119   1.708
 6703TIP3   OH253643   6.592   0.688   0.921
 6703TIP3    H153644   6.679   0.652   0.895
 6703TIP3    H253645   6.554   0.616   0.971
 6704TIP3   OH253646   6.123   0.326   0.582
 6704TIP3    H153647   6.067   0.261   0.632
 6704TIP3    H253648   6.168   0.264   0.521
 6705TIP3   OH253649   6.488   0.487   1.181
 6705TIP3    H153650   6.416   0.553   1.168
 6705TIP3    H253651   6.562   0.541   1.215
 6706TIP3   OH253652   6.588   1.146   0.389
 6706TIP3    H153653   6.515   1.091   0.353
 6706TIP3    H253654   6.549   1.178   0.474
 6707TIP3   OH253655   7.327   1.095   1.241
 6707TIP3    H153656   7.374   1.157   1.180
 6707TIP3    H253657   7.250   1.075   1.186
 6708TIP3   OH253658   6.983   0.427   0.140
 6708TIP3    H153659   6.889   0.440   0.119
 6708TIP3    H253660   6.998   0.490   0.213
 6709TIP3   OH253661   6.685   1.173   1.449
 6709TIP3    H153662   6.693   1.131   1.535
 6709TIP3    H253663   6.668   1.265   1.474
 6710TIP3   OH253664   7.028   0.600   0.352
 6710TIP3    H153665   7.091   0.607   0.426
 6710TIP3    H253666   7.074   0.654   0.286
 6711TIP3   OH253667   6.093   1.093   0.908
 6711TIP3    H153668   6.133   1.076   0.821
 6711TIP3    H253669   6.136   1.026   0.965
 6712TIP3   OH253670   6.791   1.278   0.278
 6712TIP3    H153671   6.747   1.364   0.297
 6712TIP3    H253672   6.719   1.216   0.304
 6713TIP3   OH253673   5.816   0.880   1.455
 6713TIP3    H153674   5.768   0.835   1.527
 6713TIP3    H253675   5.751   0.871   1.383
 6714TIP3   OH253676   6.462   0.882   1.632
 6714TIP3    H153677   6.440   0.837   1.549
 6714TIP3    H253678   6.551   0.845   1.648
 6715TIP3   OH253679   6.984   1.396   1.501
 6715TIP3    H153680   6.914   1.401   1.436
 6715TIP3    H253681   6.953   1.464   1.564
 6716TIP3   OH253682   7.514   0.645   0.339
 6716TIP3    H153683   7.456   0.616   0.265
 6716TIP3    H253684   7.526   0.739   0.315
 6717TIP3   OH253685   7.542   1.207   1.588
 6717TIP3    H153686   7.455   1.225   1.546
 6717TIP3    H253687   7.597   1.192   1.508
 6718TIP3   OH253688   7.344   1.505   0.331
 6718TIP3    H153689   7.310   1.425   0.371
 6718TIP3    H253690   7.377   1.477   0.243
 6719TIP3   OH253691   7.078   0.994   1.041
 6719TIP3    H153692   6.984   0.970   1.033
 6719TIP3    H253693   7.117   0.926   0.982
 6720TIP3   OH253694   6.330   1.450   0.646
 6720TIP3    H153695   6.344   1.545   0.625
 6720TIP3    H253696   6.240   1.438   0.615
 6721TIP3   OH253697   5.925   0.939   0.111
 6721TIP3    H153698   5.970   0.991   0.181
 6721TIP3    H253699   5.841   0.916   0.153
 6722TIP3   OH253700   6.462   1.216   0.629
 6722TIP3    H153701   6.417   1.303   0.632
 6722TIP3    H253702   6.400   1.155   0.674
 6723TIP3   OH253703   6.520   1.622   1.316
 6723TIP3    H153704   6.584   1.689   1.284
 6723TIP3    H253705   6.577   1.569   1.375
 6724TIP3   OH253706   6.343   1.705   0.559
 6724TIP3    H153707   6.248   1.711   0.583
 6724TIP3    H253708   6.375   1.787   0.602
 6725TIP3   OH253709   6.838   1.207   1.226
 6725TIP3    H153710   6.798   1.183   1.313
 6725TIP3    H253711   6.881   1.123   1.201
 6726TIP3   OH253712   7.109   1.324   0.172
 6726TIP3    H153713   7.131   1.269   0.251
 6726TIP3    H253714   7.014   1.304   0.169
 6727TIP3   OH253715   7.164   1.656   1.465
 6727TIP3    H153716   7.074   1.623   1.445
 6727TIP3    H253717   7.171   1.727   1.398
 6728TIP3   OH253718   7.543   1.751   0.169
 6728TIP3    H153719   7.583   1.820   0.114
 6728TIP3    H253720   7.479   1.807   0.218
 6729TIP3   OH253721   5.976   0.363   1.372
 6729TIP3    H153722   5.880   0.373   1.375
 6729TIP3    H253723   5.991   0.286   1.431
 6730TIP3   OH253724   7.190   1.161   0.385
 6730TIP3    H153725   7.179   1.070   0.418
 6730TIP3    H253726   7.287   1.173   0.394
 6731TIP3   OH253727   5.927   1.569   1.234
 6731TIP3    H153728   5.993   1.498   1.244
 6731TIP3    H253729   5.926   1.605   1.323
 6732TIP3   OH253730   6.389   1.379   0.242
 6732TIP3    H153731   6.458   1.330   0.290
 6732TIP3    H253732   6.408   1.473   0.265
 6733TIP3   OH253733   6.037   1.101   0.290
 6733TIP3    H153734   5.971   1.150   0.344
 6733TIP3    H253735   6.081   1.173   0.241
 6734TIP3   OH253736   6.865   0.352   1.286
 6734TIP3    H153737   6.935   0.385   1.346
 6734TIP3    H253738   6.819   0.287   1.343
 6735TIP3   OH253739   6.921   0.309   0.472
 6735TIP3    H153740   6.928   0.362   0.391
 6735TIP3    H253741   6.960   0.369   0.539
 6736TIP3   OH253742   6.686   1.516   0.337
 6736TIP3    H153743   6.622   1.583   0.362
 6736TIP3    H253744   6.726   1.555   0.256
 6737TIP3   OH253745   6.650   0.539   0.531
 6737TIP3    H153746   6.717   0.608   0.550
 6737TIP3    H253747   6.637   0.494   0.617
 6738TIP3   OH253748   6.710   0.637   1.403
 6738TIP3    H153749   6.707   0.676   1.494
 6738TIP3    H253750   6.737   0.546   1.419
 6739TIP3   OH253751   6.690   0.173   0.599
 6739TIP3    H153752   6.653   0.252   0.643
 6739TIP3    H253753   6.775   0.208   0.563
 6740TIP3   OH253754   6.419   1.641   0.301
 6740TIP3    H153755   6.444   1.729   0.264
 6740TIP3    H253756   6.380   1.670   0.386
 6741TIP3   OH253757   6.247   0.341   0.272
 6741TIP3    H153758   6.246   0.422   0.325
 6741TIP3    H253759   6.334   0.307   0.300
 6742TIP3   OH253760   7.280   0.411   1.522
 6742TIP3    H153761   7.188   0.437   1.503
 6742TIP3    H253762   7.306   0.371   1.436
 6743TIP3   OH253763   7.179   0.761   0.910
 6743TIP3    H153764   7.099   0.711   0.932
 6743TIP3    H253765   7.249   0.713   0.960
 6744TIP3   OH253766   6.120   1.355   0.157
 6744TIP3    H153767   6.201   1.385   0.201
 6744TIP3    H253768   6.159   1.312   0.079
 6745TIP3   OH253769   5.933   0.656   0.066
 6745TIP3    H153770   5.956   0.747   0.089
 6745TIP3    H253771   5.848   0.667   0.018
 6746TIP3   OH253772   7.275   1.698   1.064
 6746TIP3    H153773   7.271   1.770   0.997
 6746TIP3    H253774   7.371   1.682   1.059
 6747TIP3   OH253775   6.044   0.148   0.951
 6747TIP3    H153776   6.021   0.120   0.860
 6747TIP3    H253777   6.011   0.071   1.004
 6748TIP3   OH253778   5.881   1.499   0.544
 6748TIP3    H153779   5.807   1.544   0.585
 6748TIP3    H253780   5.898   1.560   0.469
 6749TIP3   OH253781   5.813   1.771   1.690
 6749TIP3    H153782   5.883   1.759   1.757
 6749TIP3    H253783   5.774   1.681   1.684
 6750TIP3   OH253784   6.300   1.632   1.873
 6750TIP3    H153785   6.394   1.612   1.878
 6750TIP3    H253786   6.274   1.587   1.789
 6751TIP3   OH253787   6.788   1.626   0.094
 6751TIP3    H153788   6.728   1.578   0.034
 6751TIP3    H253789   6.863   1.643   0.035
 6752TIP3   OH253790   6.922   1.551   1.710
 6752TIP3    H153791   6.913   1.460   1.741
 6752TIP3    H253792   7.012   1.572   1.742
 6753TIP3   OH253793   7.191   1.577   0.016
 6753TIP3    H153794   7.170   1.498   0.071
 6753TIP3    H253795   7.287   1.571   0.016
 6754TIP3   OH253796   5.820   1.113   1.780
 6754TIP3    H153797   5.791   1.020   1.782
 6754TIP3    H253798   5.754   1.150   1.717
 6755TIP3   OH253799   6.278   1.144   0.017
 6755TIP3    H153800   6.338   1.151   0.093
 6755TIP3    H253801   6.337   1.102  -0.049
 6756TIP3   OH253802   6.477   1.148   1.702
 6756TIP3    H153803   6.453   1.203   1.623
 6756TIP3    H253804   6.462   1.055   1.669
 6757TIP3   OH253805   7.054   1.128   1.490
 6757TIP3    H153806   7.141   1.175   1.496
 6757TIP3    H253807   6.998   1.208   1.497
 6758TIP3   OH253808   5.929   0.804   1.780
 6758TIP3    H153809   5.919   0.750   1.700
 6758TIP3    H253810   6.007   0.763   1.821
 6759TIP3   OH253811   6.396   0.997   0.248
 6759TIP3    H153812   6.323   0.948   0.288
 6759TIP3    H253813   6.435   0.931   0.188
 6760TIP3   OH253814   6.260   0.768   1.399
 6760TIP3    H153815   6.223   0.856   1.425
 6760TIP3    H253816   6.343   0.796   1.357
 6761TIP3   OH253817   6.502   0.802   0.055
 6761TIP3    H153818   6.532   0.807  -0.037
 6761TIP3    H253819   6.591   0.812   0.101
 6762TIP3   OH253820   6.832   1.051   1.808
 6762TIP3    H153821   6.902   1.017   1.750
 6762TIP3    H253822   6.794   0.969   1.844
 6763TIP3   OH253823   7.396   1.066   8.480
 6763TIP3    H153824   7.341   1.077   8.401
 6763TIP3    H253825   7.418   1.157   8.504
 6764TIP3   OH253826   6.364   0.567   1.541
 6764TIP3    H153827   6.378   0.491   1.481
 6764TIP3    H253828   6.325   0.636   1.482
 6765TIP3   OH253829   6.385   0.334   1.366
 6765TIP3    H153830   6.427   0.383   1.291
 6765TIP3    H253831   6.299   0.313   1.325
 6766TIP3   OH253832   6.516   0.914   1.346
 6766TIP3    H153833   6.600   0.955   1.320
 6766TIP3    H253834   6.454   0.983   1.315
 6767TIP3   OH253835   6.993   0.620   1.844
 6767TIP3    H153836   7.061   0.552   1.835
 6767TIP3    H253837   7.047   0.699   1.835
 6768TIP3   OH253838   7.122   0.967   1.697
 6768TIP3    H153839   7.097   1.022   1.620
 6768TIP3    H253840   7.214   0.943   1.671
 6769TIP3   OH253841   6.193   0.585   1.750
 6769TIP3    H153842   6.121   0.521   1.736
 6769TIP3    H253843   6.257   0.563   1.679
 6770TIP3   OH253844   6.467   0.088   1.367
 6770TIP3    H153845   6.451   0.182   1.390
 6770TIP3    H253846   6.421   0.087   1.281
 6771TIP3   OH253847   6.577   0.518   1.775
 6771TIP3    H153848   6.514   0.503   1.848
 6771TIP3    H253849   6.524   0.488   1.700
 6772TIP3   OH253850   6.863   0.435   1.646
 6772TIP3    H153851   6.776   0.412   1.683
 6772TIP3    H253852   6.921   0.414   1.722
 6773TIP3   OH253853   7.041   0.295   1.851
 6773TIP3    H153854   7.059   0.224   1.786
 6773TIP3    H253855   6.964   0.255   1.894
 6774TIP3   OH253856   5.987   0.408   1.781
 6774TIP3    H153857   5.972   0.333   1.718
 6774TIP3    H253858   5.998   0.364   1.868
 6775TIP3   OH253859   6.411   9.353   1.622
 6775TIP3    H153860   6.488   9.319   1.670
 6775TIP3    H253861   6.454   9.383   1.540
 6776TIP3   OH253862   6.501   0.193   1.807
 6776TIP3    H153863   6.432   0.143   1.761
 6776TIP3    H253864   6.447   0.265   1.846
 6777TIP3   OH253865   6.473   1.884   0.196
 6777TIP3    H153866   6.561   1.926   0.201
 6777TIP3    H253867   6.472   1.862   0.102
 6778TIP3   OH253868   5.819   1.330   0.116
 6778TIP3    H153869   5.915   1.346   0.123
 6778TIP3    H253870   5.815   1.289   0.029
 6779TIP3   OH253871   5.721   1.834   0.599
 6779TIP3    H153872   5.638   1.786   0.577
 6779TIP3    H253873   5.750   1.783   0.677
 6780TIP3   OH253874   5.799   1.669   0.809
 6780TIP3    H153875   5.745   1.604   0.858
 6780TIP3    H253876   5.856   1.703   0.882
 6781TIP3   OH253877   7.551   1.724   1.056
 6781TIP3    H153878   7.569   1.751   1.147
 6781TIP3    H253879   7.577   1.805   1.009
 6782TIP3   OH253880   7.487   1.725   1.359
 6782TIP3    H153881   7.451   1.645   1.315
 6782TIP3    H253882   7.532   1.683   1.434
 6783TIP3   OH253883   7.360   1.288   1.893
 6783TIP3    H153884   7.267   1.292   1.923
 6783TIP3    H253885   7.378   1.374   1.854
 6784TIP3   OH253886   7.470   1.131   0.382
 6784TIP3    H153887   7.555   1.178   0.399
 6784TIP3    H253888   7.471   1.069   0.459
 6785TIP3   OH253889   7.500   0.948   0.580
 6785TIP3    H153890   7.427   0.902   0.627
 6785TIP3    H253891   7.564   0.960   0.654
 6786TIP3   OH253892   7.479   1.229   1.076
 6786TIP3    H153893   7.546   1.164   1.047
 6786TIP3    H253894   7.529   1.312   1.065
 6787TIP3   OH253895   7.349   1.481   1.309
 6787TIP3    H153896   7.285   1.535   1.358
 6787TIP3    H253897   7.299   1.455   1.228
 6788TIP3   OH253898   7.527   0.902   0.214
 6788TIP3    H153899   7.467   0.920   0.139
 6788TIP3    H253900   7.513   0.981   0.270
 6789TIP3   OH253901   7.302   0.625   0.116
 6789TIP3    H153902   7.368   0.671   0.061
 6789TIP3    H253903   7.305   0.534   0.079
 6790TIP3   OH253904   7.306   0.807   0.685
 6790TIP3    H153905   7.295   0.715   0.657
 6790TIP3    H253906   7.275   0.800   0.778
 6791TIP3   OH253907   5.790   1.007   1.076
 6791TIP3    H153908   5.793   0.989   0.979
 6791TIP3    H253909   5.880   0.976   1.104
 6792TIP3   OH253910   7.388   0.959   1.604
 6792TIP3    H153911   7.430   0.873   1.623
 6792TIP3    H253912   7.464   1.018   1.590
 6793TIP3   OH253913   7.515   0.740   1.695
 6793TIP3    H153914   7.440   0.683   1.721
 6793TIP3    H253915   7.587   0.674   1.687
 6794TIP3   OH253916   7.306   0.400  -0.028
 6794TIP3    H153917   7.371   0.336   0.007
 6794TIP3    H253918   7.220   0.360  -0.007
 6795TIP3   OH253919   7.245   0.548   0.520
 6795TIP3    H153920   7.273   0.455   0.535
 6795TIP3    H253921   7.308   0.575   0.451
 6796TIP3   OH253922   7.353   0.607   1.048
 6796TIP3    H153923   7.451   0.611   1.048
 6796TIP3    H253924   7.337   0.632   1.141
 6797TIP3   OH253925   7.344   0.688   1.298
 6797TIP3    H153926   7.273   0.700   1.363
 6797TIP3    H253927   7.390   0.775   1.299
 6798TIP3   OH253928   5.777   0.525   1.662
 6798TIP3    H153929   5.859   0.487   1.702
 6798TIP3    H253930   5.721   0.444   1.663
 6799TIP3   OH253931   7.538   0.159   1.838
 6799TIP3    H153932   7.553   0.069   1.805
 6799TIP3    H253933   7.541   0.212   1.756
 6800TIP3   OH253934   7.325   0.286   0.525
 6800TIP3    H153935   7.362   0.234   0.600
 6800TIP3    H253936   7.271   0.221   0.475
 6801TIP3   OH253937   5.889   0.366   0.989
 6801TIP3    H153938   5.932   0.277   0.984
 6801TIP3    H253939   5.968   0.422   1.003
 6802TIP3   OH253940   5.725   0.651   1.084
 6802TIP3    H153941   5.773   0.625   1.004
 6802TIP3    H253942   5.788   0.711   1.126
 6803TIP3   OH253943   7.525   0.330   1.596
 6803TIP3    H153944   7.430   0.355   1.593
 6803TIP3    H253945   7.517   0.245   1.547
 6804TIP3   OH253946   7.499   0.286   0.154
 6804TIP3    H153947   7.508   0.199   0.115
 6804TIP3    H253948   7.575   0.333   0.113
 6805TIP3   OH253949   5.731   0.234   0.447
 6805TIP3    H153950   5.641   0.261   0.469
 6805TIP3    H253951   5.761   0.306   0.387
 6806TIP3   OH253952   7.217   1.781   0.669
 6806TIP3    H153953   7.287   1.761   0.605
 6806TIP3    H253954   7.260   1.839   0.734
 6807TIP3   OH253955   5.763   0.141   1.292
 6807TIP3    H153956   5.707   0.117   1.368
 6807TIP3    H253957   5.705   0.201   1.241
 6808TIP3   OH253958   5.963   1.458   1.721
 6808TIP3    H153959   5.903   1.497   1.655
 6808TIP3    H253960   5.914   1.472   1.802
 6809TIP3   OH253961   6.263   1.614   1.377
 6809TIP3    H153962   6.259   1.701   1.331
 6809TIP3    H253963   6.359   1.595   1.364
 6810TIP3   OH253964   6.652   1.705   1.629
 6810TIP3    H153965   6.662   1.654   1.711
 6810TIP3    H253966   6.745   1.735   1.613
 6811TIP3   OH253967   6.875   1.855   1.589
 6811TIP3    H153968   6.952   1.839   1.532
 6811TIP3    H253969   6.907   1.917   1.655
 6812TIP3   OH253970   7.440   0.117   1.447
 6812TIP3    H153971   7.371   0.154   1.388
 6812TIP3    H253972   7.454   0.029   1.404
 6813TIP3   OH253973   5.991   1.905   1.321
 6813TIP3    H153974   5.931   1.963   1.271
 6813TIP3    H253975   5.956   1.917   1.410
 6814TIP3   OH253976   6.239   1.851   1.236
 6814TIP3    H153977   6.145   1.863   1.263
 6814TIP3    H253978   6.241   1.905   1.155
 6815TIP3   OH253979   6.694   1.805   1.173
 6815TIP3    H153980   6.638   1.840   1.102
 6815TIP3    H253981   6.718   1.889   1.218
 6816TIP3   OH253982   6.919   1.682   1.302
 6816TIP3    H153983   6.853   1.724   1.244
 6816TIP3    H253984   6.995   1.740   1.280
 6817TIP3   OH253985   7.154   1.838   1.260
 6817TIP3    H153986   7.163   1.928   1.222
 6817TIP3    H253987   7.202   1.786   1.192
 6818TIP3   OH253988   5.963   1.744   1.013
 6818TIP3    H153989   5.934   1.689   1.089
 6818TIP3    H253990   6.050   1.701   0.993
 6819TIP3   OH253991   6.180   1.625   0.904
 6819TIP3    H153992   6.169   1.531   0.930
 6819TIP3    H253993   6.260   1.647   0.956
 6820TIP3   OH253994   6.397   1.632   1.058
 6820TIP3    H153995   6.438   1.547   1.034
 6820TIP3    H253996   6.421   1.640   1.152
 6821TIP3   OH253997   6.774   0.271   0.926
 6821TIP3    H153998   6.691   0.219   0.932
 6821TIP3    H253999   6.825   0.216   0.866
 6822TIP3   OH254000   7.244   0.069   0.882
 6822TIP3    H154001   7.314   0.117   0.833
 6822TIP3    H254002   7.166   0.124   0.860
 6823TIP3   OH254003   7.459   0.156   0.713
 6823TIP3    H154004   7.512   0.096   0.657
 6823TIP3    H254005   7.521   0.232   0.725
 6824TIP3   OH254006   5.999   0.113   0.668
 6824TIP3    H154007   5.921   0.095   0.612
 6824TIP3    H254008   6.044   0.026   0.662
 6825TIP3   OH254009   5.887   0.103   0.241
 6825TIP3    H154010   5.916   0.187   0.198
 6825TIP3    H254011   5.819   0.135   0.304
 6826TIP3   OH254012   6.408   0.077   0.706
 6826TIP3    H154013   6.490   0.106   0.662
 6826TIP3    H254014   6.432   0.088   0.800
 6827TIP3   OH254015   6.989   0.103   0.765
 6827TIP3    H154016   6.963   0.081   0.675
 6827TIP3    H254017   6.957   0.029   0.819
 6828TIP3   OH254018   7.153   0.117   0.387
 6828TIP3    H154019   7.073   0.163   0.360
 6828TIP3    H254020   7.115   0.045   0.442
 6829TIP3   OH254021   5.862   1.685   0.347
 6829TIP3    H154022   5.772   1.681   0.309
 6829TIP3    H254023   5.880   1.779   0.325
 6830TIP3   OH254024   6.010   0.288   0.092
 6830TIP3    H154025   6.074   0.247   0.032
 6830TIP3    H254026   6.069   0.336   0.152
 6831TIP3   OH254027   6.540   0.295   0.373
 6831TIP3    H154028   6.614   0.244   0.411
 6831TIP3    H254029   6.560   0.385   0.404
 6832TIP3   OH254030   6.755   1.883   0.163
 6832TIP3    H154031   6.840   1.901   0.120
 6832TIP3    H254032   6.754   1.786   0.149
 6833TIP3   OH254033   7.395   1.712   0.486
 6833TIP3    H154034   7.381   1.635   0.426
 6833TIP3    H254035   7.391   1.784   0.419
 6834TIP3   OH254036   5.931   0.200   1.618
 6834TIP3    H154037   5.866   0.128   1.606
 6834TIP3    H254038   6.010   0.149   1.645
 6835TIP3   OH254039   6.158   0.068   1.726
 6835TIP3    H154040   6.251   0.055   1.694
 6835TIP3    H254041   6.141  -0.019   1.764
 6836TIP3   OH254042   6.055   1.774   0.044
 6836TIP3    H154043   5.988   1.825   0.092
 6836TIP3    H254044   6.074   1.699   0.102
 6837TIP3   OH254045   7.069   9.382   1.749
 6837TIP3    H154046   7.032   9.341   1.831
 6837TIP3    H254047   7.136   9.317   1.725
 6838TIP3   OH254048   7.321   1.617   1.680
 6838TIP3    H154049   7.259   1.613   1.603
 6838TIP3    H254050   7.315   1.712   1.700
 6839TIP3   OH254051   8.823   1.032   0.666
 6839TIP3    H154052   8.815   1.130   0.660
 6839TIP3    H254053   8.743   1.005   0.617
 6840TIP3   OH254054   8.668   0.892   0.996
 6840TIP3    H154055   8.696   0.853   1.081
 6840TIP3    H254056   8.609   0.824   0.957
 6841TIP3   OH254057   7.886   0.897   1.149
 6841TIP3    H154058   7.877   0.815   1.202
 6841TIP3    H254059   7.959   0.940   1.197
 6842TIP3   OH254060   9.025   1.263   0.839
 6842TIP3    H154061   9.047   1.181   0.885
 6842TIP3    H254062   9.023   1.326   0.913
 6843TIP3   OH254063   8.017   1.378   0.959
 6843TIP3    H154064   7.982   1.286   0.959
 6843TIP3    H254065   8.113   1.359   0.964
 6844TIP3   OH254066   7.689   0.688   0.558
 6844TIP3    H154067   7.646   0.753   0.614
 6844TIP3    H254068   7.632   0.687   0.479
 6845TIP3   OH254069   7.687   0.927   0.793
 6845TIP3    H154070   7.713   0.834   0.810
 6845TIP3    H254071   7.772   0.974   0.789
 6846TIP3   OH254072   8.757   1.779   0.861
 6846TIP3    H154073   8.813   1.717   0.807
 6846TIP3    H254074   8.730   1.714   0.928
 6847TIP3   OH254075   8.487   1.176   1.107
 6847TIP3    H154076   8.512   1.159   1.015
 6847TIP3    H254077   8.576   1.190   1.148
 6848TIP3   OH254078   9.298   0.332   1.130
 6848TIP3    H154079   9.332   0.406   1.182
 6848TIP3    H254080   9.372   0.323   1.067
 6849TIP3   OH254081   8.824   0.629   1.110
 6849TIP3    H154082   8.847   0.535   1.116
 6849TIP3    H254083   8.812   0.641   1.014
 6850TIP3   OH254084   8.173   0.411   0.778
 6850TIP3    H154085   8.177   0.498   0.733
 6850TIP3    H254086   8.109   0.364   0.721
 6851TIP3   OH254087   8.914   0.459   0.667
 6851TIP3    H154088   8.967   0.406   0.730
 6851TIP3    H254089   8.985   0.503   0.617
 6852TIP3   OH254090   7.777   0.678   0.879
 6852TIP3    H154091   7.853   0.660   0.937
 6852TIP3    H254092   7.805   0.625   0.801
 6853TIP3   OH254093   8.282   0.824   0.828
 6853TIP3    H154094   8.368   0.783   0.853
 6853TIP3    H254095   8.251   0.758   0.763
 6854TIP3   OH254096   8.061   0.325   1.202
 6854TIP3    H154097   8.028   0.377   1.125
 6854TIP3    H254098   7.992   0.346   1.269
 6855TIP3   OH254099   8.735   1.264   0.568
 6855TIP3    H154100   8.699   1.263   0.477
 6855TIP3    H254101   8.710   1.356   0.597
 6856TIP3   OH254102   8.257   1.086   1.212
 6856TIP3    H154103   8.207   1.163   1.245
 6856TIP3    H254104   8.339   1.128   1.177
 6857TIP3   OH254105   9.094   0.364   0.849
 6857TIP3    H154106   9.046   0.335   0.929
 6857TIP3    H254107   9.154   0.429   0.888
 6858TIP3   OH254108   8.005   0.521   0.993
 6858TIP3    H154109   8.064   0.584   1.040
 6858TIP3    H254110   8.062   0.492   0.918
 6859TIP3   OH254111   8.139   1.308   1.310
 6859TIP3    H154112   8.107   1.381   1.254
 6859TIP3    H254113   8.056   1.288   1.359
 6860TIP3   OH254114   7.720   1.232   0.406
 6860TIP3    H154115   7.714   1.281   0.321
 6860TIP3    H254116   7.733   1.308   0.468
 6861TIP3   OH254117   9.067   1.431   1.041
 6861TIP3    H154118   8.973   1.441   1.067
 6861TIP3    H254119   9.096   1.524   1.043
 6862TIP3   OH254120   9.138   0.184   1.279
 6862TIP3    H154121   9.061   0.232   1.246
 6862TIP3    H254122   9.202   0.219   1.213
 6863TIP3   OH254123   8.431   0.102   0.937
 6863TIP3    H154124   8.479   0.023   0.963
 6863TIP3    H254125   8.344   0.089   0.983
 6864TIP3   OH254126   8.905   1.611   0.722
 6864TIP3    H154127   8.940   1.524   0.694
 6864TIP3    H254128   8.978   1.672   0.694
 6865TIP3   OH254129   9.047   1.367   0.581
 6865TIP3    H154130   9.021   1.291   0.526
 6865TIP3    H254131   9.059   1.326   0.670
 6866TIP3   OH254132   9.179   1.232   1.470
 6866TIP3    H154133   9.170   1.178   1.387
 6866TIP3    H254134   9.212   1.316   1.434
 6867TIP3   OH254135   8.644   0.929   0.401
 6867TIP3    H154136   8.584   1.005   0.382
 6867TIP3    H254137   8.723   0.947   0.346
 6868TIP3   OH254138   8.641   0.810   0.139
 6868TIP3    H154139   8.726   0.840   0.180
 6868TIP3    H254140   8.672   0.743   0.077
 6869TIP3   OH254141   9.347   0.884   1.198
 6869TIP3    H154142   9.288   0.961   1.213
 6869TIP3    H254143   9.412   0.925   1.136
 6870TIP3   OH254144   8.997   0.899   0.494
 6870TIP3    H154145   8.941   0.947   0.560
 6870TIP3    H254146   9.060   0.852   0.556
 6871TIP3   OH254147   8.968   0.750   1.414
 6871TIP3    H154148   8.938   0.811   1.483
 6871TIP3    H254149   8.921   0.792   1.339
 6872TIP3   OH254150   8.159   1.025   0.707
 6872TIP3    H154151   8.137   0.981   0.622
 6872TIP3    H254152   8.212   0.955   0.750
 6873TIP3   OH254153   8.293   1.343   0.966
 6873TIP3    H154154   8.310   1.326   0.873
 6873TIP3    H254155   8.361   1.292   1.014
 6874TIP3   OH254156   8.173   0.887   1.067
 6874TIP3    H154157   8.204   0.891   0.974
 6874TIP3    H254158   8.220   0.962   1.111
 6875TIP3   OH254159   8.831   1.450   1.151
 6875TIP3    H154160   8.794   1.500   1.226
 6875TIP3    H254161   8.818   1.358   1.183
 6876TIP3   OH254162   8.316   1.343   1.515
 6876TIP3    H154163   8.241   1.387   1.559
 6876TIP3    H254164   8.272   1.329   1.429
 6877TIP3   OH254165   8.873   0.869   0.263
 6877TIP3    H154166   8.925   0.870   0.347
 6877TIP3    H254167   8.923   0.934   0.207
 6878TIP3   OH254168   7.984   0.966   1.394
 6878TIP3    H154169   8.015   1.019   1.468
 6878TIP3    H254170   7.903   0.930   1.436
 6879TIP3   OH254171   8.653   1.510   0.631
 6879TIP3    H154172   8.707   1.588   0.650
 6879TIP3    H254173   8.586   1.544   0.570
 6880TIP3   OH254174   8.123   1.503   1.624
 6880TIP3    H154175   8.126   1.553   1.539
 6880TIP3    H254176   8.027   1.487   1.630
 6881TIP3   OH254177   9.244   0.033   0.286
 6881TIP3    H154178   9.148   0.030   0.304
 6881TIP3    H254179   9.244   0.066   0.194
 6882TIP3   OH254180   8.037   0.917   0.468
 6882TIP3    H154181   8.005   0.999   0.424
 6882TIP3    H254182   7.978   0.851   0.431
 6883TIP3   OH254183   9.352   1.513   0.105
 6883TIP3    H154184   9.392   1.570   0.039
 6883TIP3    H254185   9.416   1.437   0.106
 6884TIP3   OH254186   7.684   1.159   1.374
 6884TIP3    H154187   7.630   1.157   1.294
 6884TIP3    H254188   7.735   1.077   1.360
 6885TIP3   OH254189   7.652   1.441   1.036
 6885TIP3    H154190   7.743   1.452   1.067
 6885TIP3    H254191   7.614   1.528   1.053
 6886TIP3   OH254192   8.571   1.455   1.486
 6886TIP3    H154193   8.571   1.540   1.535
 6886TIP3    H254194   8.480   1.420   1.501
 6887TIP3   OH254195   8.608   1.840   0.436
 6887TIP3    H154196   8.606   1.867   0.342
 6887TIP3    H254197   8.604   1.927   0.481
 6888TIP3   OH254198   7.973   1.702   0.646
 6888TIP3    H154199   7.999   1.669   0.735
 6888TIP3    H254200   7.881   1.671   0.637
 6889TIP3   OH254201   8.891   1.789   0.150
 6889TIP3    H154202   8.943   1.711   0.119
 6889TIP3    H254203   8.899   1.778   0.246
 6890TIP3   OH254204   8.865   1.754   0.434
 6890TIP3    H154205   8.770   1.766   0.456
 6890TIP3    H254206   8.891   1.681   0.492
 6891TIP3   OH254207   9.159   0.656   1.637
 6891TIP3    H154208   9.117   0.684   1.553
 6891TIP3    H254209   9.185   0.564   1.615
 6892TIP3   OH254210   7.907   1.315   1.432
 6892TIP3    H154211   7.914   1.276   1.521
 6892TIP3    H254212   7.818   1.281   1.408
 6893TIP3   OH254213   8.192   0.111   1.061
 6893TIP3    H154214   8.116   0.111   0.999
 6893TIP3    H254215   8.156   0.181   1.120
 6894TIP3   OH254216   8.642   0.107   1.338
 6894TIP3    H154217   8.661   0.089   1.430
 6894TIP3    H254218   8.545   0.118   1.336
 6895TIP3   OH254219   8.957   0.467   1.419
 6895TIP3    H154220   8.914   0.457   1.506
 6895TIP3    H254221   8.964   0.565   1.414
 6896TIP3   OH254222   9.021   1.014   0.096
 6896TIP3    H154223   9.067   0.957   0.031
 6896TIP3    H254224   9.094   1.074   0.121
 6897TIP3   OH254225   8.603   0.352   0.102
 6897TIP3    H154226   8.532   0.344   0.167
 6897TIP3    H254227   8.635   0.260   0.102
 6898TIP3   OH254228   8.189   0.642   1.172
 6898TIP3    H154229   8.106   0.638   1.222
 6898TIP3    H254230   8.186   0.736   1.143
 6899TIP3   OH254231   8.175   0.639   0.640
 6899TIP3    H154232   8.079   0.632   0.633
 6899TIP3    H254233   8.207   0.616   0.551
 6900TIP3   OH254234   8.731   0.708   0.523
 6900TIP3    H154235   8.697   0.788   0.475
 6900TIP3    H254236   8.793   0.671   0.457
 6901TIP3   OH254237   8.644   0.743   1.671
 6901TIP3    H154238   8.590   0.673   1.712
 6901TIP3    H254239   8.722   0.743   1.729
 6902TIP3   OH254240   8.813   0.704   0.836
 6902TIP3    H154241   8.793   0.785   0.786
 6902TIP3    H254242   8.828   0.641   0.764
 6903TIP3   OH254243   7.925   0.648   1.276
 6903TIP3    H154244   7.958   0.692   1.356
 6903TIP3    H254245   7.882   0.568   1.313
 6904TIP3   OH254246   8.254   0.444   0.047
 6904TIP3    H154247   8.222   0.401   0.128
 6904TIP3    H254248   8.234   0.537   0.063
 6905TIP3   OH254249   7.609   0.381   0.740
 6905TIP3    H154250   7.674   0.386   0.814
 6905TIP3    H254251   7.662   0.396   0.661
 6906TIP3   OH254252   7.715   0.442   0.310
 6906TIP3    H154253   7.776   0.462   0.238
 6906TIP3    H254254   7.655   0.519   0.307
 6907TIP3   OH254255   8.746   0.853   1.254
 6907TIP3    H154256   8.781   0.769   1.216
 6907TIP3    H254257   8.683   0.818   1.320
 6908TIP3   OH254258   8.454   0.381   0.751
 6908TIP3    H154259   8.357   0.376   0.749
 6908TIP3    H254260   8.471   0.368   0.847
 6909TIP3   OH254261   7.895   0.563   0.655
 6909TIP3    H154262   7.821   0.604   0.606
 6909TIP3    H254263   7.920   0.487   0.597
 6910TIP3   OH254264   8.261   0.579   0.372
 6910TIP3    H154265   8.350   0.605   0.404
 6910TIP3    H254266   8.234   0.654   0.317
 6911TIP3   OH254267   8.910   0.309   1.060
 6911TIP3    H154268   8.838   0.310   1.127
 6911TIP3    H254269   8.859   0.274   0.983
 6912TIP3   OH254270   8.116   0.747   0.140
 6912TIP3    H154271   8.062   0.724   0.063
 6912TIP3    H254272   8.206   0.755   0.104
 6913TIP3   OH254273   9.137   1.887   1.747
 6913TIP3    H154274   9.183   1.886   1.660
 6913TIP3    H254275   9.151   1.981   1.763
 6914TIP3   OH254276   7.939   1.141   1.652
 6914TIP3    H154277   8.013   1.176   1.703
 6914TIP3    H254278   7.874   1.116   1.721
 6915TIP3   OH254279   8.509   0.679   0.902
 6915TIP3    H154280   8.591   0.628   0.891
 6915TIP3    H254281   8.459   0.623   0.963
 6916TIP3   OH254282   8.007   0.329   0.581
 6916TIP3    H154283   7.952   0.265   0.633
 6916TIP3    H254284   8.062   0.265   0.532
 6917TIP3   OH254285   8.410   0.496   1.174
 6917TIP3    H154286   8.332   0.556   1.181
 6917TIP3    H254287   8.478   0.544   1.224
 6918TIP3   OH254288   8.473   1.140   0.388
 6918TIP3    H154289   8.397   1.088   0.354
 6918TIP3    H254290   8.433   1.179   0.470
 6919TIP3   OH254291   9.175   1.104   1.238
 6919TIP3    H154292   9.231   1.167   1.186
 6919TIP3    H254293   9.109   1.077   1.170
 6920TIP3   OH254294   8.863   0.436   0.145
 6920TIP3    H154295   8.766   0.445   0.135
 6920TIP3    H254296   8.880   0.500   0.217
 6921TIP3   OH254297   8.599   1.179   1.488
 6921TIP3    H154298   8.575   1.159   1.579
 6921TIP3    H254299   8.604   1.277   1.490
 6922TIP3   OH254300   8.918   0.605   0.344
 6922TIP3    H154301   8.996   0.602   0.403
 6922TIP3    H254302   8.932   0.687   0.294
 6923TIP3   OH254303   7.981   1.091   0.928
 6923TIP3    H154304   8.041   1.083   0.851
 6923TIP3    H254305   8.010   1.020   0.987
 6924TIP3   OH254306   8.668   1.284   0.279
 6924TIP3    H154307   8.623   1.364   0.311
 6924TIP3    H254308   8.604   1.214   0.304
 6925TIP3   OH254309   7.713   0.876   1.453
 6925TIP3    H154310   7.676   0.833   1.532
 6925TIP3    H254311   7.647   0.852   1.385
 6926TIP3   OH254312   8.394   0.892   1.626
 6926TIP3    H154313   8.365   0.854   1.541
 6926TIP3    H254314   8.480   0.848   1.640
 6927TIP3   OH254315   8.874   1.410   1.500
 6927TIP3    H154316   8.786   1.430   1.463
 6927TIP3    H254317   8.865   1.446   1.590
 6928TIP3   OH254318   9.266   1.452   0.348
 6928TIP3    H154319   9.177   1.415   0.348
 6928TIP3    H254320   9.280   1.472   0.253
 6929TIP3   OH254321   8.982   1.013   1.062
 6929TIP3    H154322   8.892   1.019   1.027
 6929TIP3    H254323   9.017   0.941   1.006
 6930TIP3   OH254324   8.216   1.449   0.661
 6930TIP3    H154325   8.227   1.544   0.643
 6930TIP3    H254326   8.129   1.432   0.623
 6931TIP3   OH254327   7.793   0.942   0.100
 6931TIP3    H154328   7.836   0.993   0.171
 6931TIP3    H254329   7.701   0.932   0.132
 6932TIP3   OH254330   8.348   1.218   0.615
 6932TIP3    H154331   8.305   1.304   0.630
 6932TIP3    H254332   8.294   1.154   0.666
 6933TIP3   OH254333   8.413   1.623   1.312
 6933TIP3    H154334   8.473   1.688   1.272
 6933TIP3    H254335   8.475   1.572   1.367
 6934TIP3   OH254336   8.237   1.707   0.567
 6934TIP3    H154337   8.141   1.712   0.584
 6934TIP3    H254338   8.264   1.791   0.609
 6935TIP3   OH254339   8.722   1.202   1.232
 6935TIP3    H154340   8.687   1.178   1.322
 6935TIP3    H254341   8.754   1.116   1.199
 6936TIP3   OH254342   9.003   1.329   0.177
 6936TIP3    H154343   9.028   1.282   0.259
 6936TIP3    H254344   8.919   1.283   0.161
 6937TIP3   OH254345   9.047   1.642   1.465
 6937TIP3    H154346   8.969   1.586   1.453
 6937TIP3    H254347   9.047   1.700   1.385
 6938TIP3   OH254348   7.867   0.370   1.393
 6938TIP3    H154349   7.823   0.408   1.471
 6938TIP3    H254350   7.861   0.275   1.417
 6939TIP3   OH254351   9.071   1.144   0.378
 6939TIP3    H154352   9.040   1.056   0.405
 6939TIP3    H254353   9.169   1.133   0.380
 6940TIP3   OH254354   7.828   1.582   1.261
 6940TIP3    H154355   7.881   1.501   1.264
 6940TIP3    H254356   7.853   1.623   1.345
 6941TIP3   OH254357   8.276   1.381   0.242
 6941TIP3    H154358   8.345   1.340   0.297
 6941TIP3    H254359   8.284   1.477   0.262
 6942TIP3   OH254360   7.924   1.107   0.280
 6942TIP3    H154361   7.856   1.153   0.334
 6942TIP3    H254362   7.976   1.180   0.243
 6943TIP3   OH254363   8.723   0.372   1.325
 6943TIP3    H154364   8.808   0.399   1.365
 6943TIP3    H254365   8.711   0.284   1.365
 6944TIP3   OH254366   8.791   0.315   0.472
 6944TIP3    H154367   8.798   0.369   0.392
 6944TIP3    H254368   8.845   0.368   0.534
 6945TIP3   OH254369   8.558   1.526   0.352
 6945TIP3    H154370   8.493   1.599   0.349
 6945TIP3    H254371   8.612   1.547   0.273
 6946TIP3   OH254372   8.506   0.553   0.542
 6946TIP3    H154373   8.588   0.606   0.545
 6946TIP3    H254374   8.506   0.504   0.627
 6947TIP3   OH254375   8.599   0.639   1.420
 6947TIP3    H154376   8.612   0.662   1.515
 6947TIP3    H254377   8.632   0.548   1.411
 6948TIP3   OH254378   8.582   0.186   0.612
 6948TIP3    H154379   8.537   0.259   0.658
 6948TIP3    H254380   8.660   0.231   0.572
 6949TIP3   OH254381   8.290   1.646   0.298
 6949TIP3    H154382   8.316   1.732   0.259
 6949TIP3    H254383   8.259   1.674   0.387
 6950TIP3   OH254384   8.122   0.350   0.269
 6950TIP3    H154385   8.120   0.424   0.332
 6950TIP3    H254386   8.206   0.312   0.299
 6951TIP3   OH254387   9.190   0.410   1.531
 6951TIP3    H154388   9.101   0.420   1.491
 6951TIP3    H254389   9.241   0.398   1.450
 6952TIP3   OH254390   9.061   0.799   0.897
 6952TIP3    H154391   8.979   0.747   0.900
 6952TIP3    H254392   9.119   0.742   0.953
 6953TIP3   OH254393   7.996   1.356   0.149
 6953TIP3    H154394   8.074   1.394   0.193
 6953TIP3    H254395   8.041   1.303   0.082
 6954TIP3   OH254396   7.828   0.658   0.067
 6954TIP3    H154397   7.843   0.750   0.094
 6954TIP3    H254398   7.737   0.664   0.032
 6955TIP3   OH254399   9.202   1.679   1.072
 6955TIP3    H154400   9.176   1.736   0.997
 6955TIP3    H254401   9.297   1.695   1.081
 6956TIP3   OH254402   7.943   0.141   0.955
 6956TIP3    H154403   7.919   0.134   0.860
 6956TIP3    H254404   7.898   0.061   0.992
 6957TIP3   OH254405   7.758   1.481   0.530
 6957TIP3    H154406   7.688   1.529   0.577
 6957TIP3    H254407   7.783   1.549   0.464
 6958TIP3   OH254408   7.688   1.776   1.705
 6958TIP3    H154409   7.755   1.755   1.774
 6958TIP3    H254410   7.654   1.687   1.684
 6959TIP3   OH254411   8.197   1.646   1.857
 6959TIP3    H154412   8.285   1.604   1.860
 6959TIP3    H254413   8.168   1.615   1.768
 6960TIP3   OH254414   8.670   1.623   0.095
 6960TIP3    H154415   8.610   1.566   0.044
 6960TIP3    H254416   8.730   1.653   0.025
 6961TIP3   OH254417   8.823   1.551   1.743
 6961TIP3    H154418   8.790   1.469   1.787
 6961TIP3    H254419   8.910   1.558   1.785
 6962TIP3   OH254420   9.064   1.611   0.034
 6962TIP3    H154421   9.065   1.525   0.079
 6962TIP3    H254422   9.158   1.632   0.026
 6963TIP3   OH254423   7.694   1.122   1.787
 6963TIP3    H154424   7.687   1.029   1.759
 6963TIP3    H254425   7.641   1.164   1.714
 6964TIP3   OH254426   8.172   1.151   0.020
 6964TIP3    H154427   8.224   1.134   0.101
 6964TIP3    H254428   8.226   1.111  -0.050
 6965TIP3   OH254429   8.369   1.168   1.718
 6965TIP3    H154430   8.357   1.218   1.634
 6965TIP3    H254431   8.354   1.074   1.692
 6966TIP3   OH254432   8.931   1.130   1.511
 6966TIP3    H154433   9.020   1.175   1.503
 6966TIP3    H254434   8.872   1.207   1.500
 6967TIP3   OH254435   7.808   0.854   1.749
 6967TIP3    H154436   7.804   0.758   1.751
 6967TIP3    H254437   7.863   0.881   1.824
 6968TIP3   OH254438   8.280   1.003   0.257
 6968TIP3    H154439   8.208   0.950   0.293
 6968TIP3    H254440   8.322   0.938   0.197
 6969TIP3   OH254441   8.165   0.774   1.407
 6969TIP3    H154442   8.111   0.852   1.384
 6969TIP3    H254443   8.250   0.804   1.369
 6970TIP3   OH254444   8.373   0.809   0.061
 6970TIP3    H154445   8.384   0.829  -0.033
 6970TIP3    H254446   8.468   0.810   0.093
 6971TIP3   OH254447   8.737   1.035   1.826
 6971TIP3    H154448   8.803   0.993   1.768
 6971TIP3    H254449   8.718   0.960   1.886
 6972TIP3   OH254450   9.298   0.993   8.484
 6972TIP3    H154451   9.290   0.993   8.387
 6972TIP3    H254452   9.363   1.064   8.499
 6973TIP3   OH254453   8.263   0.528   1.534
 6973TIP3    H154454   8.268   0.456   1.467
 6973TIP3    H254455   8.232   0.605   1.481
 6974TIP3   OH254456   8.289   0.328   1.337
 6974TIP3    H154457   8.332   0.380   1.265
 6974TIP3    H254458   8.197   0.319   1.304
 6975TIP3   OH254459   8.401   0.906   1.350
 6975TIP3    H154460   8.485   0.952   1.362
 6975TIP3    H254461   8.346   0.978   1.312
 6976TIP3   OH254462   8.870   0.639   1.846
 6976TIP3    H154463   8.891   0.562   1.900
 6976TIP3    H254464   8.960   0.673   1.826
 6977TIP3   OH254465   8.982   0.947   1.703
 6977TIP3    H154466   8.961   1.004   1.625
 6977TIP3    H254467   9.080   0.941   1.695
 6978TIP3   OH254468   8.111   0.547   1.757
 6978TIP3    H154469   8.022   0.511   1.741
 6978TIP3    H254470   8.154   0.542   1.669
 6979TIP3   OH254471   8.359   0.080   1.324
 6979TIP3    H154472   8.345   0.176   1.343
 6979TIP3    H254473   8.296   0.073   1.251
 6980TIP3   OH254474   8.491   0.490   1.743
 6980TIP3    H154475   8.426   0.478   1.816
 6980TIP3    H254476   8.430   0.487   1.667
 6981TIP3   OH254477   8.756   0.395   1.633
 6981TIP3    H154478   8.668   0.405   1.674
 6981TIP3    H254479   8.811   0.381   1.712
 6982TIP3   OH254480   8.894   0.302   1.846
 6982TIP3    H154481   8.900   0.203   1.838
 6982TIP3    H254482   8.896   0.312   1.942
 6983TIP3   OH254483   7.875   0.395   1.766
 6983TIP3    H154484   7.871   0.316   1.707
 6983TIP3    H254485   7.868   0.356   1.857
 6984TIP3   OH254486   8.305   0.015   1.602
 6984TIP3    H154487   8.377  -0.015   1.660
 6984TIP3    H254488   8.350   0.034   1.518
 6985TIP3   OH254489   8.349   1.885   0.157
 6985TIP3    H154490   8.431   1.927   0.187
 6985TIP3    H254491   8.372   1.868   0.063
 6986TIP3   OH254492   7.708   1.314   0.125
 6986TIP3    H154493   7.804   1.333   0.130
 6986TIP3    H254494   7.705   1.278   0.035
 6987TIP3   OH254495   7.600   1.842   0.603
 6987TIP3    H154496   7.521   1.794   0.568
 6987TIP3    H254497   7.630   1.780   0.672
 6988TIP3   OH254498   7.691   1.671   0.798
 6988TIP3    H154499   7.636   1.604   0.841
 6988TIP3    H254500   7.749   1.701   0.872
 6989TIP3   OH254501   9.373   1.730   1.403
 6989TIP3    H154502   9.314   1.668   1.356
 6989TIP3    H254503   9.424   1.668   1.455
 6990TIP3   OH254504   9.211   1.287   1.864
 6990TIP3    H154505   9.138   1.271   1.802
 6990TIP3    H254506   9.265   1.351   1.815
 6991TIP3   OH254507   9.333   1.108   0.393
 6991TIP3    H154508   9.410   1.169   0.401
 6991TIP3    H254509   9.325   1.074   0.482
 6992TIP3   OH254510   0.022   1.226   1.108
 6992TIP3    H154511   0.083   1.155   1.075
 6992TIP3    H254512   0.043   1.301   1.050
 6993TIP3   OH254513   9.244   1.485   1.321
 6993TIP3    H154514   9.152   1.509   1.341
 6993TIP3    H254515   9.242   1.468   1.225
 6994TIP3   OH254516   9.385   0.597   0.107
 6994TIP3    H154517   9.345   0.667   0.052
 6994TIP3    H254518   9.355   0.517   0.062
 6995TIP3   OH254519   9.169   0.763   0.638
 6995TIP3    H154520   9.180   0.669   0.616
 6995TIP3    H254521   9.144   0.765   0.733
 6996TIP3   OH254522   7.677   1.024   1.066
 6996TIP3    H154523   7.676   0.996   0.972
 6996TIP3    H254524   7.766   0.991   1.092
 6997TIP3   OH254525   9.245   0.965   1.654
 6997TIP3    H154526   9.286   0.876   1.651
 6997TIP3    H254527   9.301   1.021   1.599
 6998TIP3   OH254528   9.150   0.368   8.426
 6998TIP3    H154529   9.230   0.336   8.471
 6998TIP3    H254530   9.080   0.356   8.492
 6999TIP3   OH254531   9.135   0.550   0.489
 6999TIP3    H154532   9.159   0.456   0.504
 6999TIP3    H254533   9.207   0.581   0.432
 7000TIP3   OH254534   9.187   0.594   1.041
 7000TIP3    H154535   9.285   0.592   1.035
 7000TIP3    H254536   9.180   0.600   1.139
 7001TIP3   OH254537   9.221   0.683   1.327
 7001TIP3    H154538   9.138   0.723   1.362
 7001TIP3    H254539   9.271   0.763   1.297
 7002TIP3   OH254540   7.678   0.535   1.666
 7002TIP3    H154541   7.755   0.490   1.707
 7002TIP3    H254542   7.628   0.456   1.635
 7003TIP3   OH254543   9.165   0.292   0.519
 7003TIP3    H154544   9.191   0.245   0.601
 7003TIP3    H254545   9.110   0.225   0.471
 7004TIP3   OH254546   7.770   0.348   0.953
 7004TIP3    H154547   7.825   0.268   0.968
 7004TIP3    H254548   7.838   0.417   0.968
 7005TIP3   OH254549   7.613   0.642   1.080
 7005TIP3    H154550   7.649   0.606   0.997
 7005TIP3    H254551   7.662   0.726   1.081
 7006TIP3   OH254552   7.618   0.243   0.460
 7006TIP3    H154553   7.524   0.266   0.462
 7006TIP3    H254554   7.651   0.310   0.396
 7007TIP3   OH254555   9.099   1.772   0.654
 7007TIP3    H154556   9.168   1.744   0.590
 7007TIP3    H254557   9.151   1.807   0.729
 7008TIP3   OH254558   7.652   0.148   1.277
 7008TIP3    H154559   7.595   0.142   1.356
 7008TIP3    H254560   7.608   0.219   1.227
 7009TIP3   OH254561   7.841   1.451   1.712
 7009TIP3    H154562   7.768   1.489   1.662
 7009TIP3    H254563   7.801   1.434   1.798
 7010TIP3   OH254564   8.151   1.620   1.375
 7010TIP3    H154565   8.138   1.706   1.329
 7010TIP3    H254566   8.247   1.607   1.358
 7011TIP3   OH254567   8.573   1.725   1.624
 7011TIP3    H154568   8.600   1.671   1.699
 7011TIP3    H254569   8.660   1.764   1.601
 7012TIP3   OH254570   8.806   1.860   1.556
 7012TIP3    H154571   8.889   1.825   1.522
 7012TIP3    H254572   8.835   1.909   1.636
 7013TIP3   OH254573   9.221   0.082   1.513
 7013TIP3    H154574   9.179   0.139   1.445
 7013TIP3    H254575   9.266   0.016   1.457
 7014TIP3   OH254576   7.885   1.906   1.333
 7014TIP3    H154577   7.807   1.950   1.293
 7014TIP3    H254578   7.856   1.897   1.424
 7015TIP3   OH254579   8.123   1.849   1.239
 7015TIP3    H154580   8.032   1.869   1.274
 7015TIP3    H254581   8.128   1.909   1.163
 7016TIP3   OH254582   8.608   1.811   1.153
 7016TIP3    H154583   8.547   1.848   1.088
 7016TIP3    H254584   8.619   1.888   1.214
 7017TIP3   OH254585   8.786   1.676   1.304
 7017TIP3    H154586   8.728   1.716   1.236
 7017TIP3    H254587   8.859   1.740   1.298
 7018TIP3   OH254588   9.091   1.821   1.268
 7018TIP3    H154589   9.116   1.915   1.258
 7018TIP3    H254590   9.135   1.780   1.190
 7019TIP3   OH254591   7.848   1.744   1.017
 7019TIP3    H154592   7.829   1.691   1.097
 7019TIP3    H254593   7.936   1.707   0.991
 7020TIP3   OH254594   8.065   1.640   0.894
 7020TIP3    H154595   8.050   1.545   0.918
 7020TIP3    H254596   8.149   1.654   0.943
 7021TIP3   OH254597   8.287   1.637   1.041
 7021TIP3    H154598   8.332   1.553   1.017
 7021TIP3    H254599   8.302   1.640   1.137
 7022TIP3   OH254600   8.663   0.281   0.922
 7022TIP3    H154601   8.594   0.214   0.934
 7022TIP3    H254602   8.690   0.261   0.831
 7023TIP3   OH254603   9.113   0.072   0.913
 7023TIP3    H154604   9.181   0.123   0.863
 7023TIP3    H254605   9.033   0.109   0.874
 7024TIP3   OH254606   9.301   0.148   0.739
 7024TIP3    H154607   9.376   0.100   0.699
 7024TIP3    H254608   9.335   0.240   0.747
 7025TIP3   OH254609   7.881   0.118   0.679
 7025TIP3    H154610   7.799   0.106   0.629
 7025TIP3    H254611   7.922   0.029   0.669
 7026TIP3   OH254612   7.764   0.095   0.235
 7026TIP3    H154613   7.800   0.177   0.194
 7026TIP3    H254614   7.705   0.131   0.304
 7027TIP3   OH254615   8.291   0.077   0.706
 7027TIP3    H154616   8.375   0.106   0.667
 7027TIP3    H254617   8.311   0.090   0.801
 7028TIP3   OH254618   8.859   0.126   0.776
 7028TIP3    H154619   8.843   0.104   0.684
 7028TIP3    H254620   8.824   0.049   0.826
 7029TIP3   OH254621   9.004   0.122   0.382
 7029TIP3    H154622   8.933   0.161   0.329
 7029TIP3    H254623   8.953   0.056   0.433
 7030TIP3   OH254624   7.752   1.685   0.347
 7030TIP3    H154625   7.662   1.680   0.308
 7030TIP3    H254626   7.767   1.779   0.327
 7031TIP3   OH254627   7.895   0.281   0.097
 7031TIP3    H154628   7.962   0.232   0.046
 7031TIP3    H254629   7.952   0.334   0.154
 7032TIP3   OH254630   8.430   0.297   0.370
 7032TIP3    H154631   8.506   0.248   0.407
 7032TIP3    H254632   8.441   0.383   0.414
 7033TIP3   OH254633   8.630   1.877   0.169
 7033TIP3    H154634   8.713   1.894   0.121
 7033TIP3    H254635   8.635   1.779   0.167
 7034TIP3   OH254636   9.284   1.685   0.486
 7034TIP3    H154637   9.269   1.597   0.443
 7034TIP3    H254638   9.281   1.744   0.406
 7035TIP3   OH254639   7.833   0.184   1.592
 7035TIP3    H154640   7.770   0.109   1.597
 7035TIP3    H254641   7.912   0.141   1.630
 7036TIP3   OH254642   8.047   0.089   1.789
 7036TIP3    H154643   8.137   0.071   1.756
 7036TIP3    H254644   8.015  -0.002   1.806
 7037TIP3   OH254645   7.944   1.788   0.052
 7037TIP3    H154646   7.878   1.811   0.118
 7037TIP3    H254647   7.982   1.705   0.086
 7038TIP3   OH254648   8.940   9.383   1.836
 7038TIP3    H154649   8.929   9.318   1.907
 7038TIP3    H254650   9.001   9.341   1.773
 7039TIP3   OH254651   9.215   1.636   1.670
 7039TIP3    H154652   9.174   1.628   1.581
 7039TIP3    H254653   9.189   1.727   1.693
 7040TIP3   OH254654   1.250   2.904   0.680
 7040TIP3    H154655   1.237   3.001   0.684
 7040TIP3    H254656   1.174   2.876   0.628
 7041TIP3   OH254657   1.148   2.770   1.002
 7041TIP3    H154658   1.141   2.728   1.090
 7041TIP3    H254659   1.066   2.742   0.957
 7042TIP3   OH254660   0.393   2.799   1.161
 7042TIP3    H154661   0.374   2.736   1.232
 7042TIP3    H254662   0.466   2.850   1.198
 7043TIP3   OH254663   1.464   3.101   0.869
 7043TIP3    H154664   1.441   3.031   0.933
 7043TIP3    H254665   1.488   3.173   0.930
 7044TIP3   OH254666   0.409   3.216   0.962
 7044TIP3    H154667   0.405   3.123   0.930
 7044TIP3    H254668   0.498   3.212   0.999
 7045TIP3   OH254669   0.147   2.569   0.539
 7045TIP3    H154670   0.133   2.664   0.532
 7045TIP3    H254671   0.077   2.546   0.602
 7046TIP3   OH254672   0.159   2.776   0.801
 7046TIP3    H154673   0.212   2.697   0.827
 7046TIP3    H254674   0.222   2.827   0.750
 7047TIP3   OH254675   1.218   3.647   0.848
 7047TIP3    H154676   1.280   3.588   0.799
 7047TIP3    H254677   1.177   3.583   0.906
 7048TIP3   OH254678   0.953   3.062   1.092
 7048TIP3    H154679   0.993   3.041   1.007
 7048TIP3    H254680   1.034   3.075   1.146
 7049TIP3   OH254681   1.824   2.206   1.103
 7049TIP3    H154682   1.831   2.259   1.184
 7049TIP3    H254683   1.907   2.232   1.059
 7050TIP3   OH254684   1.322   2.500   1.118
 7050TIP3    H154685   1.339   2.405   1.133
 7050TIP3    H254686   1.311   2.499   1.021
 7051TIP3   OH254687   0.609   2.284   0.795
 7051TIP3    H154688   0.623   2.364   0.740
 7051TIP3    H254689   0.568   2.224   0.730
 7052TIP3   OH254690   1.353   2.313   0.653
 7052TIP3    H154691   1.408   2.286   0.730
 7052TIP3    H254692   1.405   2.388   0.620
 7053TIP3   OH254693   0.291   2.555   0.870
 7053TIP3    H154694   0.362   2.524   0.930
 7053TIP3    H254695   0.309   2.499   0.791
 7054TIP3   OH254696   0.748   2.712   0.813
 7054TIP3    H154697   0.834   2.671   0.837
 7054TIP3    H254698   0.714   2.642   0.753
 7055TIP3   OH254699   1.843   2.352   1.345
 7055TIP3    H154700   1.805   2.428   1.294
 7055TIP3    H254701   1.861   2.398   1.429
 7056TIP3   OH254702   0.523   2.215   1.217
 7056TIP3    H154703   0.475   2.257   1.143
 7056TIP3    H254704   0.460   2.231   1.291
 7057TIP3   OH254705   1.193   3.139   0.555
 7057TIP3    H154706   1.179   3.144   0.459
 7057TIP3    H254707   1.142   3.218   0.586
 7058TIP3   OH254708   0.720   2.970   1.194
 7058TIP3    H154709   0.663   3.047   1.218
 7058TIP3    H254710   0.799   3.016   1.156
 7059TIP3   OH254711   1.537   2.269   0.843
 7059TIP3    H154712   1.527   2.215   0.921
 7059TIP3    H254713   1.626   2.305   0.855
 7060TIP3   OH254714   0.465   2.385   1.008
 7060TIP3    H154715   0.529   2.444   1.054
 7060TIP3    H254716   0.522   2.347   0.936
 7061TIP3   OH254717   0.589   3.194   1.293
 7061TIP3    H154718   0.574   3.291   1.287
 7061TIP3    H254719   0.507   3.164   1.337
 7062TIP3   OH254720   0.186   3.148   0.406
 7062TIP3    H154721   0.188   3.200   0.324
 7062TIP3    H254722   0.215   3.212   0.475
 7063TIP3   OH254723   1.545   3.300   1.069
 7063TIP3    H154724   1.450   3.319   1.084
 7063TIP3    H254725   1.574   3.389   1.040
 7064TIP3   OH254726   1.553   2.131   1.189
 7064TIP3    H154727   1.472   2.160   1.141
 7064TIP3    H254728   1.624   2.160   1.129
 7065TIP3   OH254729   0.836   1.935   0.960
 7065TIP3    H154730   0.805   1.844   0.952
 7065TIP3    H254731   0.753   1.980   0.988
 7066TIP3   OH254732   1.380   3.480   0.715
 7066TIP3    H154733   1.410   3.396   0.674
 7066TIP3    H254734   1.456   3.540   0.695
 7067TIP3   OH254735   1.476   3.260   0.574
 7067TIP3    H154736   1.460   3.192   0.506
 7067TIP3    H254737   1.466   3.207   0.655
 7068TIP3   OH254738   1.641   3.132   1.454
 7068TIP3    H154739   1.665   3.059   1.393
 7068TIP3    H254740   1.661   3.208   1.397
 7069TIP3   OH254741   1.093   2.816   0.405
 7069TIP3    H154742   1.032   2.892   0.393
 7069TIP3    H254743   1.178   2.850   0.371
 7070TIP3   OH254744   1.097   2.726   0.132
 7070TIP3    H154745   1.151   2.745   0.212
 7070TIP3    H254746   1.140   2.646   0.100
 7071TIP3   OH254747   1.863   2.783   1.247
 7071TIP3    H154748   1.795   2.853   1.245
 7071TIP3    H254749   1.914   2.812   1.168
 7072TIP3   OH254750   1.488   2.856   0.529
 7072TIP3    H154751   1.410   2.869   0.588
 7072TIP3    H254752   1.544   2.796   0.584
 7073TIP3   OH254753   1.457   2.666   1.441
 7073TIP3    H154754   1.430   2.753   1.475
 7073TIP3    H254755   1.401   2.662   1.362
 7074TIP3   OH254756   0.626   2.898   0.678
 7074TIP3    H154757   0.580   2.846   0.608
 7074TIP3    H254758   0.681   2.829   0.720
 7075TIP3   OH254759   0.760   3.225   0.952
 7075TIP3    H154760   0.791   3.206   0.862
 7075TIP3    H254761   0.825   3.180   1.008
 7076TIP3   OH254762   0.654   2.752   1.057
 7076TIP3    H154763   0.690   2.765   0.967
 7076TIP3    H254764   0.692   2.828   1.107
 7077TIP3   OH254765   1.283   3.341   1.123
 7077TIP3    H154766   1.250   3.415   1.176
 7077TIP3    H254767   1.268   3.266   1.183
 7078TIP3   OH254768   0.710   3.216   1.540
 7078TIP3    H154769   0.641   3.274   1.578
 7078TIP3    H254770   0.678   3.201   1.448
 7079TIP3   OH254771   1.335   2.800   0.304
 7079TIP3    H154772   1.396   2.825   0.377
 7079TIP3    H254773   1.380   2.839   0.226
 7080TIP3   OH254774   0.426   2.856   1.454
 7080TIP3    H154775   0.435   2.914   1.533
 7080TIP3    H254776   0.330   2.839   1.453
 7081TIP3   OH254777   1.077   3.368   0.645
 7081TIP3    H154778   1.120   3.424   0.709
 7081TIP3    H254779   1.045   3.431   0.579
 7082TIP3   OH254780   0.552   3.423   1.610
 7082TIP3    H154781   0.541   3.437   1.513
 7082TIP3    H254782   0.463   3.394   1.637
 7083TIP3   OH254783   1.744   1.921   0.316
 7083TIP3    H154784   1.646   1.927   0.319
 7083TIP3    H254785   1.764   2.003   0.266
 7084TIP3   OH254786   0.485   2.781   0.481
 7084TIP3    H154787   0.460   2.862   0.431
 7084TIP3    H254788   0.431   2.714   0.439
 7085TIP3   OH254789   1.806   3.326   0.087
 7085TIP3    H154790   1.835   3.419   0.081
 7085TIP3    H254791   1.893   3.285   0.106
 7086TIP3   OH254792   0.149   3.051   1.366
 7086TIP3    H154793   0.092   3.056   1.287
 7086TIP3    H254794   0.136   2.958   1.394
 7087TIP3   OH254795   0.154   3.345   0.972
 7087TIP3    H154796   0.239   3.303   0.948
 7087TIP3    H254797   0.180   3.383   1.059
 7088TIP3   OH254798   1.909   3.394   1.614
 7088TIP3    H154799   1.893   3.302   1.587
 7088TIP3    H254800   1.824   3.413   1.660
 7089TIP3   OH254801   0.956   3.343   1.504
 7089TIP3    H154802   0.968   3.436   1.533
 7089TIP3    H254803   0.862   3.324   1.521
 7090TIP3   OH254804   1.061   3.711   0.430
 7090TIP3    H154805   1.058   3.735   0.335
 7090TIP3    H254806   1.067   3.799   0.473
 7091TIP3   OH254807   0.427   3.587   0.636
 7091TIP3    H154808   0.436   3.544   0.724
 7091TIP3    H254809   0.335   3.568   0.613
 7092TIP3   OH254810   1.367   3.655   0.145
 7092TIP3    H154811   1.414   3.579   0.105
 7092TIP3    H254812   1.376   3.640   0.241
 7093TIP3   OH254813   1.342   3.632   0.427
 7093TIP3    H154814   1.246   3.652   0.434
 7093TIP3    H254815   1.349   3.550   0.480
 7094TIP3   OH254816   1.613   2.541   1.653
 7094TIP3    H154817   1.556   2.566   1.578
 7094TIP3    H254818   1.628   2.446   1.637
 7095TIP3   OH254819   0.357   3.200   1.428
 7095TIP3    H154820   0.361   3.170   1.519
 7095TIP3    H254821   0.272   3.158   1.399
 7096TIP3   OH254822   0.617   2.049   1.037
 7096TIP3    H154823   0.527   2.044   0.997
 7096TIP3    H254824   0.598   2.094   1.122
 7097TIP3   OH254825   1.111   1.986   1.371
 7097TIP3    H154826   1.133   1.942   1.456
 7097TIP3    H254827   1.013   1.994   1.375
 7098TIP3   OH254828   1.405   2.394   1.489
 7098TIP3    H154829   1.348   2.356   1.559
 7098TIP3    H254830   1.362   2.480   1.477
 7099TIP3   OH254831   1.462   2.896   0.087
 7099TIP3    H154832   1.472   2.905  -0.008
 7099TIP3    H254833   1.544   2.941   0.115
 7100TIP3   OH254834   1.061   2.290   0.119
 7100TIP3    H154835   1.010   2.296   0.201
 7100TIP3    H254836   1.037   2.201   0.089
 7101TIP3   OH254837   0.647   2.511   1.159
 7101TIP3    H154838   0.591   2.537   1.234
 7101TIP3    H254839   0.653   2.598   1.113
 7102TIP3   OH254840   0.632   2.511   0.656
 7102TIP3    H154841   0.536   2.508   0.637
 7102TIP3    H254842   0.672   2.483   0.571
 7103TIP3   OH254843   1.182   2.605   0.539
 7103TIP3    H154844   1.145   2.684   0.491
 7103TIP3    H254845   1.242   2.568   0.470
 7104TIP3   OH254846   1.026   2.631   1.719
 7104TIP3    H154847   0.989   2.540   1.730
 7104TIP3    H254848   1.111   2.625   1.767
 7105TIP3   OH254849   1.287   2.543   0.844
 7105TIP3    H154850   1.258   2.629   0.808
 7105TIP3    H254851   1.267   2.486   0.769
 7106TIP3   OH254852   0.347   2.546   1.322
 7106TIP3    H154853   0.430   2.570   1.367
 7106TIP3    H254854   0.339   2.450   1.339
 7107TIP3   OH254855   0.724   2.313   0.070
 7107TIP3    H154856   0.683   2.262   0.143
 7107TIP3    H254857   0.693   2.404   0.084
 7108TIP3   OH254858   0.114   2.244   0.750
 7108TIP3    H154859   0.206   2.244   0.782
 7108TIP3    H254860   0.122   2.257   0.654
 7109TIP3   OH254861   0.153   2.340   0.252
 7109TIP3    H154862   0.228   2.339   0.191
 7109TIP3    H254863   0.113   2.427   0.234
 7110TIP3   OH254864   1.177   2.672   1.264
 7110TIP3    H154865   1.240   2.610   1.221
 7110TIP3    H254866   1.130   2.616   1.330
 7111TIP3   OH254867   0.912   2.277   0.762
 7111TIP3    H154868   0.820   2.282   0.794
 7111TIP3    H254869   0.959   2.239   0.839
 7112TIP3   OH254870   0.360   2.414   0.645
 7112TIP3    H154871   0.300   2.441   0.572
 7112TIP3    H254872   0.398   2.328   0.612
 7113TIP3   OH254873   0.695   2.456   0.391
 7113TIP3    H154874   0.792   2.470   0.395
 7113TIP3    H254875   0.667   2.512   0.316
 7114TIP3   OH254876   1.332   2.203   1.068
 7114TIP3    H154877   1.259   2.205   1.133
 7114TIP3    H254878   1.303   2.138   1.002
 7115TIP3   OH254879   0.608   2.571   0.150
 7115TIP3    H154880   0.544   2.566   0.076
 7115TIP3    H254881   0.688   2.612   0.108
 7116TIP3   OH254882   1.620   3.776   1.734
 7116TIP3    H154883   1.659   3.825   1.658
 7116TIP3    H254884   1.701   3.770   1.787
 7117TIP3   OH254885   0.424   3.024   1.679
 7117TIP3    H154886   0.472   3.036   1.763
 7117TIP3    H254887   0.332   3.032   1.712
 7118TIP3   OH254888   0.956   2.562   0.895
 7118TIP3    H154889   1.049   2.534   0.894
 7118TIP3    H254890   0.920   2.502   0.962
 7119TIP3   OH254891   0.461   2.171   0.590
 7119TIP3    H154892   0.414   2.093   0.628
 7119TIP3    H254893   0.514   2.129   0.520
 7120TIP3   OH254894   0.895   2.387   1.180
 7120TIP3    H154895   0.815   2.440   1.165
 7120TIP3    H254896   0.951   2.447   1.232
 7121TIP3   OH254897   0.930   3.024   0.379
 7121TIP3    H154898   0.854   2.987   0.329
 7121TIP3    H254899   0.886   3.050   0.464
 7122TIP3   OH254900   1.665   2.973   1.241
 7122TIP3    H154901   1.711   3.030   1.173
 7122TIP3    H254902   1.579   2.964   1.196
 7123TIP3   OH254903   1.318   2.315   0.158
 7123TIP3    H154904   1.228   2.318   0.120
 7123TIP3    H254905   1.322   2.400   0.205
 7124TIP3   OH254906   1.015   3.066   1.474
 7124TIP3    H154907   1.025   3.046   1.568
 7124TIP3    H254908   0.986   3.159   1.478
 7125TIP3   OH254909   1.370   2.524   0.334
 7125TIP3    H154910   1.436   2.502   0.402
 7125TIP3    H254911   1.403   2.610   0.304
 7126TIP3   OH254912   0.458   2.957   0.893
 7126TIP3    H154913   0.503   2.948   0.807
 7126TIP3    H254914   0.484   2.877   0.942
 7127TIP3   OH254915   1.138   3.159   0.269
 7127TIP3    H154916   1.099   3.245   0.298
 7127TIP3    H254917   1.069   3.096   0.299
 7128TIP3   OH254918   0.145   2.798   1.463
 7128TIP3    H154919   0.156   2.739   1.541
 7128TIP3    H254920   0.123   2.736   1.391
 7129TIP3   OH254921   0.804   2.776   1.632
 7129TIP3    H154922   0.802   2.698   1.576
 7129TIP3    H254923   0.891   2.763   1.675
 7130TIP3   OH254924   1.324   3.291   1.504
 7130TIP3    H154925   1.257   3.324   1.442
 7130TIP3    H254926   1.294   3.332   1.588
 7131TIP3   OH254927   1.859   2.511   0.320
 7131TIP3    H154928   1.795   2.503   0.247
 7131TIP3    H254929   1.875   2.607   0.315
 7132TIP3   OH254930   1.881   3.108   1.590
 7132TIP3    H154931   1.786   3.126   1.575
 7132TIP3    H254932   1.918   3.102   1.499
 7133TIP3   OH254933   1.699   3.383   0.340
 7133TIP3    H154934   1.652   3.308   0.377
 7133TIP3    H254935   1.715   3.361   0.246
 7134TIP3   OH254936   1.420   2.889   1.051
 7134TIP3    H154937   1.328   2.867   1.032
 7134TIP3    H254938   1.464   2.819   0.999
 7135TIP3   OH254939   0.672   3.317   0.670
 7135TIP3    H154940   0.687   3.408   0.636
 7135TIP3    H254941   0.576   3.308   0.653
 7136TIP3   OH254942   0.245   2.794   0.206
 7136TIP3    H154943   0.327   2.846   0.199
 7136TIP3    H254944   0.181   2.844   0.153
 7137TIP3   OH254945   0.813   3.083   0.614
 7137TIP3    H154946   0.768   3.170   0.629
 7137TIP3    H254947   0.752   3.020   0.657
 7138TIP3   OH254948   0.859   3.495   1.293
 7138TIP3    H154949   0.921   3.567   1.273
 7138TIP3    H254950   0.908   3.444   1.360
 7139TIP3   OH254951   0.701   3.571   0.577
 7139TIP3    H154952   0.605   3.580   0.592
 7139TIP3    H254953   0.730   3.653   0.622
 7140TIP3   OH254954   1.176   3.081   1.245
 7140TIP3    H154955   1.134   3.066   1.333
 7140TIP3    H254956   1.233   3.003   1.235
 7141TIP3   OH254957   1.452   3.234   0.173
 7141TIP3    H154958   1.480   3.179   0.250
 7141TIP3    H254959   1.361   3.202   0.161
 7142TIP3   OH254960   1.529   3.506   1.464
 7142TIP3    H154961   1.447   3.453   1.474
 7142TIP3    H254962   1.509   3.569   1.391
 7143TIP3   OH254963   1.886   3.637   0.168
 7143TIP3    H154964   1.929   3.706   0.116
 7143TIP3    H254965   1.816   3.688   0.214
 7144TIP3   OH254966   0.332   2.273   1.402
 7144TIP3    H154967   0.263   2.302   1.464
 7144TIP3    H254968   0.326   2.177   1.412
 7145TIP3   OH254969   1.529   3.065   0.372
 7145TIP3    H154970   1.514   2.984   0.426
 7145TIP3    H254971   1.625   3.075   0.382
 7146TIP3   OH254972   0.265   3.446   1.210
 7146TIP3    H154973   0.339   3.386   1.232
 7146TIP3    H254974   0.267   3.505   1.287
 7147TIP3   OH254975   0.735   3.263   0.225
 7147TIP3    H154976   0.810   3.215   0.265
 7147TIP3    H254977   0.752   3.356   0.249
 7148TIP3   OH254978   0.419   3.007   0.297
 7148TIP3    H154979   0.337   3.033   0.344
 7148TIP3    H254980   0.439   3.088   0.247
 7149TIP3   OH254981   1.198   2.244   1.337
 7149TIP3    H154982   1.276   2.267   1.389
 7149TIP3    H254983   1.165   2.163   1.379
 7150TIP3   OH254984   1.244   2.220   0.424
 7150TIP3    H154985   1.298   2.250   0.349
 7150TIP3    H254986   1.297   2.244   0.502
 7151TIP3   OH254987   1.038   3.402   0.336
 7151TIP3    H154988   0.967   3.466   0.347
 7151TIP3    H254989   1.085   3.438   0.258
 7152TIP3   OH254990   0.956   2.410   0.516
 7152TIP3    H154991   1.032   2.472   0.530
 7152TIP3    H254992   0.942   2.369   0.603
 7153TIP3   OH254993   1.050   2.523   1.460
 7153TIP3    H154994   1.046   2.568   1.547
 7153TIP3    H254995   1.057   2.429   1.485
 7154TIP3   OH254996   1.044   2.075   0.558
 7154TIP3    H154997   1.014   2.139   0.625
 7154TIP3    H254998   1.122   2.123   0.521
 7155TIP3   OH254999   0.772   3.519   0.302
 7155TIP3    H155000   0.796   3.606   0.261
 7155TIP3    H255001   0.739   3.551   0.389
 7156TIP3   OH255002   0.621   2.207   0.299
 7156TIP3    H155003   0.613   2.289   0.351
 7156TIP3    H255004   0.714   2.186   0.323
 7157TIP3   OH255005   1.660   2.298   1.547
 7157TIP3    H155006   1.564   2.308   1.522
 7157TIP3    H255007   1.699   2.303   1.457
 7158TIP3   OH255008   1.530   2.656   0.906
 7158TIP3    H155009   1.452   2.598   0.900
 7158TIP3    H255010   1.591   2.604   0.962
 7159TIP3   OH255011   0.470   3.249   0.137
 7159TIP3    H155012   0.542   3.280   0.196
 7159TIP3    H255013   0.524   3.188   0.081
 7160TIP3   OH255014   0.315   2.563   0.058
 7160TIP3    H155015   0.315   2.645   0.110
 7160TIP3    H255016   0.228   2.528   0.080
 7161TIP3   OH255017   1.605   3.575   1.062
 7161TIP3    H155018   1.596   3.649   0.999
 7161TIP3    H255019   1.703   3.566   1.056
 7162TIP3   OH255020   0.369   2.001   0.965
 7162TIP3    H155021   0.359   1.975   0.871
 7162TIP3    H255022   0.334   1.918   1.009
 7163TIP3   OH255023   0.261   3.360   0.557
 7163TIP3    H155024   0.177   3.399   0.578
 7163TIP3    H255025   0.283   3.414   0.479
 7164TIP3   OH255026   0.193   3.683   1.719
 7164TIP3    H155027   0.231   3.646   1.802
 7164TIP3    H255028   0.145   3.608   1.682
 7165TIP3   OH255029   0.606   3.575   1.828
 7165TIP3    H155030   0.700   3.593   1.829
 7165TIP3    H255031   0.594   3.529   1.742
 7166TIP3   OH255032   1.126   3.507   0.086
 7166TIP3    H155033   1.060   3.461   0.028
 7166TIP3    H255034   1.189   3.538   0.018
 7167TIP3   OH255035   1.274   3.415   1.732
 7167TIP3    H155036   1.242   3.328   1.766
 7167TIP3    H255037   1.361   3.421   1.776
 7168TIP3   OH255038   1.540   3.457   0.012
 7168TIP3    H155039   1.505   3.386   0.070
 7168TIP3    H255040   1.635   3.436   0.021
 7169TIP3   OH255041   0.176   3.023   1.763
 7169TIP3    H155042   0.142   2.949   1.818
 7169TIP3    H255043   0.089   3.059   1.737
 7170TIP3   OH255044   0.645   3.061   0.029
 7170TIP3    H155045   0.683   3.028   0.113
 7170TIP3    H255046   0.672   2.991  -0.035
 7171TIP3   OH255047   0.827   3.040   1.709
 7171TIP3    H155048   0.797   3.101   1.638
 7171TIP3    H255049   0.821   2.951   1.668
 7172TIP3   OH255050   1.390   3.017   1.493
 7172TIP3    H155051   1.479   3.060   1.494
 7172TIP3    H255052   1.337   3.099   1.505
 7173TIP3   OH255053   0.226   2.710   1.728
 7173TIP3    H155054   0.315   2.689   1.697
 7173TIP3    H255055   0.243   2.767   1.804
 7174TIP3   OH255056   0.743   2.888   0.239
 7174TIP3    H155057   0.670   2.845   0.286
 7174TIP3    H255058   0.776   2.816   0.182
 7175TIP3   OH255059   0.593   2.649   1.390
 7175TIP3    H155060   0.548   2.729   1.425
 7175TIP3    H255061   0.680   2.687   1.367
 7176TIP3   OH255062   0.837   2.695   0.056
 7176TIP3    H155063   0.861   2.693  -0.038
 7176TIP3    H255064   0.927   2.702   0.098
 7177TIP3   OH255065   1.186   2.929   1.807
 7177TIP3    H155066   1.246   2.885   1.745
 7177TIP3    H255067   1.173   2.861   1.876
 7178TIP3   OH255068   1.743   2.966   8.485
 7178TIP3    H155069   1.717   2.981   8.393
 7178TIP3    H255070   1.764   3.055   8.516
 7179TIP3   OH255071   0.714   2.422   1.552
 7179TIP3    H155072   0.712   2.341   1.497
 7179TIP3    H255073   0.714   2.491   1.485
 7180TIP3   OH255074   0.759   2.231   1.346
 7180TIP3    H155075   0.825   2.268   1.281
 7180TIP3    H255076   0.679   2.234   1.289
 7181TIP3   OH255077   0.857   2.786   1.331
 7181TIP3    H155078   0.945   2.826   1.320
 7181TIP3    H255079   0.800   2.859   1.297
 7182TIP3   OH255080   1.279   2.561   1.845
 7182TIP3    H155081   1.291   2.471   1.878
 7182TIP3    H255082   1.367   2.600   1.858
 7183TIP3   OH255083   1.487   2.857   1.703
 7183TIP3    H155084   1.453   2.898   1.621
 7183TIP3    H255085   1.581   2.841   1.680
 7184TIP3   OH255086   0.505   2.528   1.741
 7184TIP3    H155087   0.460   2.446   1.718
 7184TIP3    H255088   0.582   2.523   1.683
 7185TIP3   OH255089   0.845   1.973   1.335
 7185TIP3    H155090   0.805   2.061   1.352
 7185TIP3    H255091   0.768   1.921   1.306
 7186TIP3   OH255092   0.911   2.399   1.728
 7186TIP3    H155093   0.855   2.367   1.802
 7186TIP3    H255094   0.845   2.394   1.654
 7187TIP3   OH255095   1.209   2.325   1.669
 7187TIP3    H155096   1.114   2.317   1.688
 7187TIP3    H255097   1.248   2.278   1.744
 7188TIP3   OH255098   1.405   2.187   1.853
 7188TIP3    H155099   1.370   2.095   1.846
 7188TIP3    H255100   1.367   2.219   1.938
 7189TIP3   OH255101   0.340   2.263   1.810
 7189TIP3    H155102   0.355   2.220   1.724
 7189TIP3    H255103   0.372   2.196   1.872
 7190TIP3   OH255104   0.776   1.915   1.595
 7190TIP3    H155105   0.857   1.871   1.625
 7190TIP3    H255106   0.798   1.932   1.501
 7191TIP3   OH255107   0.863   2.063   1.854
 7191TIP3    H155108   0.833   1.984   1.808
 7191TIP3    H255109   0.785   2.120   1.848
 7192TIP3   OH255110   0.816   3.759   0.198
 7192TIP3    H155111   0.905   3.798   0.186
 7192TIP3    H255112   0.770   3.797   0.123
 7193TIP3   OH255113   0.210   3.223   0.085
 7193TIP3    H155114   0.303   3.251   0.104
 7193TIP3    H255115   0.212   3.220  -0.013
 7194TIP3   OH255116   0.094   3.744   0.606
 7194TIP3    H155117   0.038   3.677   0.562
 7194TIP3    H255118   0.112   3.695   0.689
 7195TIP3   OH255119   0.149   3.575   0.813
 7195TIP3    H155120   0.110   3.489   0.837
 7195TIP3    H255121   0.190   3.602   0.898
 7196TIP3   OH255122   1.878   3.626   1.059
 7196TIP3    H155123   1.921   3.619   1.145
 7196TIP3    H255124   1.918   3.706   1.024
 7197TIP3   OH255125   1.827   3.606   1.371
 7197TIP3    H155126   1.789   3.531   1.321
 7197TIP3    H255127   1.862   3.559   1.449
 7198TIP3   OH255128   1.722   3.188   1.877
 7198TIP3    H155129   1.642   3.199   1.930
 7198TIP3    H255130   1.792   3.225   1.938
 7199TIP3   OH255131   1.811   3.014   0.377
 7199TIP3    H155132   1.895   3.063   0.391
 7199TIP3    H255133   1.817   2.948   0.450
 7200TIP3   OH255134   1.845   2.816   0.569
 7200TIP3    H155135   1.767   2.780   0.618
 7200TIP3    H255136   1.909   2.827   0.641
 7201TIP3   OH255137   1.819   3.090   1.065
 7201TIP3    H155138   1.892   3.033   1.034
 7201TIP3    H255139   1.857   3.181   1.057
 7202TIP3   OH255140   1.696   3.365   1.306
 7202TIP3    H155141   1.635   3.411   1.368
 7202TIP3    H255142   1.639   3.344   1.229
 7203TIP3   OH255143   1.849   2.782   0.219
 7203TIP3    H155144   1.798   2.806   0.140
 7203TIP3    H255145   1.833   2.858   0.278
 7204TIP3   OH255146   1.654   2.516   0.086
 7204TIP3    H155147   1.727   2.559   0.038
 7204TIP3    H255148   1.664   2.424   0.054
 7205TIP3   OH255149   1.640   2.681   0.664
 7205TIP3    H155150   1.622   2.591   0.634
 7205TIP3    H255151   1.614   2.676   0.758
 7206TIP3   OH255152   0.165   2.888   1.047
 7206TIP3    H155153   0.161   2.856   0.954
 7206TIP3    H255154   0.260   2.873   1.070
 7207TIP3   OH255155   1.758   2.869   1.638
 7207TIP3    H155156   1.806   2.783   1.634
 7207TIP3    H255157   1.825   2.935   1.608
 7208TIP3   OH255158   1.856   2.624   1.612
 7208TIP3    H155159   1.764   2.599   1.642
 7208TIP3    H255160   1.907   2.549   1.649
 7209TIP3   OH255161   1.647   2.270  -0.022
 7209TIP3    H155162   1.698   2.218   0.044
 7209TIP3    H255163   1.555   2.262   0.007
 7210TIP3   OH255164   1.572   2.448   0.497
 7210TIP3    H155165   1.609   2.364   0.533
 7210TIP3    H255166   1.627   2.454   0.417
 7211TIP3   OH255167   1.703   2.488   1.049
 7211TIP3    H155168   1.800   2.497   1.063
 7211TIP3    H255169   1.675   2.503   1.142
 7212TIP3   OH255170   1.681   2.560   1.304
 7212TIP3    H155171   1.593   2.581   1.343
 7212TIP3    H255172   1.724   2.648   1.301
 7213TIP3   OH255173   0.130   2.370   1.651
 7213TIP3    H155174   0.187   2.356   1.728
 7213TIP3    H255175   0.046   2.330   1.680
 7214TIP3   OH255176   1.672   2.173   0.523
 7214TIP3    H155177   1.707   2.119   0.597
 7214TIP3    H255178   1.624   2.106   0.472
 7215TIP3   OH255179   0.244   2.238   1.034
 7215TIP3    H155180   0.283   2.151   1.011
 7215TIP3    H255181   0.321   2.298   1.032
 7216TIP3   OH255182   0.100   2.525   1.072
 7216TIP3    H155183   0.157   2.498   0.997
 7216TIP3    H255184   0.135   2.614   1.088
 7217TIP3   OH255185   1.840   2.145   1.708
 7217TIP3    H155186   1.776   2.186   1.647
 7217TIP3    H255187   1.866   2.068   1.656
 7218TIP3   OH255188   1.833   2.167   0.143
 7218TIP3    H155189   1.890   2.113   0.086
 7218TIP3    H255190   1.894   2.236   0.172
 7219TIP3   OH255191   0.099   2.166   0.453
 7219TIP3    H155192   0.002   2.160   0.441
 7219TIP3    H255193   0.125   2.210   0.370
 7220TIP3   OH255194   1.578   3.661   0.689
 7220TIP3    H155195   1.650   3.651   0.624
 7220TIP3    H255196   1.619   3.715   0.759
 7221TIP3   OH255197   0.105   2.042   1.304
 7221TIP3    H155198   0.035   2.052   1.369
 7221TIP3    H255199   0.072   2.093   1.229
 7222TIP3   OH255200   0.298   3.322   1.733
 7222TIP3    H155201   0.225   3.287   1.680
 7222TIP3    H255202   0.261   3.400   1.780
 7223TIP3   OH255203   0.597   3.476   1.342
 7223TIP3    H155204   0.584   3.568   1.307
 7223TIP3    H255205   0.694   3.470   1.331
 7224TIP3   OH255206   1.008   3.601   1.588
 7224TIP3    H155207   1.017   3.586   1.684
 7224TIP3    H255208   1.098   3.633   1.567
 7225TIP3   OH255209   1.248   3.721   1.544
 7225TIP3    H155210   1.324   3.708   1.487
 7225TIP3    H255211   1.288   3.757   1.627
 7226TIP3   OH255212   1.754   1.950   1.486
 7226TIP3    H155213   1.690   2.000   1.434
 7226TIP3    H255214   1.748   1.862   1.441
 7227TIP3   OH255215   0.335   3.779   1.345
 7227TIP3    H155216   0.251   3.816   1.312
 7227TIP3    H255217   0.338   3.816   1.436
 7228TIP3   OH255218   0.581   3.722   1.235
 7228TIP3    H155219   0.496   3.746   1.279
 7228TIP3    H255220   0.587   3.790   1.165
 7229TIP3   OH255221   1.050   3.704   1.164
 7229TIP3    H155222   1.007   3.745   1.089
 7229TIP3    H255223   1.056   3.777   1.228
 7230TIP3   OH255224   1.258   3.564   1.286
 7230TIP3    H155225   1.191   3.613   1.234
 7230TIP3    H255226   1.334   3.623   1.272
 7231TIP3   OH255227   1.521   3.724   1.281
 7231TIP3    H155228   1.534   3.819   1.268
 7231TIP3    H255229   1.558   3.688   1.197
 7232TIP3   OH255230   0.310   3.643   1.026
 7232TIP3    H155231   0.278   3.583   1.096
 7232TIP3    H255232   0.389   3.593   0.995
 7233TIP3   OH255233   0.489   3.497   0.894
 7233TIP3    H155234   0.485   3.403   0.914
 7233TIP3    H255235   0.574   3.518   0.940
 7234TIP3   OH255236   0.717   3.499   1.036
 7234TIP3    H155237   0.756   3.412   1.015
 7234TIP3    H255238   0.760   3.519   1.121
 7235TIP3   OH255239   1.034   2.095   0.926
 7235TIP3    H155240   0.954   2.038   0.942
 7235TIP3    H255241   1.092   2.036   0.875
 7236TIP3   OH255242   1.624   1.916   0.901
 7236TIP3    H155243   1.691   1.967   0.850
 7236TIP3    H255244   1.538   1.951   0.865
 7237TIP3   OH255245   1.797   2.023   0.719
 7237TIP3    H155246   1.867   1.975   0.669
 7237TIP3    H255247   1.847   2.105   0.745
 7238TIP3   OH255248   0.352   1.951   0.693
 7238TIP3    H155249   0.269   1.940   0.642
 7238TIP3    H255250   0.397   1.864   0.680
 7239TIP3   OH255251   0.249   1.916   0.255
 7239TIP3    H155252   0.275   1.986   0.192
 7239TIP3    H255253   0.190   1.964   0.316
 7240TIP3   OH255254   0.773   1.928   0.674
 7240TIP3    H155255   0.858   1.942   0.630
 7240TIP3    H255256   0.786   1.969   0.761
 7241TIP3   OH255257   1.367   1.979   0.810
 7241TIP3    H155258   1.343   2.001   0.719
 7241TIP3    H255259   1.320   1.893   0.823
 7242TIP3   OH255260   1.494   1.956   0.373
 7242TIP3    H155261   1.413   2.001   0.345
 7242TIP3    H255262   1.457   1.880   0.423
 7243TIP3   OH255263   0.218   3.549   0.361
 7243TIP3    H155264   0.122   3.539   0.353
 7243TIP3    H255265   0.229   3.642   0.330
 7244TIP3   OH255266   0.390   2.124   0.120
 7244TIP3    H155267   0.458   2.085   0.064
 7244TIP3    H255268   0.443   2.184   0.174
 7245TIP3   OH255269   0.893   2.200   0.358
 7245TIP3    H155270   0.940   2.138   0.417
 7245TIP3    H255271   0.919   2.284   0.401
 7246TIP3   OH255272   1.100   3.758   0.169
 7246TIP3    H155273   1.189   3.773   0.132
 7246TIP3    H255274   1.096   3.661   0.151
 7247TIP3   OH255275   1.738   3.597   0.491
 7247TIP3    H155276   1.727   3.520   0.429
 7247TIP3    H255277   1.736   3.670   0.425
 7248TIP3   OH255278   0.326   2.013   1.596
 7248TIP3    H155279   0.262   1.947   1.630
 7248TIP3    H255280   0.402   1.999   1.658
 7249TIP3   OH255281   0.520   1.977   1.795
 7249TIP3    H155282   0.606   1.953   1.756
 7249TIP3    H255283   0.504   1.903   1.857
 7250TIP3   OH255284   0.377   3.597   0.065
 7250TIP3    H155285   0.336   3.640   0.140
 7250TIP3    H255286   0.449   3.546   0.105
 7251TIP3   OH255287   1.362   1.915   1.815
 7251TIP3    H155288   1.339   1.827   1.847
 7251TIP3    H255289   1.455   1.901   1.785
 7252TIP3   OH255290   1.677   3.505   1.693
 7252TIP3    H155291   1.606   3.482   1.631
 7252TIP3    H255292   1.663   3.602   1.694
 7253TIP3   OH255293   3.154   2.908   0.660
 7253TIP3    H155294   3.131   3.004   0.653
 7253TIP3    H255295   3.074   2.867   0.626
 7254TIP3   OH255296   3.023   2.774   1.009
 7254TIP3    H155297   3.032   2.734   1.098
 7254TIP3    H255298   2.952   2.723   0.967
 7255TIP3   OH255299   2.226   2.778   1.166
 7255TIP3    H155300   2.233   2.705   1.230
 7255TIP3    H255301   2.317   2.810   1.164
 7256TIP3   OH255302   3.343   3.104   0.861
 7256TIP3    H155303   3.318   3.028   0.916
 7256TIP3    H255304   3.358   3.173   0.928
 7257TIP3   OH255305   2.329   3.237   0.999
 7257TIP3    H155306   2.300   3.149   0.969
 7257TIP3    H255307   2.424   3.226   0.986
 7258TIP3   OH255308   2.010   2.557   0.559
 7258TIP3    H155309   1.976   2.646   0.576
 7258TIP3    H255310   1.946   2.524   0.494
 7259TIP3   OH255311   2.050   2.809   0.803
 7259TIP3    H155312   2.085   2.719   0.823
 7259TIP3    H255313   2.131   2.863   0.798
 7260TIP3   OH255314   3.099   3.652   0.853
 7260TIP3    H155315   3.162   3.594   0.803
 7260TIP3    H255316   3.079   3.591   0.925
 7261TIP3   OH255317   2.826   3.049   1.109
 7261TIP3    H155318   2.862   3.034   1.021
 7261TIP3    H255319   2.910   3.067   1.157
 7262TIP3   OH255320   3.697   2.221   1.066
 7262TIP3    H155321   3.710   2.261   1.154
 7262TIP3    H255322   3.786   2.236   1.029
 7263TIP3   OH255323   3.203   2.501   1.107
 7263TIP3    H155324   3.218   2.407   1.126
 7263TIP3    H255325   3.189   2.497   1.010
 7264TIP3   OH255326   2.495   2.286   0.785
 7264TIP3    H155327   2.508   2.367   0.732
 7264TIP3    H255328   2.447   2.230   0.722
 7265TIP3   OH255329   3.243   2.340   0.672
 7265TIP3    H155330   3.302   2.291   0.734
 7265TIP3    H255331   3.310   2.391   0.621
 7266TIP3   OH255332   2.131   2.562   0.882
 7266TIP3    H155333   2.190   2.520   0.946
 7266TIP3    H255334   2.162   2.519   0.799
 7267TIP3   OH255335   2.612   2.703   0.827
 7267TIP3    H155336   2.695   2.659   0.852
 7267TIP3    H255337   2.577   2.635   0.765
 7268TIP3   OH255338   3.723   2.344   1.329
 7268TIP3    H155339   3.681   2.429   1.302
 7268TIP3    H255340   3.762   2.370   1.414
 7269TIP3   OH255341   2.407   2.208   1.216
 7269TIP3    H155342   2.366   2.254   1.140
 7269TIP3    H255343   2.339   2.227   1.285
 7270TIP3   OH255344   3.069   3.140   0.564
 7270TIP3    H155345   3.058   3.145   0.467
 7270TIP3    H255346   3.034   3.228   0.592
 7271TIP3   OH255347   2.593   2.961   1.203
 7271TIP3    H155348   2.541   3.036   1.239
 7271TIP3    H255349   2.673   3.007   1.168
 7272TIP3   OH255350   3.437   2.249   0.830
 7272TIP3    H155351   3.439   2.194   0.910
 7272TIP3    H255352   3.513   2.306   0.850
 7273TIP3   OH255353   2.340   2.394   1.005
 7273TIP3    H155354   2.400   2.461   1.045
 7273TIP3    H255355   2.390   2.365   0.925
 7274TIP3   OH255356   2.471   3.195   1.296
 7274TIP3    H155357   2.449   3.279   1.254
 7274TIP3    H255358   2.385   3.178   1.342
 7275TIP3   OH255359   2.055   3.128   0.391
 7275TIP3    H155360   2.063   3.176   0.306
 7275TIP3    H255361   2.072   3.198   0.457
 7276TIP3   OH255362   3.439   3.313   1.070
 7276TIP3    H155363   3.345   3.332   1.089
 7276TIP3    H255364   3.463   3.399   1.029
 7277TIP3   OH255365   3.429   2.132   1.188
 7277TIP3    H155366   3.347   2.161   1.142
 7277TIP3    H255367   3.499   2.173   1.133
 7278TIP3   OH255368   2.735   1.950   0.952
 7278TIP3    H155369   2.708   1.857   0.950
 7278TIP3    H255370   2.649   1.991   0.979
 7279TIP3   OH255371   3.266   3.488   0.724
 7279TIP3    H155372   3.294   3.409   0.674
 7279TIP3    H255373   3.341   3.551   0.706
 7280TIP3   OH255374   3.362   3.266   0.573
 7280TIP3    H155375   3.357   3.195   0.507
 7280TIP3    H255376   3.344   3.216   0.654
 7281TIP3   OH255377   3.534   3.129   1.448
 7281TIP3    H155378   3.528   3.051   1.389
 7281TIP3    H255379   3.558   3.197   1.383
 7282TIP3   OH255380   2.984   2.814   0.411
 7282TIP3    H155381   2.918   2.885   0.392
 7282TIP3    H255382   3.065   2.848   0.368
 7283TIP3   OH255383   2.996   2.721   0.131
 7283TIP3    H155384   3.060   2.739   0.203
 7283TIP3    H255385   3.037   2.647   0.083
 7284TIP3   OH255386   3.732   2.788   1.229
 7284TIP3    H155387   3.659   2.853   1.230
 7284TIP3    H255388   3.790   2.827   1.160
 7285TIP3   OH255389   3.371   2.833   0.520
 7285TIP3    H155390   3.297   2.862   0.578
 7285TIP3    H255391   3.429   2.787   0.585
 7286TIP3   OH255392   3.330   2.665   1.396
 7286TIP3    H155393   3.320   2.747   1.445
 7286TIP3    H255394   3.263   2.677   1.326
 7287TIP3   OH255395   2.485   2.890   0.683
 7287TIP3    H155396   2.478   2.848   0.595
 7287TIP3    H255397   2.542   2.828   0.732
 7288TIP3   OH255398   2.636   3.231   0.968
 7288TIP3    H155399   2.656   3.213   0.876
 7288TIP3    H255400   2.698   3.173   1.017
 7289TIP3   OH255401   2.515   2.753   1.070
 7289TIP3    H155402   2.545   2.755   0.975
 7289TIP3    H255403   2.562   2.831   1.108
 7290TIP3   OH255404   3.185   3.339   1.137
 7290TIP3    H155405   3.131   3.392   1.197
 7290TIP3    H255406   3.169   3.249   1.170
 7291TIP3   OH255407   2.633   3.224   1.517
 7291TIP3    H155408   2.568   3.276   1.570
 7291TIP3    H255409   2.583   3.215   1.433
 7292TIP3   OH255410   3.220   2.796   0.296
 7292TIP3    H155411   3.275   2.810   0.376
 7292TIP3    H255412   3.273   2.838   0.225
 7293TIP3   OH255413   2.328   2.816   1.460
 7293TIP3    H155414   2.328   2.891   1.521
 7293TIP3    H255415   2.235   2.791   1.463
 7294TIP3   OH255416   2.995   3.386   0.644
 7294TIP3    H155417   3.019   3.445   0.716
 7294TIP3    H255418   2.947   3.444   0.584
 7295TIP3   OH255419   2.452   3.382   1.618
 7295TIP3    H155420   2.437   3.424   1.530
 7295TIP3    H255421   2.361   3.358   1.645
 7296TIP3   OH255422   3.629   1.925   0.307
 7296TIP3    H155423   3.531   1.928   0.309
 7296TIP3    H255424   3.647   2.009   0.261
 7297TIP3   OH255425   2.385   2.784   0.418
 7297TIP3    H155426   2.342   2.867   0.390
 7297TIP3    H255427   2.314   2.719   0.419
 7298TIP3   OH255428   3.695   3.357   0.081
 7298TIP3    H155429   3.727   3.449   0.095
 7298TIP3    H255430   3.780   3.310   0.094
 7299TIP3   OH255431   2.023   3.041   1.372
 7299TIP3    H155432   1.988   3.028   1.282
 7299TIP3    H255433   2.064   2.954   1.385
 7300TIP3   OH255434   2.002   3.318   1.026
 7300TIP3    H155435   2.080   3.264   1.010
 7300TIP3    H255436   2.036   3.383   1.089
 7301TIP3   OH255437   3.824   3.362   1.593
 7301TIP3    H155438   3.795   3.271   1.579
 7301TIP3    H255439   3.737   3.400   1.619
 7302TIP3   OH255440   2.886   3.327   1.507
 7302TIP3    H155441   2.893   3.411   1.557
 7302TIP3    H255442   2.792   3.301   1.515
 7303TIP3   OH255443   2.950   3.722   0.427
 7303TIP3    H155444   2.949   3.755   0.335
 7303TIP3    H255445   2.950   3.807   0.476
 7304TIP3   OH255446   2.314   3.589   0.649
 7304TIP3    H155447   2.335   3.560   0.740
 7304TIP3    H255448   2.225   3.553   0.634
 7305TIP3   OH255449   3.249   3.664   0.152
 7305TIP3    H155450   3.303   3.588   0.125
 7305TIP3    H255451   3.252   3.657   0.250
 7306TIP3   OH255452   3.223   3.638   0.433
 7306TIP3    H155453   3.128   3.657   0.446
 7306TIP3    H255454   3.234   3.555   0.482
 7307TIP3   OH255455   3.513   2.536   1.645
 7307TIP3    H155456   3.448   2.562   1.577
 7307TIP3    H255457   3.513   2.438   1.636
 7308TIP3   OH255458   2.245   3.180   1.441
 7308TIP3    H155459   2.249   3.146   1.533
 7308TIP3    H255460   2.159   3.142   1.412
 7309TIP3   OH255461   2.503   2.046   1.027
 7309TIP3    H155462   2.410   2.035   1.001
 7309TIP3    H255463   2.493   2.110   1.101
 7310TIP3   OH255464   2.977   2.002   1.363
 7310TIP3    H155465   3.011   1.964   1.447
 7310TIP3    H255466   2.879   1.993   1.374
 7311TIP3   OH255467   3.265   2.395   1.483
 7311TIP3    H155468   3.206   2.366   1.557
 7311TIP3    H255469   3.234   2.485   1.462
 7312TIP3   OH255470   3.358   2.893   0.089
 7312TIP3    H155471   3.361   2.916  -0.004
 7312TIP3    H255472   3.440   2.936   0.119
 7313TIP3   OH255473   2.936   2.305   0.105
 7313TIP3    H155474   2.899   2.297   0.194
 7313TIP3    H255475   2.902   2.226   0.061
 7314TIP3   OH255476   2.523   2.511   1.173
 7314TIP3    H155477   2.438   2.515   1.222
 7314TIP3    H255478   2.527   2.604   1.141
 7315TIP3   OH255479   2.510   2.512   0.643
 7315TIP3    H155480   2.413   2.504   0.633
 7315TIP3    H255481   2.543   2.498   0.552
 7316TIP3   OH255482   3.079   2.594   0.529
 7316TIP3    H155483   3.042   2.676   0.487
 7316TIP3    H255484   3.134   2.561   0.455
 7317TIP3   OH255485   2.943   2.629   1.653
 7317TIP3    H155486   2.899   2.550   1.692
 7317TIP3    H255487   3.021   2.635   1.712
 7318TIP3   OH255488   3.153   2.546   0.837
 7318TIP3    H155489   3.146   2.628   0.786
 7318TIP3    H255490   3.158   2.480   0.764
 7319TIP3   OH255491   2.276   2.525   1.291
 7319TIP3    H155492   2.300   2.559   1.378
 7319TIP3    H255493   2.242   2.436   1.316
 7320TIP3   OH255494   2.582   2.314   0.071
 7320TIP3    H155495   2.560   2.245   0.137
 7320TIP3    H255496   2.562   2.395   0.121
 7321TIP3   OH255497   1.945   2.252   0.750
 7321TIP3    H155498   2.012   2.261   0.818
 7321TIP3    H255499   1.987   2.295   0.673
 7322TIP3   OH255500   2.038   2.320   0.255
 7322TIP3    H155501   2.111   2.354   0.200
 7322TIP3    H255502   1.988   2.403   0.268
 7323TIP3   OH255503   3.082   2.686   1.256
 7323TIP3    H155504   3.130   2.613   1.210
 7323TIP3    H255505   3.016   2.633   1.308
 7324TIP3   OH255506   2.800   2.269   0.735
 7324TIP3    H155507   2.707   2.274   0.765
 7324TIP3    H255508   2.849   2.247   0.816
 7325TIP3   OH255509   2.227   2.433   0.660
 7325TIP3    H155510   2.157   2.472   0.603
 7325TIP3    H255511   2.253   2.353   0.609
 7326TIP3   OH255512   2.587   2.468   0.383
 7326TIP3    H155513   2.683   2.480   0.388
 7326TIP3    H255514   2.562   2.519   0.303
 7327TIP3   OH255515   3.208   2.207   1.061
 7327TIP3    H155516   3.143   2.208   1.134
 7327TIP3    H255517   3.163   2.156   0.991
 7328TIP3   OH255518   2.504   2.571   0.146
 7328TIP3    H155519   2.442   2.557   0.072
 7328TIP3    H255520   2.579   2.616   0.101
 7329TIP3   OH255521   3.519   3.760   1.723
 7329TIP3    H155522   3.550   3.825   1.658
 7329TIP3    H255523   3.562   3.793   1.804
 7330TIP3   OH255524   2.289   3.007   1.685
 7330TIP3    H155525   2.335   3.074   1.739
 7330TIP3    H255526   2.200   3.009   1.729
 7331TIP3   OH255527   2.851   2.549   0.910
 7331TIP3    H155528   2.946   2.529   0.895
 7331TIP3    H255529   2.821   2.477   0.966
 7332TIP3   OH255530   2.339   2.185   0.581
 7332TIP3    H155531   2.287   2.116   0.627
 7332TIP3    H255532   2.379   2.133   0.509
 7333TIP3   OH255533   2.755   2.375   1.174
 7333TIP3    H155534   2.678   2.436   1.166
 7333TIP3    H255535   2.818   2.428   1.225
 7334TIP3   OH255536   2.817   3.024   0.384
 7334TIP3    H155537   2.742   2.975   0.344
 7334TIP3    H255538   2.777   3.052   0.469
 7335TIP3   OH255539   3.540   2.977   1.234
 7335TIP3    H155540   3.593   3.030   1.169
 7335TIP3    H255541   3.459   2.963   1.182
 7336TIP3   OH255542   3.195   2.315   0.157
 7336TIP3    H155543   3.108   2.337   0.117
 7336TIP3    H255544   3.214   2.396   0.208
 7337TIP3   OH255545   2.982   3.073   1.527
 7337TIP3    H155546   2.901   3.036   1.565
 7337TIP3    H255547   2.956   3.166   1.511
 7338TIP3   OH255548   3.254   2.518   0.334
 7338TIP3    H155549   3.313   2.492   0.407
 7338TIP3    H255550   3.298   2.598   0.299
 7339TIP3   OH255551   2.319   2.975   0.899
 7339TIP3    H155552   2.373   2.973   0.818
 7339TIP3    H255553   2.360   2.905   0.952
 7340TIP3   OH255554   3.032   3.151   0.285
 7340TIP3    H155555   2.989   3.237   0.305
 7340TIP3    H255556   2.957   3.091   0.310
 7341TIP3   OH255557   2.050   2.757   1.453
 7341TIP3    H155558   1.995   2.724   1.527
 7341TIP3    H255559   1.984   2.746   1.381
 7342TIP3   OH255560   2.704   2.765   1.639
 7342TIP3    H155561   2.671   2.724   1.557
 7342TIP3    H255562   2.791   2.721   1.651
 7343TIP3   OH255563   3.224   3.290   1.488
 7343TIP3    H155564   3.147   3.321   1.439
 7343TIP3    H255565   3.201   3.329   1.576
 7344TIP3   OH255566   3.748   2.512   0.326
 7344TIP3    H155567   3.684   2.506   0.251
 7344TIP3    H255568   3.770   2.607   0.319
 7345TIP3   OH255569   3.763   3.081   1.578
 7345TIP3    H155570   3.675   3.108   1.541
 7345TIP3    H255571   3.815   3.065   1.495
 7346TIP3   OH255572   3.591   3.374   0.332
 7346TIP3    H155573   3.549   3.293   0.360
 7346TIP3    H255574   3.609   3.362   0.236
 7347TIP3   OH255575   3.300   2.882   1.054
 7347TIP3    H155576   3.208   2.857   1.034
 7347TIP3    H255577   3.347   2.813   1.005
 7348TIP3   OH255578   2.554   3.316   0.663
 7348TIP3    H155579   2.576   3.410   0.651
 7348TIP3    H255580   2.470   3.313   0.613
 7349TIP3   OH255581   2.160   2.810   0.116
 7349TIP3    H155582   2.209   2.861   0.184
 7349TIP3    H255583   2.069   2.810   0.149
 7350TIP3   OH255584   2.692   3.084   0.620
 7350TIP3    H155585   2.646   3.171   0.630
 7350TIP3    H255586   2.633   3.023   0.666
 7351TIP3   OH255587   2.744   3.496   1.311
 7351TIP3    H155588   2.805   3.558   1.266
 7351TIP3    H255589   2.801   3.462   1.382
 7352TIP3   OH255590   2.577   3.570   0.567
 7352TIP3    H155591   2.481   3.579   0.584
 7352TIP3    H255592   2.607   3.656   0.606
 7353TIP3   OH255593   3.069   3.085   1.227
 7353TIP3    H155594   3.047   3.064   1.320
 7353TIP3    H255595   3.141   3.023   1.209
 7354TIP3   OH255596   3.335   3.229   0.174
 7354TIP3    H155597   3.366   3.172   0.248
 7354TIP3    H255598   3.242   3.200   0.172
 7355TIP3   OH255599   3.392   3.544   1.487
 7355TIP3    H155600   3.309   3.493   1.483
 7355TIP3    H255601   3.388   3.594   1.403
 7356TIP3   OH255602   3.775   3.634   0.171
 7356TIP3    H155603   3.815   3.704   0.117
 7356TIP3    H255604   3.702   3.684   0.214
 7357TIP3   OH255605   2.207   2.287   1.410
 7357TIP3    H155606   2.119   2.323   1.429
 7357TIP3    H255607   2.200   2.199   1.452
 7358TIP3   OH255608   3.418   3.058   0.374
 7358TIP3    H155609   3.403   2.972   0.420
 7358TIP3    H255610   3.514   3.068   0.387
 7359TIP3   OH255611   2.151   3.455   1.241
 7359TIP3    H155612   2.217   3.384   1.243
 7359TIP3    H255613   2.181   3.509   1.317
 7360TIP3   OH255614   2.619   3.261   0.237
 7360TIP3    H155615   2.682   3.218   0.297
 7360TIP3    H255616   2.634   3.357   0.259
 7361TIP3   OH255617   2.271   2.998   0.277
 7361TIP3    H155618   2.206   3.034   0.340
 7361TIP3    H255619   2.309   3.080   0.239
 7362TIP3   OH255620   3.096   2.247   1.324
 7362TIP3    H155621   3.166   2.268   1.388
 7362TIP3    H255622   3.059   2.163   1.356
 7363TIP3   OH255623   3.130   2.227   0.462
 7363TIP3    H155624   3.165   2.272   0.385
 7363TIP3    H255625   3.168   2.278   0.538
 7364TIP3   OH255626   2.926   3.398   0.338
 7364TIP3    H155627   2.858   3.466   0.354
 7364TIP3    H255628   2.977   3.440   0.265
 7365TIP3   OH255629   2.865   2.409   0.493
 7365TIP3    H155630   2.935   2.475   0.509
 7365TIP3    H255631   2.848   2.370   0.581
 7366TIP3   OH255632   2.950   2.511   1.405
 7366TIP3    H155633   2.949   2.557   1.493
 7366TIP3    H255634   2.981   2.422   1.427
 7367TIP3   OH255635   2.928   2.075   0.561
 7367TIP3    H155636   2.889   2.137   0.627
 7367TIP3    H255637   3.006   2.129   0.530
 7368TIP3   OH255638   2.649   3.524   0.303
 7368TIP3    H155639   2.678   3.609   0.264
 7368TIP3    H255640   2.612   3.555   0.388
 7369TIP3   OH255641   2.493   2.201   0.298
 7369TIP3    H155642   2.492   2.286   0.346
 7369TIP3    H255643   2.578   2.162   0.328
 7370TIP3   OH255644   3.511   2.291   1.506
 7370TIP3    H155645   3.418   2.315   1.486
 7370TIP3    H255646   3.555   2.294   1.420
 7371TIP3   OH255647   3.411   2.642   0.900
 7371TIP3    H155648   3.333   2.585   0.908
 7371TIP3    H255649   3.479   2.594   0.952
 7372TIP3   OH255650   2.346   3.243   0.156
 7372TIP3    H155651   2.429   3.274   0.197
 7372TIP3    H255652   2.385   3.197   0.079
 7373TIP3   OH255653   2.169   2.536   0.079
 7373TIP3    H155654   2.186   2.632   0.089
 7373TIP3    H255655   2.095   2.536   0.017
 7374TIP3   OH255656   3.501   3.585   1.061
 7374TIP3    H155657   3.506   3.660   0.997
 7374TIP3    H255658   3.597   3.568   1.067
 7375TIP3   OH255659   2.242   1.998   0.974
 7375TIP3    H155660   2.244   1.983   0.877
 7375TIP3    H255661   2.220   1.908   1.006
 7376TIP3   OH255662   2.115   3.386   0.537
 7376TIP3    H155663   2.032   3.422   0.574
 7376TIP3    H255664   2.126   3.446   0.460
 7377TIP3   OH255665   2.048   3.667   1.713
 7377TIP3    H155666   2.134   3.646   1.754
 7377TIP3    H255667   2.011   3.578   1.694
 7378TIP3   OH255668   2.545   3.522   1.837
 7378TIP3    H155669   2.641   3.537   1.826
 7378TIP3    H255670   2.517   3.486   1.751
 7379TIP3   OH255671   3.010   3.519   0.103
 7379TIP3    H155672   2.948   3.459   0.056
 7379TIP3    H255673   3.072   3.543   0.032
 7380TIP3   OH255674   3.174   3.410   1.722
 7380TIP3    H155675   3.142   3.334   1.774
 7380TIP3    H255676   3.230   3.454   1.787
 7381TIP3   OH255677   3.431   3.468   0.014
 7381TIP3    H155678   3.400   3.391   0.066
 7381TIP3    H255679   3.527   3.453   0.018
 7382TIP3   OH255680   2.043   3.020   1.793
 7382TIP3    H155681   2.015   2.927   1.790
 7382TIP3    H255682   1.985   3.065   1.729
 7383TIP3   OH255683   2.518   3.050   0.017
 7383TIP3    H155684   2.584   3.043   0.088
 7383TIP3    H255685   2.563   2.995  -0.051
 7384TIP3   OH255686   2.720   3.031   1.690
 7384TIP3    H155687   2.680   3.087   1.620
 7384TIP3    H255688   2.705   2.938   1.660
 7385TIP3   OH255689   3.285   3.016   1.491
 7385TIP3    H155690   3.368   3.068   1.500
 7385TIP3    H255691   3.223   3.090   1.505
 7386TIP3   OH255692   2.101   2.731   1.794
 7386TIP3    H155693   2.153   2.729   1.712
 7386TIP3    H255694   2.147   2.664   1.847
 7387TIP3   OH255695   2.626   2.882   0.254
 7387TIP3    H155696   2.553   2.829   0.294
 7387TIP3    H255697   2.663   2.819   0.190
 7388TIP3   OH255698   2.531   2.646   1.440
 7388TIP3    H155699   2.466   2.717   1.455
 7388TIP3    H255700   2.598   2.689   1.383
 7389TIP3   OH255701   2.740   2.690   0.045
 7389TIP3    H155702   2.768   2.693  -0.048
 7389TIP3    H255703   2.828   2.696   0.091
 7390TIP3   OH255704   3.618   2.974   8.487
 7390TIP3    H155705   3.570   2.996   8.406
 7390TIP3    H255706   3.657   3.059   8.512
 7391TIP3   OH255707   2.547   2.407   1.552
 7391TIP3    H155708   2.584   2.340   1.492
 7391TIP3    H255709   2.533   2.485   1.493
 7392TIP3   OH255710   2.635   2.217   1.354
 7392TIP3    H155711   2.688   2.263   1.285
 7392TIP3    H255712   2.546   2.220   1.312
 7393TIP3   OH255713   2.746   2.798   1.355
 7393TIP3    H155714   2.832   2.826   1.322
 7393TIP3    H255715   2.686   2.864   1.314
 7394TIP3   OH255716   3.183   2.543   1.847
 7394TIP3    H155717   3.213   2.452   1.845
 7394TIP3    H255718   3.267   2.592   1.854
 7395TIP3   OH255719   3.356   2.839   1.694
 7395TIP3    H155720   3.318   2.891   1.620
 7395TIP3    H255721   3.449   2.831   1.664
 7396TIP3   OH255722   2.370   2.518   1.752
 7396TIP3    H155723   2.320   2.435   1.751
 7396TIP3    H255724   2.438   2.497   1.684
 7397TIP3   OH255725   2.709   1.963   1.365
 7397TIP3    H155726   2.677   2.056   1.359
 7397TIP3    H255727   2.637   1.916   1.321
 7398TIP3   OH255728   2.818   2.405   1.756
 7398TIP3    H155729   2.796   2.368   1.844
 7398TIP3    H255730   2.740   2.387   1.702
 7399TIP3   OH255731   3.099   2.298   1.660
 7399TIP3    H155732   3.009   2.317   1.692
 7399TIP3    H255733   3.137   2.246   1.735
 7400TIP3   OH255734   3.214   2.168   1.866
 7400TIP3    H155735   3.224   2.072   1.850
 7400TIP3    H255736   3.236   2.171   1.961
 7401TIP3   OH255737   2.226   2.292   1.786
 7401TIP3    H155738   2.223   2.226   1.714
 7401TIP3    H255739   2.199   2.238   1.862
 7402TIP3   OH255740   2.716   1.916   1.642
 7402TIP3    H155741   2.788   1.848   1.637
 7402TIP3    H255742   2.716   1.944   1.549
 7403TIP3   OH255743   2.718   2.061   1.868
 7403TIP3    H155744   2.716   1.997   1.792
 7403TIP3    H255745   2.704   2.143   1.819
 7404TIP3   OH255746   2.695   3.761   0.178
 7404TIP3    H155747   2.778   3.808   0.195
 7404TIP3    H255748   2.704   3.745   0.082
 7405TIP3   OH255749   2.055   3.199   0.121
 7405TIP3    H155750   2.151   3.217   0.127
 7405TIP3    H255751   2.049   3.176   0.027
 7406TIP3   OH255752   1.952   3.713   0.602
 7406TIP3    H155753   1.875   3.658   0.574
 7406TIP3    H255754   1.983   3.664   0.681
 7407TIP3   OH255755   2.030   3.554   0.810
 7407TIP3    H155756   1.974   3.486   0.851
 7407TIP3    H255757   2.083   3.584   0.886
 7408TIP3   OH255758   3.789   3.637   1.061
 7408TIP3    H155759   3.797   3.639   1.157
 7408TIP3    H255760   3.834   3.719   1.037
 7409TIP3   OH255761   3.718   3.604   1.356
 7409TIP3    H155762   3.684   3.520   1.316
 7409TIP3    H255763   3.766   3.569   1.433
 7410TIP3   OH255764   3.587   3.132   1.864
 7410TIP3    H155765   3.497   3.144   1.898
 7410TIP3    H255766   3.630   3.212   1.899
 7411TIP3   OH255767   3.696   3.009   0.384
 7411TIP3    H155768   3.780   3.059   0.397
 7411TIP3    H255769   3.700   2.943   0.457
 7412TIP3   OH255770   3.740   2.811   0.571
 7412TIP3    H155771   3.661   2.776   0.620
 7412TIP3    H255772   3.800   2.828   0.646
 7413TIP3   OH255773   3.700   3.093   1.062
 7413TIP3    H155774   3.769   3.030   1.031
 7413TIP3    H255775   3.745   3.179   1.055
 7414TIP3   OH255776   3.593   3.360   1.295
 7414TIP3    H155777   3.526   3.397   1.354
 7414TIP3    H255778   3.541   3.334   1.215
 7415TIP3   OH255779   3.763   2.808   0.201
 7415TIP3    H155780   3.698   2.836   0.134
 7415TIP3    H255781   3.746   2.876   0.270
 7416TIP3   OH255782   3.545   2.512   0.090
 7416TIP3    H155783   3.616   2.552   0.035
 7416TIP3    H255784   3.559   2.418   0.065
 7417TIP3   OH255785   3.532   2.685   0.671
 7417TIP3    H155786   3.515   2.596   0.637
 7417TIP3    H255787   3.507   2.675   0.765
 7418TIP3   OH255788   2.019   2.896   1.055
 7418TIP3    H155789   2.018   2.864   0.962
 7418TIP3    H255790   2.108   2.862   1.085
 7419TIP3   OH255791   3.612   2.847   1.602
 7419TIP3    H155792   3.678   2.793   1.650
 7419TIP3    H255793   3.649   2.937   1.611
 7420TIP3   OH255794   3.776   2.620   1.656
 7420TIP3    H155795   3.679   2.610   1.646
 7420TIP3    H255796   3.805   2.527   1.649
 7421TIP3   OH255797   3.531   2.266  -0.022
 7421TIP3    H155798   3.593   2.218   0.040
 7421TIP3    H255799   3.443   2.252   0.018
 7422TIP3   OH255800   3.464   2.442   0.507
 7422TIP3    H155801   3.498   2.354   0.535
 7422TIP3    H255802   3.519   2.454   0.428
 7423TIP3   OH255803   3.577   2.491   1.052
 7423TIP3    H155804   3.676   2.498   1.053
 7423TIP3    H255805   3.561   2.503   1.148
 7424TIP3   OH255806   3.577   2.563   1.313
 7424TIP3    H155807   3.493   2.580   1.361
 7424TIP3    H255808   3.611   2.654   1.293
 7425TIP3   OH255809   1.968   2.401   1.698
 7425TIP3    H155810   2.059   2.377   1.719
 7425TIP3    H255811   1.921   2.316   1.713
 7426TIP3   OH255812   3.554   2.165   0.512
 7426TIP3    H155813   3.590   2.123   0.593
 7426TIP3    H255814   3.508   2.090   0.469
 7427TIP3   OH255815   2.112   2.236   0.998
 7427TIP3    H155816   2.149   2.145   0.994
 7427TIP3    H255817   2.193   2.291   0.995
 7428TIP3   OH255818   1.962   2.528   1.082
 7428TIP3    H155819   2.003   2.500   0.997
 7428TIP3    H255820   2.009   2.612   1.095
 7429TIP3   OH255821   3.737   2.159   1.671
 7429TIP3    H155822   3.657   2.209   1.698
 7429TIP3    H255823   3.705   2.116   1.590
 7430TIP3   OH255824   3.729   2.173   0.143
 7430TIP3    H155825   3.773   2.123   0.072
 7430TIP3    H255826   3.803   2.229   0.176
 7431TIP3   OH255827   1.971   2.160   0.463
 7431TIP3    H155828   1.877   2.171   0.481
 7431TIP3    H255829   1.981   2.208   0.379
 7432TIP3   OH255830   3.457   3.666   0.684
 7432TIP3    H155831   3.532   3.646   0.624
 7432TIP3    H255832   3.495   3.724   0.753
 7433TIP3   OH255833   1.967   2.010   1.297
 7433TIP3    H155834   1.897   1.969   1.353
 7433TIP3    H255835   1.918   2.083   1.255
 7434TIP3   OH255836   2.205   3.335   1.736
 7434TIP3    H155837   2.127   3.361   1.685
 7434TIP3    H255838   2.173   3.332   1.827
 7435TIP3   OH255839   2.478   3.487   1.370
 7435TIP3    H155840   2.474   3.579   1.335
 7435TIP3    H255841   2.573   3.470   1.356
 7436TIP3   OH255842   2.897   3.598   1.608
 7436TIP3    H155843   2.912   3.585   1.705
 7436TIP3    H255844   2.985   3.635   1.585
 7437TIP3   OH255845   3.124   3.731   1.558
 7437TIP3    H155846   3.200   3.689   1.514
 7437TIP3    H255847   3.167   3.777   1.633
 7438TIP3   OH255848   3.631   1.974   1.480
 7438TIP3    H155849   3.553   2.016   1.440
 7438TIP3    H255850   3.633   1.887   1.436
 7439TIP3   OH255851   2.218   3.779   1.332
 7439TIP3    H155852   2.138   3.822   1.296
 7439TIP3    H255853   2.212   3.804   1.425
 7440TIP3   OH255854   2.450   3.722   1.225
 7440TIP3    H155855   2.356   3.742   1.247
 7440TIP3    H255856   2.468   3.790   1.158
 7441TIP3   OH255857   2.916   3.689   1.168
 7441TIP3    H155858   2.867   3.730   1.095
 7441TIP3    H255859   2.948   3.767   1.218
 7442TIP3   OH255860   3.134   3.566   1.304
 7442TIP3    H155861   3.068   3.609   1.247
 7442TIP3    H255862   3.211   3.624   1.283
 7443TIP3   OH255863   3.394   3.720   1.265
 7443TIP3    H155864   3.409   3.812   1.235
 7443TIP3    H255865   3.432   3.672   1.187
 7444TIP3   OH255866   2.186   3.628   1.019
 7444TIP3    H155867   2.166   3.569   1.094
 7444TIP3    H255868   2.274   3.594   0.990
 7445TIP3   OH255869   2.404   3.522   0.902
 7445TIP3    H155870   2.389   3.429   0.925
 7445TIP3    H255871   2.493   3.535   0.943
 7446TIP3   OH255872   2.640   3.517   1.034
 7446TIP3    H155873   2.667   3.424   1.016
 7446TIP3    H255874   2.640   3.516   1.131
 7447TIP3   OH255875   2.991   2.103   0.900
 7447TIP3    H155876   2.910   2.087   0.950
 7447TIP3    H255877   2.997   2.020   0.852
 7448TIP3   OH255878   3.514   1.914   0.897
 7448TIP3    H155879   3.574   1.973   0.846
 7448TIP3    H255880   3.424   1.949   0.871
 7449TIP3   OH255881   3.677   2.026   0.716
 7449TIP3    H155882   3.740   1.968   0.667
 7449TIP3    H255883   3.735   2.103   0.739
 7450TIP3   OH255884   2.225   1.959   0.696
 7450TIP3    H155885   2.142   1.945   0.647
 7450TIP3    H255886   2.270   1.873   0.680
 7451TIP3   OH255887   2.080   1.954   0.246
 7451TIP3    H155888   2.140   2.016   0.199
 7451TIP3    H255889   2.038   2.009   0.314
 7452TIP3   OH255890   2.654   1.930   0.674
 7452TIP3    H155891   2.739   1.941   0.628
 7452TIP3    H255892   2.669   1.973   0.759
 7453TIP3   OH255893   3.264   1.961   0.807
 7453TIP3    H155894   3.224   1.996   0.728
 7453TIP3    H255895   3.204   1.886   0.830
 7454TIP3   OH255896   3.385   1.957   0.372
 7454TIP3    H155897   3.302   2.005   0.358
 7454TIP3    H255898   3.349   1.879   0.421
 7455TIP3   OH255899   2.079   3.572   0.347
 7455TIP3    H155900   1.991   3.569   0.304
 7455TIP3    H255901   2.098   3.666   0.328
 7456TIP3   OH255902   2.265   2.089   0.112
 7456TIP3    H155903   2.351   2.046   0.103
 7456TIP3    H255904   2.290   2.177   0.145
 7457TIP3   OH255905   2.784   2.197   0.349
 7457TIP3    H155906   2.828   2.134   0.409
 7457TIP3    H255907   2.808   2.282   0.395
 7458TIP3   OH255908   2.983   3.776   0.168
 7458TIP3    H155909   3.070   3.795   0.128
 7458TIP3    H255910   2.986   3.678   0.155
 7459TIP3   OH255911   3.627   3.590   0.490
 7459TIP3    H155912   3.615   3.514   0.428
 7459TIP3    H255913   3.622   3.664   0.426
 7460TIP3   OH255914   2.175   2.041   1.629
 7460TIP3    H155915   2.131   1.954   1.640
 7460TIP3    H255916   2.263   2.023   1.670
 7461TIP3   OH255917   2.384   1.979   1.793
 7461TIP3    H155918   2.478   1.954   1.783
 7461TIP3    H255919   2.346   1.896   1.827
 7462TIP3   OH255920   2.280   3.672   0.056
 7462TIP3    H155921   2.213   3.712   0.114
 7462TIP3    H255922   2.302   3.589   0.100
 7463TIP3   OH255923   3.233   1.907   1.806
 7463TIP3    H155924   3.210   1.832   1.865
 7463TIP3    H255925   3.329   1.890   1.792
 7464TIP3   OH255926   3.598   3.493   1.646
 7464TIP3    H155927   3.510   3.485   1.603
 7464TIP3    H255928   3.594   3.587   1.670
 7465TIP3   OH255929   5.028   2.904   0.662
 7465TIP3    H155930   5.006   3.000   0.653
 7465TIP3    H255931   4.949   2.862   0.625
 7466TIP3   OH255932   4.906   2.781   1.001
 7466TIP3    H155933   4.907   2.742   1.092
 7466TIP3    H255934   4.834   2.733   0.957
 7467TIP3   OH255935   4.110   2.801   1.171
 7467TIP3    H155936   4.105   2.713   1.213
 7467TIP3    H255937   4.194   2.836   1.207
 7468TIP3   OH255938   5.236   3.098   0.874
 7468TIP3    H155939   5.212   3.026   0.935
 7468TIP3    H255940   5.254   3.171   0.934
 7469TIP3   OH255941   4.234   3.238   0.996
 7469TIP3    H155942   4.202   3.152   0.961
 7469TIP3    H255943   4.329   3.227   0.979
 7470TIP3   OH255944   3.902   2.556   0.564
 7470TIP3    H155945   3.870   2.647   0.571
 7470TIP3    H255946   3.841   2.518   0.499
 7471TIP3   OH255947   3.944   2.820   0.801
 7471TIP3    H155948   3.972   2.726   0.814
 7471TIP3    H255949   4.028   2.868   0.798
 7472TIP3   OH255950   4.990   3.646   0.852
 7472TIP3    H155951   5.051   3.587   0.802
 7472TIP3    H255952   4.966   3.582   0.921
 7473TIP3   OH255953   4.699   3.055   1.118
 7473TIP3    H155954   4.726   3.049   1.026
 7473TIP3    H255955   4.787   3.066   1.161
 7474TIP3   OH255956   5.598   2.209   1.116
 7474TIP3    H155957   5.612   2.257   1.200
 7474TIP3    H255958   5.678   2.237   1.068
 7475TIP3   OH255959   5.095   2.517   1.113
 7475TIP3    H155960   5.110   2.424   1.140
 7475TIP3    H255961   5.062   2.502   1.022
 7476TIP3   OH255962   4.377   2.286   0.787
 7476TIP3    H155963   4.391   2.369   0.736
 7476TIP3    H255964   4.328   2.234   0.720
 7477TIP3   OH255965   5.125   2.331   0.675
 7477TIP3    H155966   5.187   2.288   0.738
 7477TIP3    H255967   5.185   2.390   0.627
 7478TIP3   OH255968   4.018   2.562   0.865
 7478TIP3    H155969   4.080   2.519   0.927
 7478TIP3    H255970   4.049   2.523   0.780
 7479TIP3   OH255971   4.507   2.708   0.826
 7479TIP3    H155972   4.588   2.663   0.860
 7479TIP3    H255973   4.478   2.643   0.758
 7480TIP3   OH255974   5.600   2.339   1.359
 7480TIP3    H155975   5.570   2.423   1.318
 7480TIP3    H255976   5.619   2.370   1.450
 7481TIP3   OH255977   4.282   2.218   1.199
 7481TIP3    H155978   4.231   2.266   1.130
 7481TIP3    H255979   4.221   2.231   1.274
 7482TIP3   OH255980   4.954   3.135   0.564
 7482TIP3    H155981   4.940   3.142   0.467
 7482TIP3    H255982   4.917   3.221   0.596
 7483TIP3   OH255983   4.470   2.960   1.214
 7483TIP3    H155984   4.415   3.033   1.250
 7483TIP3    H255985   4.548   3.010   1.180
 7484TIP3   OH255986   5.337   2.237   0.828
 7484TIP3    H155987   5.329   2.196   0.915
 7484TIP3    H255988   5.411   2.296   0.841
 7485TIP3   OH255989   4.222   2.397   1.000
 7485TIP3    H155990   4.284   2.456   1.048
 7485TIP3    H255991   4.276   2.370   0.922
 7486TIP3   OH255992   4.357   3.189   1.306
 7486TIP3    H155993   4.330   3.270   1.260
 7486TIP3    H255994   4.276   3.171   1.361
 7487TIP3   OH255995   3.939   3.126   0.385
 7487TIP3    H155996   3.950   3.176   0.302
 7487TIP3    H255997   3.956   3.196   0.451
 7488TIP3   OH255998   5.321   3.311   1.076
 7488TIP3    H155999   5.226   3.331   1.090
 7488TIP3    H256000   5.347   3.396   1.035
 7489TIP3   OH256001   5.313   2.145   1.195
 7489TIP3    H156002   5.234   2.175   1.143
 7489TIP3    H256003   5.387   2.194   1.156
 7490TIP3   OH256004   4.609   1.936   0.959
 7490TIP3    H156005   4.573   1.847   0.962
 7490TIP3    H256006   4.528   1.988   0.984
 7491TIP3   OH256007   5.152   3.475   0.723
 7491TIP3    H156008   5.176   3.394   0.674
 7491TIP3    H256009   5.230   3.534   0.705
 7492TIP3   OH256010   5.269   3.255   0.574
 7492TIP3    H156011   5.241   3.191   0.507
 7492TIP3    H256012   5.247   3.207   0.656
 7493TIP3   OH256013   5.415   3.137   1.448
 7493TIP3    H156014   5.430   3.066   1.381
 7493TIP3    H256015   5.424   3.216   1.392
 7494TIP3   OH256016   4.868   2.810   0.409
 7494TIP3    H156017   4.806   2.886   0.393
 7494TIP3    H256018   4.953   2.845   0.373
 7495TIP3   OH256019   4.876   2.722   0.136
 7495TIP3    H156020   4.932   2.743   0.213
 7495TIP3    H256021   4.919   2.644   0.098
 7496TIP3   OH256022   5.620   2.777   1.238
 7496TIP3    H156023   5.549   2.843   1.224
 7496TIP3    H256024   5.680   2.802   1.165
 7497TIP3   OH256025   5.263   2.861   0.531
 7497TIP3    H156026   5.182   2.875   0.586
 7497TIP3    H256027   5.317   2.805   0.592
 7498TIP3   OH256028   5.215   2.656   1.444
 7498TIP3    H156029   5.213   2.745   1.484
 7498TIP3    H256030   5.157   2.672   1.367
 7499TIP3   OH256031   4.371   2.891   0.691
 7499TIP3    H156032   4.349   2.844   0.607
 7499TIP3    H256033   4.435   2.829   0.732
 7500TIP3   OH256034   4.519   3.232   0.965
 7500TIP3    H156035   4.533   3.207   0.873
 7500TIP3    H256036   4.581   3.176   1.016
 7501TIP3   OH256037   4.397   2.754   1.071
 7501TIP3    H156038   4.436   2.762   0.981
 7501TIP3    H256039   4.438   2.829   1.119
 7502TIP3   OH256040   5.062   3.349   1.125
 7502TIP3    H156041   5.010   3.402   1.188
 7502TIP3    H256042   5.051   3.259   1.161
 7503TIP3   OH256043   4.516   3.206   1.525
 7503TIP3    H156044   4.448   3.264   1.569
 7503TIP3    H256045   4.474   3.200   1.436
 7504TIP3   OH256046   5.110   2.803   0.306
 7504TIP3    H156047   5.168   2.825   0.381
 7504TIP3    H256048   5.159   2.843   0.230
 7505TIP3   OH256049   4.222   2.824   1.428
 7505TIP3    H156050   4.222   2.912   1.466
 7505TIP3    H256051   4.130   2.796   1.445
 7506TIP3   OH256052   4.880   3.379   0.651
 7506TIP3    H156053   4.904   3.443   0.718
 7506TIP3    H256054   4.842   3.434   0.582
 7507TIP3   OH256055   4.349   3.379   1.622
 7507TIP3    H156056   4.327   3.428   1.540
 7507TIP3    H256057   4.270   3.393   1.677
 7508TIP3   OH256058   5.514   1.922   0.316
 7508TIP3    H156059   5.416   1.929   0.315
 7508TIP3    H256060   5.537   2.004   0.270
 7509TIP3   OH256061   4.268   2.777   0.459
 7509TIP3    H156062   4.224   2.859   0.428
 7509TIP3    H256063   4.207   2.709   0.428
 7510TIP3   OH256064   5.580   3.362   0.084
 7510TIP3    H156065   5.617   3.452   0.091
 7510TIP3    H256066   5.664   3.311   0.093
 7511TIP3   OH256067   3.913   3.057   1.360
 7511TIP3    H156068   3.868   3.038   1.276
 7511TIP3    H256069   3.952   2.968   1.374
 7512TIP3   OH256070   3.879   3.329   1.008
 7512TIP3    H156071   3.955   3.273   1.029
 7512TIP3    H256072   3.897   3.406   1.064
 7513TIP3   OH256073   5.685   3.393   1.594
 7513TIP3    H156074   5.683   3.298   1.572
 7513TIP3    H256075   5.592   3.406   1.627
 7514TIP3   OH256076   4.762   3.338   1.504
 7514TIP3    H156077   4.771   3.416   1.562
 7514TIP3    H256078   4.672   3.304   1.521
 7515TIP3   OH256079   4.848   3.711   0.426
 7515TIP3    H156080   4.845   3.734   0.331
 7515TIP3    H256081   4.841   3.800   0.467
 7516TIP3   OH256082   4.207   3.592   0.644
 7516TIP3    H156083   4.224   3.564   0.737
 7516TIP3    H256084   4.118   3.556   0.627
 7517TIP3   OH256085   5.135   3.656   0.153
 7517TIP3    H156086   5.195   3.583   0.130
 7517TIP3    H256087   5.134   3.650   0.251
 7518TIP3   OH256088   5.110   3.638   0.429
 7518TIP3    H156089   5.014   3.660   0.440
 7518TIP3    H256090   5.117   3.554   0.477
 7519TIP3   OH256091   5.376   2.507   1.644
 7519TIP3    H156092   5.305   2.555   1.597
 7519TIP3    H256093   5.371   2.419   1.601
 7520TIP3   OH256094   4.141   3.172   1.453
 7520TIP3    H156095   4.151   3.147   1.548
 7520TIP3    H256096   4.047   3.151   1.434
 7521TIP3   OH256097   4.392   2.050   1.031
 7521TIP3    H156098   4.304   2.041   0.990
 7521TIP3    H256099   4.367   2.109   1.106
 7522TIP3   OH256100   4.885   1.988   1.358
 7522TIP3    H156101   4.923   1.947   1.439
 7522TIP3    H256102   4.789   1.995   1.379
 7523TIP3   OH256103   5.171   2.390   1.462
 7523TIP3    H156104   5.105   2.387   1.535
 7523TIP3    H256105   5.186   2.486   1.448
 7524TIP3   OH256106   5.241   2.893   0.093
 7524TIP3    H156107   5.256   2.894  -0.003
 7524TIP3    H256108   5.314   2.951   0.120
 7525TIP3   OH256109   4.827   2.304   0.106
 7525TIP3    H156110   4.778   2.301   0.190
 7525TIP3    H256111   4.796   2.224   0.063
 7526TIP3   OH256112   4.405   2.507   1.161
 7526TIP3    H156113   4.334   2.519   1.228
 7526TIP3    H256114   4.411   2.599   1.127
 7527TIP3   OH256115   4.402   2.510   0.646
 7527TIP3    H156116   4.305   2.509   0.634
 7527TIP3    H256117   4.434   2.491   0.555
 7528TIP3   OH256118   4.962   2.596   0.533
 7528TIP3    H156119   4.926   2.677   0.490
 7528TIP3    H256120   5.018   2.563   0.460
 7529TIP3   OH256121   4.799   2.640   1.658
 7529TIP3    H156122   4.763   2.553   1.687
 7529TIP3    H256123   4.886   2.635   1.701
 7530TIP3   OH256124   5.037   2.544   0.842
 7530TIP3    H156125   5.039   2.627   0.791
 7530TIP3    H256126   5.041   2.479   0.770
 7531TIP3   OH256127   4.144   2.526   1.285
 7531TIP3    H156128   4.190   2.567   1.359
 7531TIP3    H256129   4.117   2.440   1.321
 7532TIP3   OH256130   4.473   2.314   0.068
 7532TIP3    H156131   4.443   2.249   0.135
 7532TIP3    H256132   4.446   2.399   0.108
 7533TIP3   OH256133   3.832   2.243   0.743
 7533TIP3    H156134   3.902   2.260   0.808
 7533TIP3    H256135   3.877   2.241   0.658
 7534TIP3   OH256136   3.930   2.319   0.258
 7534TIP3    H156137   3.999   2.353   0.197
 7534TIP3    H256138   3.878   2.401   0.271
 7535TIP3   OH256139   4.962   2.711   1.249
 7535TIP3    H156140   5.021   2.644   1.208
 7535TIP3    H256141   4.904   2.654   1.305
 7536TIP3   OH256142   4.686   2.278   0.758
 7536TIP3    H156143   4.591   2.281   0.782
 7536TIP3    H256144   4.725   2.237   0.839
 7537TIP3   OH256145   4.132   2.441   0.642
 7537TIP3    H156146   4.053   2.475   0.593
 7537TIP3    H256147   4.144   2.351   0.605
 7538TIP3   OH256148   4.470   2.459   0.382
 7538TIP3    H156149   4.566   2.475   0.389
 7538TIP3    H256150   4.446   2.512   0.303
 7539TIP3   OH256151   5.096   2.212   1.057
 7539TIP3    H156152   5.033   2.206   1.132
 7539TIP3    H256153   5.062   2.145   0.996
 7540TIP3   OH256154   4.393   2.562   0.144
 7540TIP3    H156155   4.325   2.557   0.075
 7540TIP3    H256156   4.465   2.611   0.099
 7541TIP3   OH256157   5.386   3.761   1.731
 7541TIP3    H156158   5.413   3.806   1.648
 7541TIP3    H256159   5.462   3.781   1.786
 7542TIP3   OH256160   4.153   3.084   1.708
 7542TIP3    H156161   4.228   3.051   1.762
 7542TIP3    H256162   4.080   3.028   1.743
 7543TIP3   OH256163   4.738   2.564   0.907
 7543TIP3    H156164   4.828   2.535   0.884
 7543TIP3    H256165   4.704   2.491   0.961
 7544TIP3   OH256166   4.220   2.182   0.579
 7544TIP3    H156167   4.177   2.110   0.630
 7544TIP3    H256168   4.265   2.132   0.509
 7545TIP3   OH256169   4.640   2.386   1.182
 7545TIP3    H156170   4.562   2.443   1.169
 7545TIP3    H256171   4.703   2.447   1.222
 7546TIP3   OH256172   4.701   3.018   0.385
 7546TIP3    H156173   4.625   2.968   0.346
 7546TIP3    H256174   4.660   3.047   0.471
 7547TIP3   OH256175   5.440   2.976   1.238
 7547TIP3    H156176   5.486   3.033   1.172
 7547TIP3    H256177   5.353   2.968   1.195
 7548TIP3   OH256178   5.086   2.317   0.164
 7548TIP3    H156179   4.997   2.332   0.124
 7548TIP3    H256180   5.100   2.402   0.210
 7549TIP3   OH256181   4.807   3.063   1.488
 7549TIP3    H156182   4.775   3.031   1.574
 7549TIP3    H256183   4.794   3.158   1.499
 7550TIP3   OH256184   5.145   2.525   0.339
 7550TIP3    H156185   5.214   2.499   0.403
 7550TIP3    H256186   5.180   2.609   0.306
 7551TIP3   OH256187   4.210   2.978   0.905
 7551TIP3    H156188   4.265   2.962   0.826
 7551TIP3    H256189   4.238   2.908   0.966
 7552TIP3   OH256190   4.909   3.151   0.280
 7552TIP3    H156191   4.869   3.237   0.302
 7552TIP3    H256192   4.836   3.090   0.305
 7553TIP3   OH256193   3.923   2.791   1.450
 7553TIP3    H156194   3.904   2.757   1.540
 7553TIP3    H256195   3.854   2.746   1.398
 7554TIP3   OH256196   4.571   2.786   1.640
 7554TIP3    H156197   4.561   2.717   1.572
 7554TIP3    H256198   4.665   2.767   1.663
 7555TIP3   OH256199   5.101   3.288   1.498
 7555TIP3    H156200   5.018   3.312   1.454
 7555TIP3    H256201   5.086   3.335   1.583
 7556TIP3   OH256202   5.633   2.510   0.325
 7556TIP3    H156203   5.570   2.504   0.250
 7556TIP3    H256204   5.653   2.605   0.319
 7557TIP3   OH256205   5.663   3.104   1.566
 7557TIP3    H156206   5.576   3.117   1.524
 7557TIP3    H256207   5.719   3.086   1.487
 7558TIP3   OH256208   5.450   3.408   0.321
 7558TIP3    H156209   5.440   3.323   0.366
 7558TIP3    H256210   5.496   3.388   0.236
 7559TIP3   OH256211   5.187   2.888   1.058
 7559TIP3    H156212   5.095   2.862   1.039
 7559TIP3    H256213   5.234   2.818   1.009
 7560TIP3   OH256214   4.439   3.324   0.646
 7560TIP3    H156215   4.454   3.418   0.623
 7560TIP3    H256216   4.351   3.313   0.608
 7561TIP3   OH256217   4.044   2.799   0.121
 7561TIP3    H156218   4.083   2.869   0.178
 7561TIP3    H256219   3.949   2.803   0.144
 7562TIP3   OH256220   4.572   3.088   0.623
 7562TIP3    H156221   4.526   3.175   0.631
 7562TIP3    H256222   4.514   3.026   0.671
 7563TIP3   OH256223   4.642   3.517   1.324
 7563TIP3    H156224   4.709   3.575   1.285
 7563TIP3    H256225   4.695   3.465   1.387
 7564TIP3   OH256226   4.467   3.580   0.562
 7564TIP3    H156227   4.372   3.593   0.582
 7564TIP3    H256228   4.501   3.662   0.605
 7565TIP3   OH256229   4.947   3.092   1.226
 7565TIP3    H156230   4.915   3.073   1.318
 7565TIP3    H256231   4.981   3.005   1.198
 7566TIP3   OH256232   5.219   3.235   0.177
 7566TIP3    H156233   5.259   3.178   0.247
 7566TIP3    H256234   5.129   3.198   0.176
 7567TIP3   OH256235   5.267   3.542   1.464
 7567TIP3    H156236   5.179   3.503   1.446
 7567TIP3    H256237   5.276   3.606   1.389
 7568TIP3   OH256238   5.663   3.637   0.171
 7568TIP3    H156239   5.705   3.709   0.121
 7568TIP3    H256240   5.589   3.686   0.213
 7569TIP3   OH256241   4.086   2.271   1.388
 7569TIP3    H156242   4.014   2.319   1.435
 7569TIP3    H256243   4.096   2.197   1.450
 7570TIP3   OH256244   5.304   3.061   0.367
 7570TIP3    H156245   5.289   2.978   0.420
 7570TIP3    H256246   5.399   3.074   0.384
 7571TIP3   OH256247   4.049   3.458   1.249
 7571TIP3    H156248   4.114   3.387   1.260
 7571TIP3    H256249   4.058   3.506   1.332
 7572TIP3   OH256250   4.505   3.258   0.241
 7572TIP3    H156251   4.569   3.215   0.301
 7572TIP3    H256252   4.521   3.354   0.261
 7573TIP3   OH256253   4.156   2.987   0.282
 7573TIP3    H156254   4.090   3.031   0.339
 7573TIP3    H256255   4.203   3.062   0.241
 7574TIP3   OH256256   4.971   2.249   1.304
 7574TIP3    H156257   5.030   2.272   1.378
 7574TIP3    H256258   4.933   2.164   1.336
 7575TIP3   OH256259   5.016   2.230   0.454
 7575TIP3    H156260   5.057   2.280   0.382
 7575TIP3    H256261   5.053   2.271   0.535
 7576TIP3   OH256262   4.810   3.401   0.335
 7576TIP3    H156263   4.737   3.464   0.329
 7576TIP3    H256264   4.870   3.436   0.266
 7577TIP3   OH256265   4.743   2.401   0.506
 7577TIP3    H156266   4.811   2.469   0.525
 7577TIP3    H256267   4.713   2.371   0.595
 7578TIP3   OH256268   4.851   2.514   1.388
 7578TIP3    H156269   4.853   2.522   1.485
 7578TIP3    H256270   4.888   2.426   1.371
 7579TIP3   OH256271   4.813   2.080   0.557
 7579TIP3    H156272   4.782   2.145   0.623
 7579TIP3    H256273   4.894   2.128   0.524
 7580TIP3   OH256274   4.536   3.521   0.300
 7580TIP3    H156275   4.555   3.608   0.261
 7580TIP3    H256276   4.503   3.551   0.388
 7581TIP3   OH256277   4.370   2.204   0.293
 7581TIP3    H156278   4.376   2.288   0.342
 7581TIP3    H256279   4.457   2.167   0.316
 7582TIP3   OH256280   5.397   2.244   1.529
 7582TIP3    H156281   5.303   2.257   1.506
 7582TIP3    H256282   5.442   2.264   1.444
 7583TIP3   OH256283   5.291   2.648   0.910
 7583TIP3    H156284   5.214   2.592   0.931
 7583TIP3    H256285   5.361   2.605   0.963
 7584TIP3   OH256286   4.230   3.242   0.155
 7584TIP3    H156287   4.313   3.269   0.199
 7584TIP3    H256288   4.266   3.190   0.082
 7585TIP3   OH256289   4.057   2.532   0.076
 7585TIP3    H156290   4.072   2.626   0.096
 7585TIP3    H256291   3.986   2.538   0.010
 7586TIP3   OH256292   5.390   3.585   1.061
 7586TIP3    H156293   5.392   3.657   0.993
 7586TIP3    H256294   5.486   3.573   1.066
 7587TIP3   OH256295   4.131   2.004   0.969
 7587TIP3    H156296   4.122   1.987   0.873
 7587TIP3    H256297   4.112   1.915   1.006
 7588TIP3   OH256298   3.998   3.387   0.542
 7588TIP3    H156299   3.917   3.424   0.579
 7588TIP3    H256300   4.012   3.444   0.464
 7589TIP3   OH256301   3.951   3.644   1.679
 7589TIP3    H156302   4.042   3.618   1.700
 7589TIP3    H256303   3.912   3.555   1.664
 7590TIP3   OH256304   4.901   3.506   0.099
 7590TIP3    H156305   4.842   3.447   0.046
 7590TIP3    H256306   4.973   3.525   0.037
 7591TIP3   OH256307   5.052   3.417   1.726
 7591TIP3    H156308   5.014   3.330   1.756
 7591TIP3    H256309   5.136   3.415   1.777
 7592TIP3   OH256310   5.321   3.468   0.013
 7592TIP3    H156311   5.287   3.395   0.069
 7592TIP3    H256312   5.418   3.451   0.024
 7593TIP3   OH256313   3.906   2.997   1.781
 7593TIP3    H156314   3.891   2.906   1.755
 7593TIP3    H256315   3.860   3.044   1.707
 7594TIP3   OH256316   4.409   3.049   0.020
 7594TIP3    H156317   4.471   3.041   0.093
 7594TIP3    H256318   4.454   2.993  -0.048
 7595TIP3   OH256319   4.615   3.049   1.724
 7595TIP3    H156320   4.580   3.099   1.646
 7595TIP3    H256321   4.577   2.960   1.706
 7596TIP3   OH256322   5.173   3.016   1.487
 7596TIP3    H156323   5.260   3.061   1.487
 7596TIP3    H256324   5.119   3.096   1.501
 7597TIP3   OH256325   4.059   2.777   1.710
 7597TIP3    H156326   4.111   2.696   1.712
 7597TIP3    H256327   4.027   2.776   1.801
 7598TIP3   OH256328   4.511   2.877   0.252
 7598TIP3    H156329   4.438   2.827   0.292
 7598TIP3    H256330   4.546   2.814   0.186
 7599TIP3   OH256331   4.399   2.630   1.406
 7599TIP3    H156332   4.348   2.711   1.432
 7599TIP3    H256333   4.470   2.672   1.353
 7600TIP3   OH256334   4.622   2.689   0.044
 7600TIP3    H156335   4.651   2.696  -0.048
 7600TIP3    H256336   4.708   2.696   0.092
 7601TIP3   OH256337   4.962   2.935   1.806
 7601TIP3    H156338   5.008   2.889   1.734
 7601TIP3    H256339   4.918   2.861   1.854
 7602TIP3   OH256340   5.508   2.973   8.495
 7602TIP3    H156341   5.481   2.991   8.404
 7602TIP3    H256342   5.543   3.058   8.523
 7603TIP3   OH256343   4.506   2.420   1.529
 7603TIP3    H156344   4.510   2.346   1.464
 7603TIP3    H256345   4.479   2.496   1.472
 7604TIP3   OH256346   4.511   2.217   1.339
 7604TIP3    H156347   4.569   2.265   1.276
 7604TIP3    H256348   4.427   2.220   1.288
 7605TIP3   OH256349   4.641   2.791   1.328
 7605TIP3    H156350   4.722   2.844   1.328
 7605TIP3    H256351   4.576   2.860   1.302
 7606TIP3   OH256352   5.044   2.553   1.813
 7606TIP3    H156353   5.037   2.466   1.858
 7606TIP3    H256354   5.139   2.573   1.820
 7607TIP3   OH256355   5.243   2.854   1.690
 7607TIP3    H156356   5.208   2.909   1.617
 7607TIP3    H256357   5.339   2.855   1.670
 7608TIP3   OH256358   4.350   2.466   1.741
 7608TIP3    H156359   4.262   2.433   1.713
 7608TIP3    H256360   4.404   2.448   1.660
 7609TIP3   OH256361   4.598   1.965   1.341
 7609TIP3    H156362   4.561   2.057   1.348
 7609TIP3    H256363   4.517   1.917   1.316
 7610TIP3   OH256364   4.702   2.397   1.745
 7610TIP3    H156365   4.643   2.371   1.820
 7610TIP3    H256366   4.641   2.385   1.670
 7611TIP3   OH256367   4.961   2.328   1.642
 7611TIP3    H156368   4.869   2.329   1.676
 7611TIP3    H256369   5.004   2.273   1.711
 7612TIP3   OH256370   5.104   2.173   1.810
 7612TIP3    H156371   5.107   2.076   1.823
 7612TIP3    H256372   5.128   2.208   1.897
 7613TIP3   OH256373   4.117   2.310   1.744
 7613TIP3    H156374   4.091   2.224   1.703
 7613TIP3    H256375   4.113   2.285   1.839
 7614TIP3   OH256376   4.593   1.934   1.608
 7614TIP3    H156377   4.669   1.875   1.620
 7614TIP3    H256378   4.588   1.934   1.511
 7615TIP3   OH256379   4.594   2.037   1.886
 7615TIP3    H156380   4.591   1.999   1.796
 7615TIP3    H256381   4.571   2.130   1.874
 7616TIP3   OH256382   4.574   3.762   0.191
 7616TIP3    H156383   4.660   3.805   0.206
 7616TIP3    H256384   4.580   3.746   0.095
 7617TIP3   OH256385   3.932   3.218   0.108
 7617TIP3    H156386   4.029   3.227   0.111
 7617TIP3    H256387   3.922   3.186   0.018
 7618TIP3   OH256388   3.838   3.719   0.594
 7618TIP3    H156389   3.758   3.667   0.570
 7618TIP3    H256390   3.867   3.668   0.672
 7619TIP3   OH256391   3.918   3.556   0.801
 7619TIP3    H156392   3.868   3.482   0.841
 7619TIP3    H256393   3.971   3.587   0.878
 7620TIP3   OH256394   5.658   3.636   1.051
 7620TIP3    H156395   5.675   3.634   1.146
 7620TIP3    H256396   5.718   3.707   1.023
 7621TIP3   OH256397   5.601   3.595   1.374
 7621TIP3    H156398   5.568   3.516   1.327
 7621TIP3    H256399   5.647   3.552   1.448
 7622TIP3   OH256400   5.512   3.183   1.874
 7622TIP3    H156401   5.418   3.175   1.899
 7622TIP3    H256402   5.505   3.223   1.787
 7623TIP3   OH256403   5.583   3.016   0.376
 7623TIP3    H156404   5.670   3.060   0.392
 7623TIP3    H256405   5.582   2.949   0.449
 7624TIP3   OH256406   5.612   2.822   0.569
 7624TIP3    H156407   5.539   2.781   0.622
 7624TIP3    H256408   5.676   2.844   0.639
 7625TIP3   OH256409   5.596   3.086   1.058
 7625TIP3    H156410   5.663   3.015   1.044
 7625TIP3    H256411   5.641   3.166   1.026
 7626TIP3   OH256412   5.478   3.364   1.295
 7626TIP3    H156413   5.404   3.416   1.331
 7626TIP3    H256414   5.439   3.332   1.209
 7627TIP3   OH256415   5.632   2.781   0.207
 7627TIP3    H156416   5.570   2.801   0.135
 7627TIP3    H256417   5.612   2.855   0.269
 7628TIP3   OH256418   5.431   2.510   0.092
 7628TIP3    H156419   5.501   2.553   0.039
 7628TIP3    H256420   5.447   2.416   0.067
 7629TIP3   OH256421   5.413   2.676   0.669
 7629TIP3    H156422   5.391   2.587   0.636
 7629TIP3    H256423   5.384   2.670   0.763
 7630TIP3   OH256424   3.897   2.904   1.053
 7630TIP3    H156425   3.903   2.868   0.962
 7630TIP3    H256426   3.984   2.876   1.090
 7631TIP3   OH256427   5.522   2.865   1.623
 7631TIP3    H156428   5.573   2.781   1.635
 7631TIP3    H256429   5.588   2.928   1.589
 7632TIP3   OH256430   5.615   2.621   1.637
 7632TIP3    H156431   5.522   2.588   1.636
 7632TIP3    H256432   5.665   2.539   1.661
 7633TIP3   OH256433   5.419   2.267  -0.021
 7633TIP3    H156434   5.477   2.217   0.041
 7633TIP3    H256435   5.329   2.258   0.015
 7634TIP3   OH256436   5.350   2.444   0.505
 7634TIP3    H156437   5.380   2.356   0.536
 7634TIP3    H256438   5.406   2.450   0.426
 7635TIP3   OH256439   5.467   2.500   1.052
 7635TIP3    H156440   5.566   2.508   1.058
 7635TIP3    H256441   5.446   2.497   1.147
 7636TIP3   OH256442   5.460   2.562   1.318
 7636TIP3    H156443   5.385   2.590   1.373
 7636TIP3    H256444   5.502   2.648   1.293
 7637TIP3   OH256445   3.897   2.363   1.598
 7637TIP3    H156446   3.965   2.380   1.667
 7637TIP3    H256447   3.862   2.276   1.627
 7638TIP3   OH256448   5.634   1.949   1.828
 7638TIP3    H156449   5.709   1.897   1.795
 7638TIP3    H256450   5.642   2.031   1.775
 7639TIP3   OH256451   5.437   2.168   0.517
 7639TIP3    H156452   5.472   2.120   0.595
 7639TIP3    H256453   5.392   2.096   0.468
 7640TIP3   OH256454   3.999   2.236   1.014
 7640TIP3    H156455   4.038   2.147   0.997
 7640TIP3    H256456   4.076   2.295   1.009
 7641TIP3   OH256457   3.839   2.538   1.065
 7641TIP3    H156458   3.893   2.515   0.987
 7641TIP3    H256459   3.892   2.607   1.105
 7642TIP3   OH256460   5.601   2.156   1.669
 7642TIP3    H156461   5.519   2.199   1.636
 7642TIP3    H256462   5.610   2.087   1.599
 7643TIP3   OH256463   5.620   2.173   0.141
 7643TIP3    H156464   5.665   2.112   0.080
 7643TIP3    H256465   5.697   2.218   0.181
 7644TIP3   OH256466   3.845   2.138   0.450
 7644TIP3    H156467   3.747   2.135   0.452
 7644TIP3    H256468   3.862   2.198   0.375
 7645TIP3   OH256469   5.337   3.659   0.688
 7645TIP3    H156470   5.403   3.647   0.616
 7645TIP3    H256471   5.380   3.720   0.751
 7646TIP3   OH256472   3.862   2.008   1.292
 7646TIP3    H156473   3.802   1.976   1.361
 7646TIP3    H256474   3.817   2.086   1.257
 7647TIP3   OH256475   4.106   3.362   1.744
 7647TIP3    H156476   4.033   3.351   1.681
 7647TIP3    H256477   4.132   3.269   1.760
 7648TIP3   OH256478   4.379   3.500   1.363
 7648TIP3    H156479   4.375   3.588   1.320
 7648TIP3    H256480   4.477   3.484   1.359
 7649TIP3   OH256481   4.790   3.614   1.624
 7649TIP3    H156482   4.827   3.586   1.710
 7649TIP3    H256483   4.874   3.644   1.581
 7650TIP3   OH256484   5.008   3.737   1.540
 7650TIP3    H156485   5.091   3.716   1.497
 7650TIP3    H256486   5.038   3.766   1.629
 7651TIP3   OH256487   5.542   1.951   1.490
 7651TIP3    H156488   5.469   1.992   1.442
 7651TIP3    H256489   5.542   1.859   1.457
 7652TIP3   OH256490   4.097   3.788   1.326
 7652TIP3    H156491   4.022   3.821   1.271
 7652TIP3    H256492   4.077   3.830   1.410
 7653TIP3   OH256493   4.346   3.738   1.237
 7653TIP3    H156494   4.252   3.750   1.264
 7653TIP3    H256495   4.352   3.798   1.161
 7654TIP3   OH256496   4.810   3.691   1.166
 7654TIP3    H156497   4.755   3.732   1.097
 7654TIP3    H256498   4.834   3.770   1.220
 7655TIP3   OH256499   5.017   3.564   1.300
 7655TIP3    H156500   4.948   3.603   1.241
 7655TIP3    H256501   5.089   3.626   1.278
 7656TIP3   OH256502   5.293   3.721   1.270
 7656TIP3    H156503   5.296   3.813   1.236
 7656TIP3    H256504   5.326   3.673   1.190
 7657TIP3   OH256505   4.075   3.629   1.013
 7657TIP3    H156506   4.052   3.567   1.086
 7657TIP3    H256507   4.163   3.594   0.985
 7658TIP3   OH256508   4.291   3.522   0.900
 7658TIP3    H156509   4.277   3.428   0.920
 7658TIP3    H256510   4.375   3.536   0.949
 7659TIP3   OH256511   4.515   3.516   1.043
 7659TIP3    H156512   4.543   3.424   1.025
 7659TIP3    H256513   4.520   3.521   1.140
 7660TIP3   OH256514   4.812   2.098   0.923
 7660TIP3    H156515   4.735   2.038   0.939
 7660TIP3    H256516   4.871   2.040   0.874
 7661TIP3   OH256517   5.411   1.920   0.906
 7661TIP3    H156518   5.467   1.977   0.847
 7661TIP3    H256519   5.320   1.943   0.876
 7662TIP3   OH256520   5.562   2.032   0.716
 7662TIP3    H156521   5.631   1.982   0.667
 7662TIP3    H256522   5.612   2.115   0.737
 7663TIP3   OH256523   4.113   1.955   0.694
 7663TIP3    H156524   4.029   1.939   0.648
 7663TIP3    H256525   4.160   1.870   0.677
 7664TIP3   OH256526   3.971   1.952   0.241
 7664TIP3    H156527   4.028   2.018   0.196
 7664TIP3    H256528   3.928   2.004   0.311
 7665TIP3   OH256529   4.542   1.929   0.668
 7665TIP3    H156530   4.628   1.954   0.629
 7665TIP3    H256531   4.543   1.972   0.754
 7666TIP3   OH256532   5.162   1.965   0.811
 7666TIP3    H156533   5.126   2.001   0.729
 7666TIP3    H256534   5.098   1.891   0.828
 7667TIP3   OH256535   5.268   1.964   0.370
 7667TIP3    H156536   5.186   2.012   0.356
 7667TIP3    H256537   5.230   1.883   0.413
 7668TIP3   OH256538   3.984   3.571   0.342
 7668TIP3    H156539   3.893   3.564   0.305
 7668TIP3    H256540   3.997   3.666   0.322
 7669TIP3   OH256541   4.151   2.094   0.109
 7669TIP3    H156542   4.234   2.046   0.099
 7669TIP3    H256543   4.180   2.177   0.148
 7670TIP3   OH256544   4.673   2.199   0.349
 7670TIP3    H156545   4.719   2.139   0.409
 7670TIP3    H256546   4.697   2.284   0.394
 7671TIP3   OH256547   4.867   3.762   0.163
 7671TIP3    H156548   4.950   3.781   0.117
 7671TIP3    H256549   4.869   3.664   0.151
 7672TIP3   OH256550   5.505   3.600   0.490
 7672TIP3    H156551   5.490   3.526   0.425
 7672TIP3    H256552   5.508   3.675   0.427
 7673TIP3   OH256553   4.077   2.042   1.637
 7673TIP3    H156554   4.014   1.967   1.639
 7673TIP3    H256555   4.154   2.007   1.686
 7674TIP3   OH256556   4.285   1.975   1.825
 7674TIP3    H156557   4.367   1.928   1.801
 7674TIP3    H256558   4.241   1.903   1.874
 7675TIP3   OH256559   4.167   3.677   0.060
 7675TIP3    H156560   4.093   3.712   0.113
 7675TIP3    H256561   4.189   3.594   0.104
 7676TIP3   OH256562   5.121   1.903   1.804
 7676TIP3    H156563   5.085   1.814   1.815
 7676TIP3    H256564   5.216   1.888   1.782
 7677TIP3   OH256565   5.444   3.488   1.651
 7677TIP3    H156566   5.367   3.483   1.589
 7677TIP3    H256567   5.445   3.585   1.664
 7678TIP3   OH256568   6.924   2.906   0.665
 7678TIP3    H156569   6.905   3.002   0.671
 7678TIP3    H256570   6.848   2.874   0.615
 7679TIP3   OH256571   6.795   2.790   1.007
 7679TIP3    H156572   6.802   2.740   1.090
 7679TIP3    H256573   6.726   2.743   0.958
 7680TIP3   OH256574   6.010   2.793   1.175
 7680TIP3    H156575   6.007   2.712   1.229
 7680TIP3    H256576   6.097   2.829   1.200
 7681TIP3   OH256577   7.107   3.098   0.856
 7681TIP3    H156578   7.081   3.032   0.922
 7681TIP3    H256579   7.146   3.166   0.912
 7682TIP3   OH256580   6.103   3.236   0.991
 7682TIP3    H156581   6.074   3.146   0.966
 7682TIP3    H256582   6.199   3.226   0.979
 7683TIP3   OH256583   5.783   2.563   0.561
 7683TIP3    H156584   5.749   2.653   0.573
 7683TIP3    H256585   5.721   2.529   0.494
 7684TIP3   OH256586   5.828   2.808   0.807
 7684TIP3    H156587   5.863   2.717   0.825
 7684TIP3    H256588   5.908   2.863   0.802
 7685TIP3   OH256589   6.868   3.648   0.849
 7685TIP3    H156590   6.929   3.589   0.799
 7685TIP3    H256591   6.847   3.588   0.921
 7686TIP3   OH256592   6.600   3.061   1.117
 7686TIP3    H156593   6.627   3.060   1.025
 7686TIP3    H256594   6.689   3.065   1.160
 7687TIP3   OH256595   7.468   2.196   1.125
 7687TIP3    H156596   7.471   2.258   1.200
 7687TIP3    H256597   7.554   2.214   1.084
 7688TIP3   OH256598   6.987   2.514   1.115
 7688TIP3    H156599   6.994   2.420   1.140
 7688TIP3    H256600   6.946   2.503   1.027
 7689TIP3   OH256601   6.266   2.281   0.782
 7689TIP3    H156602   6.279   2.364   0.731
 7689TIP3    H256603   6.214   2.230   0.717
 7690TIP3   OH256604   7.008   2.338   0.676
 7690TIP3    H156605   7.069   2.292   0.738
 7690TIP3    H256606   7.070   2.393   0.626
 7691TIP3   OH256607   5.900   2.546   0.887
 7691TIP3    H156608   5.965   2.500   0.944
 7691TIP3    H256609   5.926   2.512   0.799
 7692TIP3   OH256610   6.384   2.699   0.824
 7692TIP3    H156611   6.468   2.658   0.852
 7692TIP3    H256612   6.352   2.630   0.762
 7693TIP3   OH256613   7.483   2.342   1.351
 7693TIP3    H156614   7.454   2.428   1.313
 7693TIP3    H256615   7.509   2.371   1.440
 7694TIP3   OH256616   6.166   2.213   1.205
 7694TIP3    H156617   6.119   2.265   1.136
 7694TIP3    H256618   6.107   2.224   1.282
 7695TIP3   OH256619   6.839   3.140   0.562
 7695TIP3    H156620   6.825   3.148   0.466
 7695TIP3    H256621   6.808   3.228   0.593
 7696TIP3   OH256622   6.367   2.960   1.203
 7696TIP3    H156623   6.313   3.036   1.234
 7696TIP3    H256624   6.448   3.008   1.175
 7697TIP3   OH256625   7.217   2.247   0.825
 7697TIP3    H156626   7.216   2.195   0.906
 7697TIP3    H256627   7.291   2.306   0.844
 7698TIP3   OH256628   6.110   2.393   1.008
 7698TIP3    H156629   6.170   2.458   1.052
 7698TIP3    H256630   6.161   2.370   0.928
 7699TIP3   OH256631   6.255   3.189   1.291
 7699TIP3    H156632   6.230   3.276   1.256
 7699TIP3    H256633   6.172   3.165   1.340
 7700TIP3   OH256634   5.825   3.133   0.383
 7700TIP3    H156635   5.835   3.187   0.303
 7700TIP3    H256636   5.839   3.199   0.455
 7701TIP3   OH256637   7.203   3.303   1.052
 7701TIP3    H156638   7.114   3.327   1.086
 7701TIP3    H256639   7.222   3.388   1.007
 7702TIP3   OH256640   7.191   2.135   1.199
 7702TIP3    H156641   7.121   2.173   1.141
 7702TIP3    H256642   7.272   2.173   1.161
 7703TIP3   OH256643   6.502   1.943   0.958
 7703TIP3    H156644   6.475   1.852   0.944
 7703TIP3    H256645   6.414   1.983   0.981
 7704TIP3   OH256646   7.035   3.479   0.731
 7704TIP3    H156647   7.064   3.401   0.679
 7704TIP3    H256648   7.110   3.541   0.713
 7705TIP3   OH256649   7.126   3.261   0.572
 7705TIP3    H156650   7.121   3.189   0.506
 7705TIP3    H256651   7.109   3.211   0.654
 7706TIP3   OH256652   7.313   3.123   1.452
 7706TIP3    H156653   7.315   3.051   1.384
 7706TIP3    H256654   7.318   3.201   1.394
 7707TIP3   OH256655   6.756   2.816   0.413
 7707TIP3    H156656   6.692   2.888   0.393
 7707TIP3    H256657   6.839   2.851   0.371
 7708TIP3   OH256658   6.767   2.725   0.134
 7708TIP3    H156659   6.825   2.746   0.210
 7708TIP3    H256660   6.813   2.650   0.093
 7709TIP3   OH256661   7.508   2.785   1.248
 7709TIP3    H156662   7.432   2.840   1.220
 7709TIP3    H256663   7.574   2.812   1.179
 7710TIP3   OH256664   7.146   2.832   0.522
 7710TIP3    H156665   7.073   2.862   0.582
 7710TIP3    H256666   7.204   2.783   0.585
 7711TIP3   OH256667   7.124   2.659   1.447
 7711TIP3    H156668   7.109   2.752   1.469
 7711TIP3    H256669   7.069   2.653   1.368
 7712TIP3   OH256670   6.250   2.885   0.687
 7712TIP3    H156671   6.240   2.842   0.600
 7712TIP3    H256672   6.312   2.823   0.733
 7713TIP3   OH256673   6.404   3.233   0.965
 7713TIP3    H156674   6.429   3.210   0.874
 7713TIP3    H256675   6.460   3.176   1.021
 7714TIP3   OH256676   6.283   2.757   1.062
 7714TIP3    H156677   6.313   2.757   0.968
 7714TIP3    H256678   6.334   2.831   1.103
 7715TIP3   OH256679   6.958   3.353   1.140
 7715TIP3    H156680   6.897   3.405   1.194
 7715TIP3    H256681   6.941   3.262   1.172
 7716TIP3   OH256682   6.402   3.217   1.512
 7716TIP3    H156683   6.332   3.265   1.563
 7716TIP3    H256684   6.355   3.205   1.426
 7717TIP3   OH256685   6.991   2.799   0.304
 7717TIP3    H156686   7.052   2.809   0.381
 7717TIP3    H256687   7.042   2.839   0.230
 7718TIP3   OH256688   6.104   2.811   1.464
 7718TIP3    H156689   6.121   2.878   1.533
 7718TIP3    H256690   6.017   2.783   1.495
 7719TIP3   OH256691   6.771   3.388   0.645
 7719TIP3    H156692   6.791   3.444   0.720
 7719TIP3    H256693   6.718   3.445   0.588
 7720TIP3   OH256694   6.225   3.385   1.624
 7720TIP3    H156695   6.213   3.424   1.534
 7720TIP3    H256696   6.132   3.366   1.649
 7721TIP3   OH256697   7.399   1.919   0.316
 7721TIP3    H156698   7.302   1.926   0.327
 7721TIP3    H256699   7.418   2.006   0.278
 7722TIP3   OH256700   6.158   2.785   0.430
 7722TIP3    H156701   6.113   2.867   0.402
 7722TIP3    H256702   6.091   2.717   0.417
 7723TIP3   OH256703   7.465   3.365   0.089
 7723TIP3    H156704   7.498   3.456   0.102
 7723TIP3    H256705   7.551   3.318   0.095
 7724TIP3   OH256706   5.804   3.055   1.352
 7724TIP3    H156707   5.756   3.036   1.270
 7724TIP3    H256708   5.843   2.965   1.366
 7725TIP3   OH256709   5.779   3.321   1.018
 7725TIP3    H156710   5.866   3.284   1.001
 7725TIP3    H256711   5.800   3.385   1.087
 7726TIP3   OH256712   7.589   3.380   1.585
 7726TIP3    H156713   7.569   3.286   1.583
 7726TIP3    H256714   7.502   3.416   1.614
 7727TIP3   OH256715   6.641   3.343   1.505
 7727TIP3    H156716   6.665   3.409   1.573
 7727TIP3    H256717   6.548   3.318   1.526
 7728TIP3   OH256718   6.722   3.713   0.429
 7728TIP3    H156719   6.726   3.736   0.334
 7728TIP3    H256720   6.721   3.802   0.471
 7729TIP3   OH256721   6.084   3.588   0.648
 7729TIP3    H156722   6.108   3.559   0.739
 7729TIP3    H256723   5.993   3.555   0.637
 7730TIP3   OH256724   7.022   3.657   0.158
 7730TIP3    H156725   7.079   3.582   0.131
 7730TIP3    H256726   7.024   3.650   0.255
 7731TIP3   OH256727   6.990   3.638   0.438
 7731TIP3    H156728   6.893   3.656   0.446
 7731TIP3    H256729   6.995   3.549   0.478
 7732TIP3   OH256730   7.300   2.535   1.626
 7732TIP3    H156731   7.221   2.571   1.580
 7732TIP3    H256732   7.290   2.439   1.612
 7733TIP3   OH256733   6.031   3.179   1.428
 7733TIP3    H156734   6.037   3.144   1.519
 7733TIP3    H256735   5.942   3.146   1.401
 7734TIP3   OH256736   6.267   2.038   1.034
 7734TIP3    H156737   6.176   2.044   1.000
 7734TIP3    H256738   6.257   2.094   1.115
 7735TIP3   OH256739   6.763   2.008   1.349
 7735TIP3    H156740   6.785   1.979   1.438
 7735TIP3    H256741   6.665   2.012   1.351
 7736TIP3   OH256742   7.033   2.384   1.499
 7736TIP3    H156743   6.967   2.347   1.564
 7736TIP3    H256744   7.012   2.478   1.502
 7737TIP3   OH256745   7.120   2.894   0.092
 7737TIP3    H156746   7.143   2.892  -0.002
 7737TIP3    H256747   7.189   2.954   0.125
 7738TIP3   OH256748   6.710   2.305   0.108
 7738TIP3    H156749   6.661   2.297   0.192
 7738TIP3    H256750   6.688   2.223   0.064
 7739TIP3   OH256751   6.290   2.516   1.167
 7739TIP3    H156752   6.209   2.521   1.223
 7739TIP3    H256753   6.289   2.606   1.127
 7740TIP3   OH256754   6.282   2.508   0.647
 7740TIP3    H156755   6.186   2.515   0.631
 7740TIP3    H256756   6.316   2.499   0.555
 7741TIP3   OH256757   6.848   2.596   0.532
 7741TIP3    H156758   6.809   2.679   0.494
 7741TIP3    H256759   6.905   2.569   0.458
 7742TIP3   OH256760   6.703   2.642   1.696
 7742TIP3    H156761   6.676   2.549   1.717
 7742TIP3    H256762   6.791   2.643   1.737
 7743TIP3   OH256763   6.905   2.540   0.848
 7743TIP3    H156764   6.915   2.618   0.790
 7743TIP3    H256765   6.918   2.469   0.782
 7744TIP3   OH256766   6.043   2.523   1.285
 7744TIP3    H156767   6.074   2.561   1.369
 7744TIP3    H256768   6.001   2.440   1.314
 7745TIP3   OH256769   6.354   2.318   0.067
 7745TIP3    H156770   6.334   2.249   0.134
 7745TIP3    H256771   6.331   2.400   0.116
 7746TIP3   OH256772   5.717   2.259   0.746
 7746TIP3    H156773   5.782   2.268   0.818
 7746TIP3    H256774   5.762   2.294   0.669
 7747TIP3   OH256775   5.817   2.321   0.261
 7747TIP3    H156776   5.886   2.352   0.199
 7747TIP3    H256777   5.764   2.402   0.271
 7748TIP3   OH256778   6.844   2.689   1.265
 7748TIP3    H156779   6.901   2.622   1.222
 7748TIP3    H256780   6.785   2.634   1.322
 7749TIP3   OH256781   6.574   2.276   0.750
 7749TIP3    H156782   6.481   2.278   0.778
 7749TIP3    H256783   6.620   2.231   0.824
 7750TIP3   OH256784   5.999   2.430   0.659
 7750TIP3    H156785   5.930   2.469   0.601
 7750TIP3    H256786   6.024   2.348   0.610
 7751TIP3   OH256787   6.359   2.468   0.382
 7751TIP3    H156788   6.455   2.479   0.385
 7751TIP3    H256789   6.332   2.520   0.303
 7752TIP3   OH256790   6.983   2.222   1.054
 7752TIP3    H156791   6.920   2.211   1.129
 7752TIP3    H256792   6.953   2.155   0.991
 7753TIP3   OH256793   6.279   2.572   0.147
 7753TIP3    H156794   6.217   2.560   0.074
 7753TIP3    H256795   6.354   2.619   0.104
 7754TIP3   OH256796   7.279   3.774   1.723
 7754TIP3    H156797   7.317   3.812   1.641
 7754TIP3    H256798   7.356   3.784   1.782
 7755TIP3   OH256799   6.068   3.026   1.658
 7755TIP3    H156800   6.132   3.057   1.726
 7755TIP3    H256801   5.988   3.009   1.710
 7756TIP3   OH256802   6.620   2.557   0.898
 7756TIP3    H156803   6.715   2.538   0.881
 7756TIP3    H256804   6.598   2.494   0.967
 7757TIP3   OH256805   6.107   2.181   0.579
 7757TIP3    H156806   6.060   2.114   0.634
 7757TIP3    H256807   6.155   2.124   0.517
 7758TIP3   OH256808   6.524   2.380   1.181
 7758TIP3    H156809   6.445   2.435   1.166
 7758TIP3    H256810   6.582   2.439   1.231
 7759TIP3   OH256811   6.593   3.025   0.386
 7759TIP3    H156812   6.518   2.978   0.345
 7759TIP3    H256813   6.552   3.052   0.472
 7760TIP3   OH256814   7.321   2.979   1.229
 7760TIP3    H156815   7.373   3.036   1.167
 7760TIP3    H256816   7.241   2.965   1.175
 7761TIP3   OH256817   6.970   2.316   0.158
 7761TIP3    H156818   6.883   2.336   0.118
 7761TIP3    H256819   6.990   2.401   0.203
 7762TIP3   OH256820   6.706   3.083   1.464
 7762TIP3    H156821   6.693   3.051   1.554
 7762TIP3    H256822   6.668   3.172   1.466
 7763TIP3   OH256823   7.039   2.524   0.327
 7763TIP3    H156824   7.103   2.504   0.399
 7763TIP3    H256825   7.071   2.610   0.294
 7764TIP3   OH256826   6.090   2.973   0.897
 7764TIP3    H156827   6.147   2.965   0.818
 7764TIP3    H256828   6.127   2.904   0.955
 7765TIP3   OH256829   6.796   3.165   0.276
 7765TIP3    H156830   6.752   3.251   0.298
 7765TIP3    H256831   6.726   3.101   0.305
 7766TIP3   OH256832   5.797   2.799   1.468
 7766TIP3    H156833   5.782   2.747   1.549
 7766TIP3    H256834   5.741   2.755   1.402
 7767TIP3   OH256835   6.464   2.778   1.629
 7767TIP3    H156836   6.435   2.732   1.549
 7767TIP3    H256837   6.552   2.737   1.643
 7768TIP3   OH256838   6.998   3.284   1.507
 7768TIP3    H156839   6.931   3.289   1.438
 7768TIP3    H256840   6.956   3.341   1.575
 7769TIP3   OH256841   7.516   2.508   0.324
 7769TIP3    H156842   7.450   2.506   0.251
 7769TIP3    H256843   7.543   2.601   0.317
 7770TIP3   OH256844   7.560   3.094   1.571
 7770TIP3    H156845   7.469   3.101   1.534
 7770TIP3    H256846   7.612   3.086   1.488
 7771TIP3   OH256847   7.355   3.386   0.339
 7771TIP3    H156848   7.312   3.303   0.358
 7771TIP3    H256849   7.381   3.380   0.245
 7772TIP3   OH256850   7.077   2.892   1.054
 7772TIP3    H156851   6.987   2.858   1.037
 7772TIP3    H256852   7.131   2.825   1.010
 7773TIP3   OH256853   6.321   3.320   0.653
 7773TIP3    H156854   6.333   3.415   0.629
 7773TIP3    H256855   6.233   3.306   0.615
 7774TIP3   OH256856   5.935   2.801   0.113
 7774TIP3    H156857   5.976   2.863   0.178
 7774TIP3    H256858   5.842   2.798   0.142
 7775TIP3   OH256859   6.459   3.084   0.624
 7775TIP3    H156860   6.412   3.170   0.632
 7775TIP3    H256861   6.401   3.022   0.671
 7776TIP3   OH256862   6.520   3.508   1.311
 7776TIP3    H156863   6.586   3.572   1.277
 7776TIP3    H256864   6.574   3.456   1.373
 7777TIP3   OH256865   6.343   3.577   0.560
 7777TIP3    H156866   6.247   3.585   0.580
 7777TIP3    H256867   6.373   3.660   0.603
 7778TIP3   OH256868   6.851   3.094   1.230
 7778TIP3    H156869   6.809   3.074   1.318
 7778TIP3    H256870   6.915   3.021   1.224
 7779TIP3   OH256871   7.106   3.229   0.173
 7779TIP3    H156872   7.133   3.175   0.250
 7779TIP3    H256873   7.012   3.204   0.169
 7780TIP3   OH256874   7.175   3.535   1.475
 7780TIP3    H156875   7.087   3.492   1.473
 7780TIP3    H256876   7.169   3.598   1.399
 7781TIP3   OH256877   7.544   3.636   0.172
 7781TIP3    H156878   7.582   3.708   0.119
 7781TIP3    H256879   7.473   3.687   0.217
 7782TIP3   OH256880   5.975   2.271   1.416
 7782TIP3    H156881   5.919   2.325   1.475
 7782TIP3    H256882   5.949   2.183   1.448
 7783TIP3   OH256883   7.195   3.059   0.375
 7783TIP3    H156884   7.184   2.971   0.420
 7783TIP3    H256885   7.291   3.073   0.387
 7784TIP3   OH256886   5.926   3.463   1.245
 7784TIP3    H156887   5.991   3.391   1.247
 7784TIP3    H256888   5.939   3.500   1.333
 7785TIP3   OH256889   6.388   3.262   0.246
 7785TIP3    H156890   6.453   3.217   0.301
 7785TIP3    H256891   6.409   3.357   0.260
 7786TIP3   OH256892   6.039   2.994   0.280
 7786TIP3    H156893   5.972   3.036   0.337
 7786TIP3    H256894   6.085   3.071   0.243
 7787TIP3   OH256895   6.857   2.280   1.303
 7787TIP3    H156896   6.922   2.307   1.371
 7787TIP3    H256897   6.820   2.197   1.339
 7788TIP3   OH256898   6.903   2.225   0.458
 7788TIP3    H156899   6.940   2.269   0.381
 7788TIP3    H256900   6.933   2.281   0.534
 7789TIP3   OH256901   6.689   3.404   0.335
 7789TIP3    H156902   6.620   3.469   0.355
 7789TIP3    H256903   6.738   3.450   0.264
 7790TIP3   OH256904   6.642   2.402   0.499
 7790TIP3    H156905   6.706   2.474   0.517
 7790TIP3    H256906   6.617   2.371   0.587
 7791TIP3   OH256907   6.709   2.528   1.440
 7791TIP3    H156908   6.702   2.564   1.531
 7791TIP3    H256909   6.733   2.435   1.451
 7792TIP3   OH256910   6.698   2.080   0.557
 7792TIP3    H156911   6.662   2.140   0.626
 7792TIP3    H256912   6.776   2.133   0.527
 7793TIP3   OH256913   6.417   3.523   0.302
 7793TIP3    H156914   6.439   3.610   0.263
 7793TIP3    H256915   6.381   3.553   0.388
 7794TIP3   OH256916   6.264   2.205   0.293
 7794TIP3    H156917   6.269   2.287   0.346
 7794TIP3    H256918   6.349   2.163   0.318
 7795TIP3   OH256919   7.283   2.269   1.542
 7795TIP3    H156920   7.186   2.277   1.528
 7795TIP3    H256921   7.316   2.282   1.451
 7796TIP3   OH256922   7.174   2.639   0.900
 7796TIP3    H156923   7.102   2.578   0.919
 7796TIP3    H256924   7.248   2.600   0.953
 7797TIP3   OH256925   6.116   3.239   0.157
 7797TIP3    H156926   6.198   3.268   0.201
 7797TIP3    H256927   6.157   3.190   0.083
 7798TIP3   OH256928   5.951   2.527   0.067
 7798TIP3    H156929   5.969   2.622   0.080
 7798TIP3    H256930   5.869   2.531   0.016
 7799TIP3   OH256931   7.263   3.575   1.064
 7799TIP3    H156932   7.265   3.645   0.997
 7799TIP3    H256933   7.360   3.563   1.075
 7800TIP3   OH256934   6.004   1.998   0.970
 7800TIP3    H156935   6.008   1.982   0.873
 7800TIP3    H256936   5.984   1.907   1.001
 7801TIP3   OH256937   5.860   3.363   0.534
 7801TIP3    H156938   5.797   3.421   0.578
 7801TIP3    H256939   5.895   3.426   0.467
 7802TIP3   OH256940   5.811   3.673   1.687
 7802TIP3    H156941   5.903   3.649   1.670
 7802TIP3    H256942   5.768   3.586   1.680
 7803TIP3   OH256943   6.325   3.524   1.873
 7803TIP3    H156944   6.407   3.471   1.871
 7803TIP3    H256945   6.283   3.496   1.790
 7804TIP3   OH256946   6.783   3.514   0.095
 7804TIP3    H156947   6.721   3.456   0.044
 7804TIP3    H256948   6.846   3.538   0.025
 7805TIP3   OH256949   6.938   3.430   1.734
 7805TIP3    H156950   6.915   3.339   1.766
 7805TIP3    H256951   7.033   3.433   1.759
 7806TIP3   OH256952   7.204   3.468   0.015
 7806TIP3    H156953   7.169   3.393   0.067
 7806TIP3    H256954   7.300   3.449   0.027
 7807TIP3   OH256955   5.795   2.994   1.770
 7807TIP3    H156956   5.783   2.899   1.754
 7807TIP3    H256957   5.754   3.038   1.692
 7808TIP3   OH256958   6.301   3.052   0.023
 7808TIP3    H156959   6.356   3.032   0.100
 7808TIP3    H256960   6.341   2.993  -0.043
 7809TIP3   OH256961   6.492   3.035   1.684
 7809TIP3    H156962   6.456   3.095   1.615
 7809TIP3    H256963   6.487   2.946   1.642
 7810TIP3   OH256964   7.061   3.010   1.498
 7810TIP3    H156965   7.149   3.054   1.501
 7810TIP3    H256966   7.008   3.090   1.515
 7811TIP3   OH256967   5.918   2.740   1.758
 7811TIP3    H156968   5.973   2.664   1.786
 7811TIP3    H256969   5.940   2.806   1.826
 7812TIP3   OH256970   6.399   2.880   0.253
 7812TIP3    H156971   6.325   2.830   0.293
 7812TIP3    H256972   6.433   2.816   0.187
 7813TIP3   OH256973   6.302   2.642   1.416
 7813TIP3    H156974   6.242   2.718   1.434
 7813TIP3    H256975   6.374   2.685   1.364
 7814TIP3   OH256976   6.515   2.690   0.043
 7814TIP3    H156977   6.549   2.691  -0.049
 7814TIP3    H256978   6.599   2.700   0.093
 7815TIP3   OH256979   6.853   2.940   1.810
 7815TIP3    H156980   6.922   2.872   1.804
 7815TIP3    H256981   6.782   2.891   1.853
 7816TIP3   OH256982   7.402   2.969   8.487
 7816TIP3    H156983   7.366   2.988   8.399
 7816TIP3    H256984   7.431   3.057   8.516
 7817TIP3   OH256985   6.385   2.426   1.550
 7817TIP3    H156986   6.385   2.353   1.484
 7817TIP3    H256987   6.370   2.504   1.493
 7818TIP3   OH256988   6.394   2.226   1.347
 7818TIP3    H156989   6.449   2.268   1.277
 7818TIP3    H256990   6.308   2.226   1.302
 7819TIP3   OH256991   6.526   2.793   1.335
 7819TIP3    H156992   6.611   2.822   1.299
 7819TIP3    H256993   6.467   2.864   1.303
 7820TIP3   OH256994   6.969   2.534   1.846
 7820TIP3    H156995   6.967   2.474   1.921
 7820TIP3    H256996   7.030   2.603   1.877
 7821TIP3   OH256997   7.132   2.857   1.709
 7821TIP3    H156998   7.102   2.903   1.627
 7821TIP3    H256999   7.221   2.825   1.683
 7822TIP3   OH257000   6.174   2.529   1.758
 7822TIP3    H157001   6.110   2.455   1.745
 7822TIP3    H257002   6.236   2.519   1.684
 7823TIP3   OH257003   6.487   1.975   1.327
 7823TIP3    H157004   6.447   2.062   1.348
 7823TIP3    H257005   6.409   1.927   1.297
 7824TIP3   OH257006   6.589   2.392   1.747
 7824TIP3    H157007   6.543   2.364   1.830
 7824TIP3    H257008   6.519   2.379   1.680
 7825TIP3   OH257009   6.834   2.305   1.651
 7825TIP3    H157010   6.751   2.327   1.696
 7825TIP3    H257011   6.877   2.250   1.720
 7826TIP3   OH257012   6.986   2.152   1.818
 7826TIP3    H157013   7.000   2.058   1.843
 7826TIP3    H257014   6.990   2.196   1.906
 7827TIP3   OH257015   5.995   2.308   1.765
 7827TIP3    H157016   5.987   2.223   1.718
 7827TIP3    H257017   6.003   2.283   1.860
 7828TIP3   OH257018   6.472   1.930   1.603
 7828TIP3    H157019   6.551   1.875   1.620
 7828TIP3    H257020   6.471   1.924   1.506
 7829TIP3   OH257021   6.458   2.024   1.880
 7829TIP3    H157022   6.469   1.990   1.789
 7829TIP3    H257023   6.428   2.116   1.864
 7830TIP3   OH257024   6.469   3.762   0.190
 7830TIP3    H157025   6.550   3.816   0.200
 7830TIP3    H257026   6.474   3.742   0.094
 7831TIP3   OH257027   5.816   3.227   0.103
 7831TIP3    H157028   5.912   3.229   0.119
 7831TIP3    H257029   5.815   3.188   0.015
 7832TIP3   OH257030   5.712   3.719   0.599
 7832TIP3    H157031   5.633   3.665   0.575
 7832TIP3    H257032   5.744   3.669   0.676
 7833TIP3   OH257033   5.798   3.557   0.806
 7833TIP3    H157034   5.740   3.492   0.850
 7833TIP3    H257035   5.852   3.585   0.884
 7834TIP3   OH257036   7.543   3.630   1.073
 7834TIP3    H157037   7.566   3.645   1.166
 7834TIP3    H257038   7.585   3.706   1.031
 7835TIP3   OH257039   7.489   3.603   1.370
 7835TIP3    H157040   7.455   3.523   1.324
 7835TIP3    H257041   7.536   3.560   1.444
 7836TIP3   OH257042   7.466   3.013   0.382
 7836TIP3    H157043   7.551   3.061   0.398
 7836TIP3    H257044   7.470   2.945   0.453
 7837TIP3   OH257045   7.510   2.817   0.567
 7837TIP3    H157046   7.437   2.779   0.621
 7837TIP3    H257047   7.574   2.841   0.637
 7838TIP3   OH257048   7.480   3.100   1.061
 7838TIP3    H157049   7.550   3.036   1.037
 7838TIP3    H257050   7.520   3.186   1.036
 7839TIP3   OH257051   7.350   3.370   1.294
 7839TIP3    H157052   7.275   3.405   1.345
 7839TIP3    H257053   7.308   3.342   1.209
 7840TIP3   OH257054   7.506   2.783   0.212
 7840TIP3    H157055   7.454   2.810   0.134
 7840TIP3    H257056   7.491   2.858   0.273
 7841TIP3   OH257057   7.320   2.513   0.088
 7841TIP3    H157058   7.394   2.552   0.037
 7841TIP3    H257059   7.333   2.419   0.065
 7842TIP3   OH257060   7.311   2.676   0.674
 7842TIP3    H157061   7.283   2.589   0.640
 7842TIP3    H257062   7.276   2.673   0.766
 7843TIP3   OH257063   5.787   2.893   1.066
 7843TIP3    H157064   5.789   2.861   0.973
 7843TIP3    H257065   5.879   2.870   1.096
 7844TIP3   OH257066   7.412   2.861   1.607
 7844TIP3    H157067   7.467   2.787   1.642
 7844TIP3    H257068   7.478   2.929   1.585
 7845TIP3   OH257069   7.530   2.651   1.700
 7845TIP3    H157070   7.442   2.617   1.670
 7845TIP3    H257071   7.586   2.569   1.692
 7846TIP3   OH257072   7.301   2.269  -0.028
 7846TIP3    H157073   7.357   2.216   0.033
 7846TIP3    H257074   7.211   2.264   0.009
 7847TIP3   OH257075   7.240   2.448   0.500
 7847TIP3    H157076   7.272   2.361   0.534
 7847TIP3    H257077   7.291   2.448   0.417
 7848TIP3   OH257078   7.360   2.496   1.040
 7848TIP3    H157079   7.457   2.502   1.051
 7848TIP3    H257080   7.333   2.500   1.133
 7849TIP3   OH257081   7.351   2.571   1.311
 7849TIP3    H157082   7.273   2.591   1.366
 7849TIP3    H257083   7.391   2.660   1.297
 7850TIP3   OH257084   5.738   2.388   1.678
 7850TIP3    H157085   5.821   2.388   1.729
 7850TIP3    H257086   5.698   2.301   1.702
 7851TIP3   OH257087   7.545   1.971   1.822
 7851TIP3    H157088   7.597   1.899   1.781
 7851TIP3    H257089   7.551   2.041   1.753
 7852TIP3   OH257090   7.324   2.174   0.518
 7852TIP3    H157091   7.359   2.124   0.595
 7852TIP3    H257092   7.277   2.105   0.469
 7853TIP3   OH257093   5.881   2.236   1.001
 7853TIP3    H157094   5.918   2.144   0.997
 7853TIP3    H257095   5.963   2.290   0.998
 7854TIP3   OH257096   5.728   2.533   1.087
 7854TIP3    H157097   5.777   2.492   1.013
 7854TIP3    H257098   5.776   2.616   1.094
 7855TIP3   OH257099   7.510   2.176   1.657
 7855TIP3    H157100   7.427   2.230   1.658
 7855TIP3    H257101   7.483   2.114   1.587
 7856TIP3   OH257102   7.504   2.181   0.139
 7856TIP3    H157103   7.551   2.112   0.088
 7856TIP3    H257104   7.580   2.237   0.165
 7857TIP3   OH257105   5.735   2.145   0.453
 7857TIP3    H157106   5.640   2.159   0.470
 7857TIP3    H257107   5.753   2.207   0.379
 7858TIP3   OH257108   7.223   3.654   0.683
 7858TIP3    H157109   7.296   3.647   0.618
 7858TIP3    H257110   7.252   3.723   0.744
 7859TIP3   OH257111   5.726   2.015   1.293
 7859TIP3    H157112   5.668   1.977   1.362
 7859TIP3    H257113   5.668   2.078   1.246
 7860TIP3   OH257114   5.971   3.337   1.706
 7860TIP3    H157115   5.885   3.370   1.675
 7860TIP3    H257116   5.953   3.299   1.794
 7861TIP3   OH257117   6.256   3.487   1.362
 7861TIP3    H157118   6.249   3.580   1.330
 7861TIP3    H257119   6.354   3.477   1.359
 7862TIP3   OH257120   6.652   3.613   1.632
 7862TIP3    H157121   6.671   3.579   1.721
 7862TIP3    H257122   6.742   3.642   1.601
 7863TIP3   OH257123   6.879   3.745   1.561
 7863TIP3    H157124   6.956   3.728   1.503
 7863TIP3    H257125   6.919   3.788   1.639
 7864TIP3   OH257126   7.415   1.963   1.486
 7864TIP3    H157127   7.345   2.006   1.435
 7864TIP3    H257128   7.425   1.877   1.440
 7865TIP3   OH257129   5.981   3.797   1.331
 7865TIP3    H157130   5.904   3.823   1.277
 7865TIP3    H257131   5.962   3.847   1.412
 7866TIP3   OH257132   6.219   3.728   1.242
 7866TIP3    H157133   6.128   3.751   1.271
 7866TIP3    H257134   6.229   3.787   1.165
 7867TIP3   OH257135   6.704   3.686   1.177
 7867TIP3    H157136   6.650   3.718   1.104
 7867TIP3    H257137   6.720   3.770   1.227
 7868TIP3   OH257138   6.914   3.577   1.312
 7868TIP3    H157139   6.844   3.610   1.251
 7868TIP3    H257140   6.987   3.633   1.280
 7869TIP3   OH257141   7.167   3.721   1.275
 7869TIP3    H157142   7.178   3.812   1.241
 7869TIP3    H257143   7.198   3.671   1.197
 7870TIP3   OH257144   5.954   3.628   1.015
 7870TIP3    H157145   5.935   3.568   1.091
 7870TIP3    H257146   6.044   3.596   0.988
 7871TIP3   OH257147   6.173   3.519   0.900
 7871TIP3    H157148   6.163   3.424   0.917
 7871TIP3    H257149   6.259   3.536   0.945
 7872TIP3   OH257150   6.405   3.528   1.032
 7872TIP3    H157151   6.442   3.439   1.017
 7872TIP3    H257152   6.409   3.532   1.130
 7873TIP3   OH257153   6.716   2.093   0.915
 7873TIP3    H157154   6.634   2.053   0.949
 7873TIP3    H257155   6.759   2.018   0.873
 7874TIP3   OH257156   7.293   1.916   0.900
 7874TIP3    H157157   7.359   1.970   0.851
 7874TIP3    H257158   7.208   1.950   0.864
 7875TIP3   OH257159   7.447   2.038   0.719
 7875TIP3    H157160   7.513   1.981   0.673
 7875TIP3    H257161   7.502   2.118   0.738
 7876TIP3   OH257162   5.995   1.956   0.703
 7876TIP3    H157163   5.915   1.944   0.647
 7876TIP3    H257164   6.042   1.872   0.685
 7877TIP3   OH257165   5.856   1.956   0.249
 7877TIP3    H157166   5.913   2.018   0.198
 7877TIP3    H257167   5.819   2.011   0.320
 7878TIP3   OH257168   6.422   1.936   0.673
 7878TIP3    H157169   6.511   1.956   0.638
 7878TIP3    H257170   6.418   1.990   0.753
 7879TIP3   OH257171   7.046   1.968   0.806
 7879TIP3    H157172   7.009   1.999   0.723
 7879TIP3    H257173   6.986   1.892   0.828
 7880TIP3   OH257174   7.154   1.966   0.377
 7880TIP3    H157175   7.072   2.014   0.361
 7880TIP3    H257176   7.119   1.883   0.416
 7881TIP3   OH257177   5.866   3.567   0.349
 7881TIP3    H157178   5.778   3.565   0.306
 7881TIP3    H257179   5.885   3.661   0.331
 7882TIP3   OH257180   6.035   2.088   0.107
 7882TIP3    H157181   6.121   2.049   0.088
 7882TIP3    H257182   6.060   2.175   0.142
 7883TIP3   OH257183   6.551   2.200   0.349
 7883TIP3    H157184   6.590   2.135   0.409
 7883TIP3    H257185   6.580   2.282   0.395
 7884TIP3   OH257186   6.757   3.767   0.169
 7884TIP3    H157187   6.845   3.783   0.131
 7884TIP3    H257188   6.756   3.670   0.152
 7885TIP3   OH257189   7.400   3.596   0.498
 7885TIP3    H157190   7.387   3.517   0.440
 7885TIP3    H257191   7.394   3.667   0.431
 7886TIP3   OH257192   5.952   2.045   1.604
 7886TIP3    H157193   5.903   1.961   1.619
 7886TIP3    H257194   6.028   2.035   1.666
 7887TIP3   OH257195   6.154   1.981   1.805
 7887TIP3    H157196   6.248   1.971   1.783
 7887TIP3    H257197   6.131   1.889   1.828
 7888TIP3   OH257198   6.060   3.661   0.052
 7888TIP3    H157199   5.987   3.706   0.097
 7888TIP3    H257200   6.072   3.580   0.103
 7889TIP3   OH257201   7.024   1.893   1.851
 7889TIP3    H157202   7.012   1.799   1.861
 7889TIP3    H257203   7.105   1.899   1.797
 7890TIP3   OH257204   7.366   3.504   1.652
 7890TIP3    H157205   7.308   3.517   1.572
 7890TIP3    H257206   7.366   3.594   1.689
 7891TIP3   OH257207   8.809   2.913   0.672
 7891TIP3    H157208   8.800   3.011   0.663
 7891TIP3    H257209   8.730   2.883   0.624
 7892TIP3   OH257210   8.657   2.765   0.994
 7892TIP3    H157211   8.672   2.730   1.084
 7892TIP3    H257212   8.584   2.712   0.957
 7893TIP3   OH257213   7.891   2.790   1.168
 7893TIP3    H157214   7.885   2.708   1.219
 7893TIP3    H257215   7.986   2.810   1.169
 7894TIP3   OH257216   9.040   3.127   0.858
 7894TIP3    H157217   9.060   3.047   0.907
 7894TIP3    H257218   9.025   3.192   0.929
 7895TIP3   OH257219   7.998   3.236   0.993
 7895TIP3    H157220   7.967   3.148   0.962
 7895TIP3    H257221   8.093   3.226   0.973
 7896TIP3   OH257222   7.664   2.565   0.561
 7896TIP3    H157223   7.638   2.657   0.574
 7896TIP3    H257224   7.588   2.533   0.509
 7897TIP3   OH257225   7.707   2.812   0.800
 7897TIP3    H157226   7.739   2.720   0.816
 7897TIP3    H257227   7.787   2.867   0.804
 7898TIP3   OH257228   8.760   3.655   0.873
 7898TIP3    H157229   8.819   3.594   0.822
 7898TIP3    H257230   8.712   3.591   0.928
 7899TIP3   OH257231   8.500   3.026   1.088
 7899TIP3    H157232   8.532   2.993   1.001
 7899TIP3    H257233   8.582   3.066   1.123
 7900TIP3   OH257234   9.348   2.264   1.127
 7900TIP3    H157235   9.362   2.356   1.154
 7900TIP3    H257236   9.436   2.248   1.087
 7901TIP3   OH257237   8.823   2.514   1.121
 7901TIP3    H157238   8.853   2.423   1.125
 7901TIP3    H257239   8.796   2.521   1.027
 7902TIP3   OH257240   8.149   2.287   0.779
 7902TIP3    H157241   8.154   2.369   0.726
 7902TIP3    H257242   8.093   2.232   0.720
 7903TIP3   OH257243   8.912   2.333   0.666
 7903TIP3    H157244   8.962   2.293   0.740
 7903TIP3    H257245   8.978   2.396   0.633
 7904TIP3   OH257246   7.785   2.559   0.880
 7904TIP3    H157247   7.853   2.522   0.939
 7904TIP3    H257248   7.814   2.520   0.795
 7905TIP3   OH257249   8.264   2.705   0.824
 7905TIP3    H157250   8.345   2.660   0.856
 7905TIP3    H257251   8.232   2.639   0.760
 7906TIP3   OH257252   8.049   2.213   1.203
 7906TIP3    H157253   8.000   2.258   1.132
 7906TIP3    H257254   7.984   2.224   1.275
 7907TIP3   OH257255   8.736   3.144   0.559
 7907TIP3    H157256   8.701   3.152   0.468
 7907TIP3    H257257   8.709   3.231   0.598
 7908TIP3   OH257258   8.258   2.970   1.195
 7908TIP3    H157259   8.206   3.048   1.223
 7908TIP3    H257260   8.339   3.011   1.158
 7909TIP3   OH257261   9.080   2.286   0.863
 7909TIP3    H157262   9.048   2.231   0.937
 7909TIP3    H257263   9.142   2.348   0.907
 7910TIP3   OH257264   7.994   2.389   0.999
 7910TIP3    H157265   8.054   2.450   1.047
 7910TIP3    H257266   8.048   2.364   0.921
 7911TIP3   OH257267   8.136   3.195   1.293
 7911TIP3    H157268   8.120   3.285   1.261
 7911TIP3    H257269   8.049   3.177   1.337
 7912TIP3   OH257270   7.711   3.124   0.391
 7912TIP3    H157271   7.714   3.178   0.310
 7912TIP3    H257272   7.725   3.195   0.459
 7913TIP3   OH257273   9.055   3.322   1.036
 7913TIP3    H157274   8.958   3.335   1.048
 7913TIP3    H257275   9.084   3.414   1.032
 7914TIP3   OH257276   9.145   2.101   1.238
 7914TIP3    H157277   9.078   2.113   1.168
 7914TIP3    H257278   9.211   2.167   1.205
 7915TIP3   OH257279   8.406   1.955   0.957
 7915TIP3    H157280   8.372   1.865   0.947
 7915TIP3    H257281   8.322   2.001   0.985
 7916TIP3   OH257282   8.906   3.503   0.718
 7916TIP3    H157283   8.942   3.418   0.687
 7916TIP3    H257284   8.975   3.566   0.687
 7917TIP3   OH257285   9.047   3.261   0.576
 7917TIP3    H157286   9.017   3.185   0.522
 7917TIP3    H257287   9.069   3.219   0.662
 7918TIP3   OH257288   9.167   3.128   1.468
 7918TIP3    H157289   9.168   3.053   1.404
 7918TIP3    H257290   9.209   3.197   1.414
 7919TIP3   OH257291   8.637   2.822   0.409
 7919TIP3    H157292   8.571   2.893   0.391
 7919TIP3    H257293   8.714   2.853   0.358
 7920TIP3   OH257294   8.642   2.715   0.131
 7920TIP3    H157295   8.715   2.739   0.193
 7920TIP3    H257296   8.683   2.645   0.079
 7921TIP3   OH257297   9.357   2.764   1.216
 7921TIP3    H157298   9.288   2.833   1.223
 7921TIP3    H257299   9.414   2.806   1.147
 7922TIP3   OH257300   8.998   2.813   0.502
 7922TIP3    H157301   8.933   2.856   0.563
 7922TIP3    H257302   9.057   2.769   0.569
 7923TIP3   OH257303   8.973   2.637   1.456
 7923TIP3    H157304   8.960   2.700   1.530
 7923TIP3    H257305   8.936   2.689   1.382
 7924TIP3   OH257306   8.126   2.885   0.683
 7924TIP3    H157307   8.120   2.840   0.596
 7924TIP3    H257308   8.186   2.825   0.732
 7925TIP3   OH257309   8.304   3.238   0.965
 7925TIP3    H157310   8.315   3.224   0.870
 7925TIP3    H257311   8.374   3.184   1.004
 7926TIP3   OH257312   8.158   2.768   1.066
 7926TIP3    H157313   8.194   2.764   0.975
 7926TIP3    H257314   8.212   2.839   1.107
 7927TIP3   OH257315   8.806   3.343   1.122
 7927TIP3    H157316   8.785   3.410   1.189
 7927TIP3    H257317   8.802   3.261   1.174
 7928TIP3   OH257318   8.295   3.224   1.514
 7928TIP3    H157319   8.225   3.271   1.566
 7928TIP3    H257320   8.247   3.210   1.429
 7929TIP3   OH257321   8.865   2.783   0.276
 7929TIP3    H157322   8.915   2.783   0.361
 7929TIP3    H257323   8.919   2.839   0.216
 7930TIP3   OH257324   8.002   2.828   1.435
 7930TIP3    H157325   8.008   2.916   1.475
 7930TIP3    H257326   7.911   2.805   1.461
 7931TIP3   OH257327   8.655   3.387   0.651
 7931TIP3    H157328   8.713   3.455   0.689
 7931TIP3    H257329   8.591   3.437   0.599
 7932TIP3   OH257330   8.113   3.390   1.628
 7932TIP3    H157331   8.108   3.428   1.538
 7932TIP3    H257332   8.019   3.364   1.642
 7933TIP3   OH257333   9.243   1.872   0.302
 7933TIP3    H157334   9.163   1.921   0.331
 7933TIP3    H257335   9.245   1.887   0.205
 7934TIP3   OH257336   8.039   2.777   0.447
 7934TIP3    H157337   7.997   2.863   0.424
 7934TIP3    H257338   7.972   2.713   0.421
 7935TIP3   OH257339   9.351   3.392   0.104
 7935TIP3    H157340   9.401   3.449   0.045
 7935TIP3    H257341   9.414   3.317   0.114
 7936TIP3   OH257342   7.694   3.062   1.342
 7936TIP3    H157343   7.641   3.043   1.263
 7936TIP3    H257344   7.725   2.971   1.361
 7937TIP3   OH257345   7.648   3.320   1.022
 7937TIP3    H157346   7.715   3.266   1.066
 7937TIP3    H257347   7.665   3.407   1.061
 7938TIP3   OH257348   8.536   3.340   1.510
 7938TIP3    H157349   8.532   3.425   1.557
 7938TIP3    H257350   8.445   3.303   1.516
 7939TIP3   OH257351   8.599   3.716   0.438
 7939TIP3    H157352   8.600   3.740   0.343
 7939TIP3    H257353   8.601   3.805   0.480
 7940TIP3   OH257354   7.972   3.589   0.655
 7940TIP3    H157355   7.988   3.560   0.748
 7940TIP3    H257356   7.881   3.559   0.639
 7941TIP3   OH257357   8.896   3.668   0.145
 7941TIP3    H157358   8.945   3.589   0.113
 7941TIP3    H257359   8.906   3.660   0.241
 7942TIP3   OH257360   8.857   3.632   0.447
 7942TIP3    H157361   8.762   3.651   0.463
 7942TIP3    H257362   8.868   3.545   0.487
 7943TIP3   OH257363   9.188   2.570   1.610
 7943TIP3    H157364   9.112   2.578   1.548
 7943TIP3    H257365   9.228   2.485   1.585
 7944TIP3   OH257366   7.908   3.197   1.428
 7944TIP3    H157367   7.919   3.161   1.518
 7944TIP3    H257368   7.825   3.152   1.398
 7945TIP3   OH257369   8.171   2.048   1.027
 7945TIP3    H157370   8.080   2.036   0.994
 7945TIP3    H257371   8.154   2.110   1.102
 7946TIP3   OH257372   8.647   1.994   1.363
 7946TIP3    H157373   8.680   1.940   1.438
 7946TIP3    H257374   8.549   1.988   1.369
 7947TIP3   OH257375   8.960   2.367   1.461
 7947TIP3    H157376   8.897   2.356   1.537
 7947TIP3    H257377   8.961   2.465   1.452
 7948TIP3   OH257378   9.016   2.896   0.094
 7948TIP3    H157379   9.060   2.850   0.020
 7948TIP3    H257380   9.090   2.948   0.131
 7949TIP3   OH257381   8.600   2.288   0.128
 7949TIP3    H157382   8.564   2.276   0.218
 7949TIP3    H257383   8.581   2.202   0.090
 7950TIP3   OH257384   8.181   2.514   1.164
 7950TIP3    H157385   8.104   2.524   1.224
 7950TIP3    H257386   8.185   2.604   1.126
 7951TIP3   OH257387   8.155   2.517   0.640
 7951TIP3    H157388   8.058   2.509   0.630
 7951TIP3    H257389   8.186   2.499   0.548
 7952TIP3   OH257390   8.726   2.608   0.537
 7952TIP3    H157391   8.689   2.686   0.490
 7952TIP3    H257392   8.788   2.573   0.470
 7953TIP3   OH257393   8.577   2.623   1.656
 7953TIP3    H157394   8.540   2.547   1.706
 7953TIP3    H257395   8.658   2.637   1.707
 7954TIP3   OH257396   8.804   2.576   0.835
 7954TIP3    H157397   8.785   2.662   0.794
 7954TIP3    H257398   8.817   2.520   0.756
 7955TIP3   OH257399   7.923   2.522   1.282
 7955TIP3    H157400   7.966   2.570   1.355
 7955TIP3    H257401   7.891   2.441   1.327
 7956TIP3   OH257402   8.265   2.313   0.069
 7956TIP3    H157403   8.224   2.251   0.133
 7956TIP3    H257404   8.232   2.400   0.099
 7957TIP3   OH257405   7.609   2.254   0.748
 7957TIP3    H157406   7.677   2.270   0.815
 7957TIP3    H257407   7.644   2.300   0.670
 7958TIP3   OH257408   7.705   2.322   0.257
 7958TIP3    H157409   7.766   2.365   0.194
 7958TIP3    H257410   7.650   2.400   0.280
 7959TIP3   OH257411   8.755   2.741   1.252
 7959TIP3    H157412   8.794   2.658   1.218
 7959TIP3    H257413   8.693   2.704   1.318
 7960TIP3   OH257414   8.456   2.259   0.732
 7960TIP3    H157415   8.361   2.259   0.756
 7960TIP3    H257416   8.501   2.240   0.817
 7961TIP3   OH257417   7.885   2.432   0.654
 7961TIP3    H157418   7.815   2.470   0.596
 7961TIP3    H257419   7.905   2.345   0.611
 7962TIP3   OH257420   8.238   2.465   0.385
 7962TIP3    H157421   8.334   2.482   0.394
 7962TIP3    H257422   8.217   2.512   0.301
 7963TIP3   OH257423   8.925   2.172   1.058
 7963TIP3    H157424   8.844   2.191   1.110
 7963TIP3    H257425   8.889   2.116   0.986
 7964TIP3   OH257426   8.171   2.556   0.141
 7964TIP3    H157427   8.102   2.554   0.072
 7964TIP3    H257428   8.242   2.608   0.098
 7965TIP3   OH257429   9.158   3.750   1.725
 7965TIP3    H157430   9.190   3.792   1.642
 7965TIP3    H257431   9.233   3.769   1.782
 7966TIP3   OH257432   7.959   3.018   1.647
 7966TIP3    H157433   8.035   3.030   1.707
 7966TIP3    H257434   7.889   3.000   1.711
 7967TIP3   OH257435   8.490   2.540   0.907
 7967TIP3    H157436   8.584   2.524   0.889
 7967TIP3    H257437   8.467   2.469   0.970
 7968TIP3   OH257438   7.992   2.182   0.586
 7968TIP3    H157439   7.941   2.111   0.632
 7968TIP3    H257440   8.025   2.136   0.507
 7969TIP3   OH257441   8.407   2.374   1.186
 7969TIP3    H157442   8.332   2.438   1.178
 7969TIP3    H257443   8.477   2.429   1.226
 7970TIP3   OH257444   8.461   3.024   0.379
 7970TIP3    H157445   8.385   2.975   0.340
 7970TIP3    H257446   8.422   3.051   0.465
 7971TIP3   OH257447   9.178   2.976   1.256
 7971TIP3    H157448   9.223   3.035   1.193
 7971TIP3    H257449   9.092   2.961   1.212
 7972TIP3   OH257450   8.851   2.314   0.204
 7972TIP3    H157451   8.758   2.318   0.174
 7972TIP3    H257452   8.870   2.408   0.221
 7973TIP3   OH257453   8.572   3.053   1.468
 7973TIP3    H157454   8.575   3.008   1.553
 7973TIP3    H257455   8.555   3.145   1.493
 7974TIP3   OH257456   8.940   2.529   0.334
 7974TIP3    H157457   9.008   2.504   0.399
 7974TIP3    H257458   8.966   2.619   0.308
 7975TIP3   OH257459   7.979   2.973   0.904
 7975TIP3    H157460   8.020   2.955   0.817
 7975TIP3    H257461   8.015   2.903   0.961
 7976TIP3   OH257462   8.674   3.168   0.283
 7976TIP3    H157463   8.628   3.251   0.308
 7976TIP3    H257464   8.606   3.101   0.304
 7977TIP3   OH257465   7.703   2.801   1.475
 7977TIP3    H157466   7.680   2.750   1.554
 7977TIP3    H257467   7.643   2.765   1.408
 7978TIP3   OH257468   8.347   2.773   1.630
 7978TIP3    H157469   8.298   2.721   1.566
 7978TIP3    H257470   8.433   2.726   1.632
 7979TIP3   OH257471   8.859   3.294   1.486
 7979TIP3    H157472   8.770   3.310   1.452
 7979TIP3    H257473   8.850   3.334   1.575
 7980TIP3   OH257474   9.269   3.335   0.348
 7980TIP3    H157475   9.178   3.306   0.357
 7980TIP3    H257476   9.278   3.358   0.253
 7981TIP3   OH257477   8.976   2.880   1.064
 7981TIP3    H157478   8.882   2.865   1.043
 7981TIP3    H257479   9.018   2.824   0.996
 7982TIP3   OH257480   8.208   3.320   0.660
 7982TIP3    H157481   8.220   3.415   0.641
 7982TIP3    H257482   8.123   3.306   0.617
 7983TIP3   OH257483   7.822   2.800   0.131
 7983TIP3    H157484   7.872   2.863   0.187
 7983TIP3    H257485   7.732   2.806   0.168
 7984TIP3   OH257486   8.343   3.086   0.613
 7984TIP3    H157487   8.299   3.173   0.625
 7984TIP3    H257488   8.293   3.028   0.673
 7985TIP3   OH257489   8.408   3.510   1.320
 7985TIP3    H157490   8.469   3.582   1.298
 7985TIP3    H257491   8.473   3.445   1.354
 7986TIP3   OH257492   8.240   3.577   0.575
 7986TIP3    H157493   8.143   3.587   0.592
 7986TIP3    H257494   8.271   3.663   0.612
 7987TIP3   OH257495   8.725   3.096   1.234
 7987TIP3    H157496   8.683   3.077   1.321
 7987TIP3    H257497   8.749   3.007   1.206
 7988TIP3   OH257498   8.986   3.242   0.183
 7988TIP3    H157499   9.012   3.181   0.256
 7988TIP3    H257500   8.900   3.200   0.161
 7989TIP3   OH257501   9.006   3.563   1.496
 7989TIP3    H157502   8.944   3.501   1.456
 7989TIP3    H257503   9.052   3.603   1.418
 7990TIP3   OH257504   7.861   2.269   1.408
 7990TIP3    H157505   7.779   2.317   1.431
 7990TIP3    H257506   7.852   2.187   1.458
 7991TIP3   OH257507   9.061   3.042   0.368
 7991TIP3    H157508   9.031   2.956   0.406
 7991TIP3    H257509   9.159   3.031   0.365
 7992TIP3   OH257510   7.814   3.452   1.239
 7992TIP3    H157511   7.872   3.374   1.243
 7992TIP3    H257512   7.827   3.488   1.328
 7993TIP3   OH257513   8.270   3.269   0.245
 7993TIP3    H157514   8.339   3.228   0.300
 7993TIP3    H257515   8.283   3.365   0.264
 7994TIP3   OH257516   7.929   2.997   0.286
 7994TIP3    H157517   7.860   3.041   0.341
 7994TIP3    H257518   7.976   3.072   0.245
 7995TIP3   OH257519   8.739   2.266   1.351
 7995TIP3    H157520   8.831   2.282   1.378
 7995TIP3    H257521   8.723   2.172   1.374
 7996TIP3   OH257522   8.780   2.230   0.463
 7996TIP3    H157523   8.822   2.276   0.388
 7996TIP3    H257524   8.822   2.278   0.539
 7997TIP3   OH257525   8.565   3.408   0.340
 7997TIP3    H157526   8.500   3.480   0.344
 7997TIP3    H257527   8.618   3.437   0.264
 7998TIP3   OH257528   8.530   2.408   0.507
 7998TIP3    H157529   8.592   2.482   0.522
 7998TIP3    H257530   8.513   2.373   0.596
 7999TIP3   OH257531   8.605   2.523   1.399
 7999TIP3    H157532   8.586   2.546   1.492
 7999TIP3    H257533   8.659   2.442   1.404
 8000TIP3   OH257534   8.583   2.083   0.572
 8000TIP3    H157535   8.537   2.145   0.633
 8000TIP3    H257536   8.655   2.143   0.539
 8001TIP3   OH257537   8.283   3.531   0.305
 8001TIP3    H157538   8.313   3.617   0.270
 8001TIP3    H257539   8.262   3.557   0.397
 8002TIP3   OH257540   8.143   2.208   0.286
 8002TIP3    H157541   8.155   2.295   0.329
 8002TIP3    H257542   8.223   2.163   0.318
 8003TIP3   OH257543   9.201   2.283   1.541
 8003TIP3    H157544   9.111   2.291   1.502
 8003TIP3    H257545   9.259   2.299   1.466
 8004TIP3   OH257546   9.055   2.686   0.873
 8004TIP3    H157547   8.970   2.641   0.889
 8004TIP3    H257548   9.115   2.631   0.929
 8005TIP3   OH257549   8.001   3.248   0.146
 8005TIP3    H157550   8.080   3.279   0.195
 8005TIP3    H257551   8.044   3.189   0.082
 8006TIP3   OH257552   7.825   2.529   0.094
 8006TIP3    H157553   7.842   2.624   0.109
 8006TIP3    H257554   7.757   2.532   0.025
 8007TIP3   OH257555   9.203   3.566   1.068
 8007TIP3    H157556   9.174   3.630   0.999
 8007TIP3    H257557   9.296   3.587   1.079
 8008TIP3   OH257558   7.907   2.001   0.972
 8008TIP3    H157559   7.901   1.992   0.875
 8008TIP3    H257560   7.880   1.911   1.000
 8009TIP3   OH257561   7.743   3.359   0.529
 8009TIP3    H157562   7.677   3.411   0.577
 8009TIP3    H257563   7.775   3.426   0.466
 8010TIP3   OH257564   7.713   3.673   1.696
 8010TIP3    H157565   7.769   3.653   1.775
 8010TIP3    H257566   7.676   3.586   1.679
 8011TIP3   OH257567   8.104   3.565   1.843
 8011TIP3    H157568   8.199   3.577   1.848
 8011TIP3    H257569   8.098   3.498   1.771
 8012TIP3   OH257570   8.670   3.505   0.088
 8012TIP3    H157571   8.619   3.446   0.029
 8012TIP3    H257572   8.735   3.541   0.025
 8013TIP3   OH257573   8.815   3.427   1.728
 8013TIP3    H157574   8.779   3.348   1.774
 8013TIP3    H257575   8.900   3.441   1.775
 8014TIP3   OH257576   9.072   3.491   0.023
 8014TIP3    H157577   9.069   3.412   0.082
 8014TIP3    H257578   9.165   3.518   0.032
 8015TIP3   OH257579   7.697   2.985   1.779
 8015TIP3    H157580   7.705   2.892   1.750
 8015TIP3    H257581   7.663   3.033   1.700
 8016TIP3   OH257582   8.181   3.054   0.019
 8016TIP3    H157583   8.245   3.045   0.091
 8016TIP3    H257584   8.218   2.993  -0.048
 8017TIP3   OH257585   8.363   3.039   1.703
 8017TIP3    H157586   8.348   3.095   1.624
 8017TIP3    H257587   8.345   2.948   1.669
 8018TIP3   OH257588   8.923   3.018   1.519
 8018TIP3    H157589   9.012   3.060   1.514
 8018TIP3    H257590   8.870   3.099   1.503
 8019TIP3   OH257591   7.801   2.728   1.784
 8019TIP3    H157592   7.884   2.683   1.804
 8019TIP3    H257593   7.756   2.733   1.869
 8020TIP3   OH257594   8.274   2.884   0.252
 8020TIP3    H157595   8.203   2.830   0.291
 8020TIP3    H257596   8.317   2.821   0.192
 8021TIP3   OH257597   8.185   2.645   1.407
 8021TIP3    H157598   8.132   2.727   1.420
 8021TIP3    H257599   8.261   2.682   1.359
 8022TIP3   OH257600   8.391   2.698   0.048
 8022TIP3    H157601   8.419   2.702  -0.045
 8022TIP3    H257602   8.479   2.701   0.094
 8023TIP3   OH257603   8.735   2.923   1.825
 8023TIP3    H157604   8.824   2.886   1.812
 8023TIP3    H257605   8.692   2.851   1.877
 8024TIP3   OH257606   9.303   2.888   8.482
 8024TIP3    H157607   9.303   2.892   8.385
 8024TIP3    H257608   9.354   2.966   8.508
 8025TIP3   OH257609   8.251   2.413   1.541
 8025TIP3    H157610   8.257   2.334   1.483
 8025TIP3    H257611   8.237   2.487   1.478
 8026TIP3   OH257612   8.266   2.213   1.358
 8026TIP3    H157613   8.313   2.265   1.289
 8026TIP3    H257614   8.177   2.203   1.319
 8027TIP3   OH257615   8.408   2.797   1.333
 8027TIP3    H157616   8.489   2.846   1.313
 8027TIP3    H257617   8.342   2.862   1.302
 8028TIP3   OH257618   8.848   2.549   1.887
 8028TIP3    H157619   8.912   2.496   1.838
 8028TIP3    H257620   8.907   2.616   1.930
 8029TIP3   OH257621   8.985   2.823   1.685
 8029TIP3    H157622   8.947   2.893   1.628
 8029TIP3    H257623   9.081   2.840   1.672
 8030TIP3   OH257624   8.102   2.474   1.757
 8030TIP3    H157625   8.021   2.431   1.726
 8030TIP3    H257626   8.164   2.452   1.684
 8031TIP3   OH257627   8.377   1.970   1.346
 8031TIP3    H157628   8.340   2.061   1.357
 8031TIP3    H257629   8.299   1.923   1.312
 8032TIP3   OH257630   8.459   2.396   1.749
 8032TIP3    H157631   8.396   2.364   1.816
 8032TIP3    H257632   8.412   2.372   1.668
 8033TIP3   OH257633   8.775   2.318   1.657
 8033TIP3    H157634   8.687   2.287   1.684
 8033TIP3    H257635   8.833   2.275   1.723
 8034TIP3   OH257636   8.936   2.172   1.830
 8034TIP3    H157637   8.904   2.079   1.834
 8034TIP3    H257638   8.910   2.209   1.917
 8035TIP3   OH257639   7.867   2.306   1.776
 8035TIP3    H157640   7.843   2.223   1.730
 8035TIP3    H257641   7.898   2.273   1.863
 8036TIP3   OH257642   8.333   1.928   1.613
 8036TIP3    H157643   8.414   1.874   1.620
 8036TIP3    H257644   8.344   1.958   1.520
 8037TIP3   OH257645   8.371   2.036   1.922
 8037TIP3    H157646   8.348   1.988   1.840
 8037TIP3    H257647   8.335   2.124   1.897
 8038TIP3   OH257648   8.348   3.776   0.198
 8038TIP3    H157649   8.434   3.821   0.209
 8038TIP3    H257650   8.355   3.752   0.104
 8039TIP3   OH257651   7.701   3.229   0.102
 8039TIP3    H157652   7.798   3.233   0.110
 8039TIP3    H257653   7.694   3.189   0.015
 8040TIP3   OH257654   7.609   3.725   0.605
 8040TIP3    H157655   7.529   3.674   0.578
 8040TIP3    H257656   7.641   3.667   0.677
 8041TIP3   OH257657   7.691   3.554   0.807
 8041TIP3    H157658   7.636   3.486   0.850
 8041TIP3    H257659   7.744   3.588   0.883
 8042TIP3   OH257660   9.370   3.596   1.397
 8042TIP3    H157661   9.317   3.534   1.342
 8042TIP3    H257662   9.384   3.539   1.473
 8043TIP3   OH257663   9.270   3.173   1.875
 8043TIP3    H157664   9.177   3.184   1.902
 8043TIP3    H257665   9.305   3.260   1.900
 8044TIP3   OH257666   9.321   2.988   0.371
 8044TIP3    H157667   9.389   3.054   0.397
 8044TIP3    H257668   9.306   2.938   0.452
 8045TIP3   OH257669   0.013   3.118   1.108
 8045TIP3    H157670   0.071   3.046   1.073
 8045TIP3    H257671   0.035   3.192   1.048
 8046TIP3   OH257672   9.233   3.364   1.307
 8046TIP3    H157673   9.138   3.367   1.327
 8046TIP3    H257674   9.234   3.340   1.212
 8047TIP3   OH257675   9.352   2.503   0.045
 8047TIP3    H157676   9.306   2.575  -0.000
 8047TIP3    H257677   9.290   2.430   0.030
 8048TIP3   OH257678   9.167   2.654   0.633
 8048TIP3    H157679   9.162   2.563   0.597
 8048TIP3    H257680   9.142   2.644   0.728
 8049TIP3   OH257681   7.676   2.893   1.064
 8049TIP3    H157682   7.673   2.865   0.971
 8049TIP3    H257683   7.768   2.868   1.088
 8050TIP3   OH257684   9.278   2.855   1.640
 8050TIP3    H157685   9.271   2.757   1.639
 8050TIP3    H257686   9.350   2.873   1.577
 8051TIP3   OH257687   9.180   2.285  -0.026
 8051TIP3    H157688   9.236   2.219   0.017
 8051TIP3    H257689   9.091   2.257  -0.002
 8052TIP3   OH257690   9.130   2.431   0.490
 8052TIP3    H157691   9.144   2.335   0.512
 8052TIP3    H257692   9.201   2.442   0.426
 8053TIP3   OH257693   9.191   2.492   1.016
 8053TIP3    H157694   9.288   2.491   1.031
 8053TIP3    H257695   9.165   2.502   1.110
 8054TIP3   OH257696   9.206   2.560   1.280
 8054TIP3    H157697   9.145   2.604   1.340
 8054TIP3    H257698   9.274   2.629   1.264
 8055TIP3   OH257699   7.639   2.406   1.660
 8055TIP3    H157700   7.716   2.394   1.719
 8055TIP3    H257701   7.591   2.322   1.673
 8056TIP3   OH257702   9.174   2.171   0.512
 8056TIP3    H157703   9.204   2.140   0.600
 8056TIP3    H257704   9.120   2.094   0.482
 8057TIP3   OH257705   7.759   2.228   1.012
 8057TIP3    H157706   7.802   2.140   1.002
 8057TIP3    H257707   7.835   2.288   0.999
 8058TIP3   OH257708   7.614   2.533   1.085
 8058TIP3    H157709   7.664   2.496   1.011
 8058TIP3    H257710   7.654   2.621   1.090
 8059TIP3   OH257711   7.629   2.157   0.459
 8059TIP3    H157712   7.537   2.175   0.480
 8059TIP3    H257713   7.641   2.206   0.375
 8060TIP3   OH257714   9.105   3.663   0.655
 8060TIP3    H157715   9.181   3.638   0.601
 8060TIP3    H257716   9.149   3.696   0.736
 8061TIP3   OH257717   7.634   2.008   1.290
 8061TIP3    H157718   7.563   1.971   1.346
 8061TIP3    H257719   7.590   2.081   1.244
 8062TIP3   OH257720   7.851   3.328   1.710
 8062TIP3    H157721   7.770   3.349   1.660
 8062TIP3    H257722   7.821   3.323   1.801
 8063TIP3   OH257723   8.140   3.493   1.369
 8063TIP3    H157724   8.140   3.584   1.330
 8063TIP3    H257725   8.237   3.476   1.362
 8064TIP3   OH257726   8.580   3.634   1.620
 8064TIP3    H157727   8.607   3.568   1.685
 8064TIP3    H257728   8.668   3.673   1.599
 8065TIP3   OH257729   8.814   3.752   1.562
 8065TIP3    H157730   8.885   3.689   1.539
 8065TIP3    H257731   8.848   3.789   1.645
 8066TIP3   OH257732   9.244   1.970   1.519
 8066TIP3    H157733   9.194   2.026   1.458
 8066TIP3    H257734   9.279   1.900   1.460
 8067TIP3   OH257735   7.879   3.793   1.336
 8067TIP3    H157736   7.808   3.853   1.307
 8067TIP3    H257737   7.868   3.795   1.432
 8068TIP3   OH257738   8.115   3.725   1.233
 8068TIP3    H157739   8.021   3.743   1.257
 8068TIP3    H257740   8.128   3.789   1.160
 8069TIP3   OH257741   8.616   3.711   1.160
 8069TIP3    H157742   8.554   3.756   1.101
 8069TIP3    H257743   8.626   3.777   1.232
 8070TIP3   OH257744   8.786   3.555   1.297
 8070TIP3    H157745   8.731   3.609   1.234
 8070TIP3    H257746   8.867   3.608   1.294
 8071TIP3   OH257747   9.095   3.690   1.273
 8071TIP3    H157748   9.101   3.786   1.261
 8071TIP3    H257749   9.146   3.655   1.197
 8072TIP3   OH257750   7.843   3.632   1.020
 8072TIP3    H157751   7.816   3.576   1.096
 8072TIP3    H257752   7.931   3.595   0.997
 8073TIP3   OH257753   8.059   3.524   0.907
 8073TIP3    H157754   8.042   3.432   0.933
 8073TIP3    H257755   8.149   3.537   0.947
 8074TIP3   OH257756   8.298   3.518   1.034
 8074TIP3    H157757   8.325   3.425   1.021
 8074TIP3    H257758   8.314   3.533   1.129
 8075TIP3   OH257759   8.627   2.114   0.926
 8075TIP3    H157760   8.545   2.069   0.956
 8075TIP3    H257761   8.666   2.045   0.872
 8076TIP3   OH257762   9.140   1.896   0.896
 8076TIP3    H157763   9.195   1.964   0.849
 8076TIP3    H257764   9.052   1.937   0.887
 8077TIP3   OH257765   9.286   2.048   0.729
 8077TIP3    H157766   9.347   1.997   0.670
 8077TIP3    H257767   9.345   2.123   0.755
 8078TIP3   OH257768   7.884   1.955   0.697
 8078TIP3    H157769   7.799   1.946   0.651
 8078TIP3    H257770   7.925   1.866   0.681
 8079TIP3   OH257771   7.735   1.955   0.245
 8079TIP3    H157772   7.793   2.017   0.195
 8079TIP3    H257773   7.700   2.011   0.316
 8080TIP3   OH257774   8.308   1.946   0.691
 8080TIP3    H157775   8.397   1.947   0.652
 8080TIP3    H257776   8.322   1.992   0.775
 8081TIP3   OH257777   8.894   2.002   0.818
 8081TIP3    H157778   8.893   2.004   0.721
 8081TIP3    H257779   8.840   1.922   0.839
 8082TIP3   OH257780   9.023   1.969   0.413
 8082TIP3    H157781   8.946   2.025   0.395
 8082TIP3    H257782   8.981   1.885   0.443
 8083TIP3   OH257783   7.752   3.567   0.355
 8083TIP3    H157784   7.662   3.560   0.320
 8083TIP3    H257785   7.766   3.662   0.334
 8084TIP3   OH257786   7.917   2.092   0.113
 8084TIP3    H157787   8.002   2.045   0.107
 8084TIP3    H257788   7.945   2.179   0.144
 8085TIP3   OH257789   8.448   2.194   0.358
 8085TIP3    H157790   8.486   2.134   0.423
 8085TIP3    H257791   8.466   2.280   0.403
 8086TIP3   OH257792   8.629   3.756   0.173
 8086TIP3    H157793   8.713   3.773   0.125
 8086TIP3    H257794   8.630   3.658   0.163
 8087TIP3   OH257795   9.290   3.575   0.478
 8087TIP3    H157796   9.268   3.491   0.432
 8087TIP3    H257797   9.274   3.642   0.407
 8088TIP3   OH257798   7.838   2.036   1.662
 8088TIP3    H157799   7.800   1.946   1.658
 8088TIP3    H257800   7.922   2.020   1.707
 8089TIP3   OH257801   8.059   1.949   1.835
 8089TIP3    H157802   8.129   1.962   1.770
 8089TIP3    H257803   8.077   1.859   1.865
 8090TIP3   OH257804   7.943   3.674   0.062
 8090TIP3    H157805   7.868   3.709   0.114
 8090TIP3    H257806   7.963   3.589   0.104
 8091TIP3   OH257807   8.888   1.905   1.838
 8091TIP3    H157808   8.894   1.857   1.924
 8091TIP3    H257809   8.979   1.886   1.802
 8092TIP3   OH257810   9.223   3.504   1.667
 8092TIP3    H157811   9.137   3.485   1.625
 8092TIP3    H257812   9.207   3.599   1.688
 8093TIP3   OH257813   1.269   4.785   0.665
 8093TIP3    H157814   1.253   4.882   0.671
 8093TIP3    H257815   1.186   4.754   0.625
 8094TIP3   OH257816   1.148   4.670   1.000
 8094TIP3    H157817   1.149   4.628   1.088
 8094TIP3    H257818   1.065   4.637   0.959
 8095TIP3   OH257819   0.399   4.687   1.159
 8095TIP3    H157820   0.389   4.614   1.222
 8095TIP3    H257821   0.472   4.736   1.199
 8096TIP3   OH257822   1.459   4.993   0.859
 8096TIP3    H157823   1.438   4.921   0.921
 8096TIP3    H257824   1.481   5.063   0.923
 8097TIP3   OH257825   0.410   5.112   0.972
 8097TIP3    H157826   0.407   5.020   0.936
 8097TIP3    H257827   0.499   5.109   1.008
 8098TIP3   OH257828   0.154   4.452   0.545
 8098TIP3    H157829   0.137   4.547   0.547
 8098TIP3    H257830   0.074   4.419   0.587
 8099TIP3   OH257831   0.164   4.664   0.805
 8099TIP3    H157832   0.221   4.586   0.822
 8099TIP3    H257833   0.222   4.722   0.753
 8100TIP3   OH257834   1.209   5.537   0.845
 8100TIP3    H157835   1.272   5.480   0.795
 8100TIP3    H257836   1.173   5.470   0.904
 8101TIP3   OH257837   0.960   4.936   1.106
 8101TIP3    H157838   0.995   4.918   1.018
 8101TIP3    H257839   1.043   4.948   1.156
 8102TIP3   OH257840   1.818   4.096   1.104
 8102TIP3    H157841   1.820   4.148   1.186
 8102TIP3    H257842   1.903   4.121   1.066
 8103TIP3   OH257843   1.317   4.390   1.115
 8103TIP3    H157844   1.330   4.295   1.129
 8103TIP3    H257845   1.317   4.390   1.017
 8104TIP3   OH257846   0.602   4.169   0.804
 8104TIP3    H157847   0.620   4.247   0.748
 8104TIP3    H257848   0.565   4.108   0.738
 8105TIP3   OH257849   1.361   4.192   0.647
 8105TIP3    H157850   1.412   4.165   0.727
 8105TIP3    H257851   1.407   4.273   0.622
 8106TIP3   OH257852   0.300   4.443   0.872
 8106TIP3    H157853   0.367   4.406   0.932
 8106TIP3    H257854   0.314   4.387   0.792
 8107TIP3   OH257855   0.739   4.591   0.817
 8107TIP3    H157856   0.821   4.549   0.851
 8107TIP3    H257857   0.703   4.519   0.761
 8108TIP3   OH257858   1.837   4.234   1.351
 8108TIP3    H157859   1.796   4.316   1.312
 8108TIP3    H257860   1.883   4.275   1.426
 8109TIP3   OH257861   0.522   4.101   1.222
 8109TIP3    H157862   0.480   4.148   1.146
 8109TIP3    H257863   0.456   4.116   1.292
 8110TIP3   OH257864   1.187   5.026   0.554
 8110TIP3    H157865   1.175   5.032   0.458
 8110TIP3    H257866   1.141   5.108   0.585
 8111TIP3   OH257867   0.717   4.867   1.193
 8111TIP3    H157868   0.662   4.943   1.222
 8111TIP3    H257869   0.795   4.913   1.155
 8112TIP3   OH257870   1.538   4.152   0.857
 8112TIP3    H157871   1.542   4.084   0.926
 8112TIP3    H257872   1.623   4.196   0.869
 8113TIP3   OH257873   0.469   4.272   1.016
 8113TIP3    H157874   0.532   4.335   1.059
 8113TIP3    H257875   0.523   4.235   0.941
 8114TIP3   OH257876   0.586   5.085   1.285
 8114TIP3    H157877   0.575   5.177   1.255
 8114TIP3    H257878   0.500   5.070   1.330
 8115TIP3   OH257879   0.180   5.037   0.412
 8115TIP3    H157880   0.184   5.087   0.328
 8115TIP3    H257881   0.215   5.100   0.479
 8116TIP3   OH257882   1.540   5.190   1.060
 8116TIP3    H157883   1.449   5.215   1.090
 8116TIP3    H257884   1.568   5.271   1.015
 8117TIP3   OH257885   1.549   4.026   1.192
 8117TIP3    H157886   1.466   4.059   1.151
 8117TIP3    H257887   1.619   4.068   1.139
 8118TIP3   OH257888   0.832   3.819   0.957
 8118TIP3    H157889   0.801   3.727   0.948
 8118TIP3    H257890   0.749   3.862   0.990
 8119TIP3   OH257891   1.373   5.371   0.721
 8119TIP3    H157892   1.404   5.289   0.677
 8119TIP3    H257893   1.448   5.432   0.700
 8120TIP3   OH257894   1.485   5.149   0.577
 8120TIP3    H157895   1.469   5.080   0.510
 8120TIP3    H257896   1.471   5.098   0.659
 8121TIP3   OH257897   1.649   5.029   1.455
 8121TIP3    H157898   1.649   4.954   1.391
 8121TIP3    H257899   1.650   5.104   1.393
 8122TIP3   OH257900   1.093   4.700   0.403
 8122TIP3    H157901   1.035   4.778   0.393
 8122TIP3    H257902   1.179   4.731   0.367
 8123TIP3   OH257903   1.101   4.615   0.126
 8123TIP3    H157904   1.155   4.634   0.206
 8123TIP3    H257905   1.146   4.538   0.090
 8124TIP3   OH257906   1.855   4.672   1.218
 8124TIP3    H157907   1.793   4.746   1.232
 8124TIP3    H257908   1.915   4.713   1.152
 8125TIP3   OH257909   1.495   4.738   0.523
 8125TIP3    H157910   1.416   4.753   0.581
 8125TIP3    H257911   1.549   4.679   0.581
 8126TIP3   OH257912   1.466   4.551   1.442
 8126TIP3    H157913   1.432   4.632   1.484
 8126TIP3    H257914   1.411   4.549   1.362
 8127TIP3   OH257915   0.636   4.783   0.679
 8127TIP3    H157916   0.578   4.737   0.615
 8127TIP3    H257917   0.689   4.710   0.719
 8128TIP3   OH257918   0.755   5.124   0.955
 8128TIP3    H157919   0.760   5.121   0.858
 8128TIP3    H257920   0.834   5.077   0.985
 8129TIP3   OH257921   0.651   4.648   1.060
 8129TIP3    H157922   0.687   4.652   0.968
 8129TIP3    H257923   0.689   4.728   1.102
 8130TIP3   OH257924   1.291   5.237   1.139
 8130TIP3    H157925   1.243   5.291   1.203
 8130TIP3    H257926   1.274   5.146   1.168
 8131TIP3   OH257927   0.747   5.118   1.508
 8131TIP3    H157928   0.676   5.169   1.553
 8131TIP3    H257929   0.698   5.089   1.428
 8132TIP3   OH257930   1.337   4.678   0.297
 8132TIP3    H157931   1.398   4.706   0.370
 8132TIP3    H257932   1.382   4.714   0.217
 8133TIP3   OH257933   0.435   4.724   1.440
 8133TIP3    H157934   0.446   4.785   1.515
 8133TIP3    H257935   0.338   4.713   1.443
 8134TIP3   OH257936   1.091   5.263   0.639
 8134TIP3    H157937   1.128   5.322   0.705
 8134TIP3    H257938   1.048   5.323   0.577
 8135TIP3   OH257939   0.547   5.286   1.603
 8135TIP3    H157940   0.542   5.323   1.511
 8135TIP3    H257941   0.452   5.269   1.620
 8136TIP3   OH257942   1.745   3.806   0.319
 8136TIP3    H157943   1.648   3.818   0.321
 8136TIP3    H257944   1.774   3.885   0.270
 8137TIP3   OH257945   0.466   4.679   0.492
 8137TIP3    H157946   0.451   4.753   0.430
 8137TIP3    H257947   0.430   4.603   0.444
 8138TIP3   OH257948   1.812   5.247   0.085
 8138TIP3    H157949   1.843   5.339   0.092
 8138TIP3    H257950   1.898   5.201   0.094
 8139TIP3   OH257951   0.145   4.928   1.351
 8139TIP3    H157952   0.091   4.923   1.270
 8139TIP3    H257953   0.144   4.836   1.383
 8140TIP3   OH257954   0.144   5.224   0.986
 8140TIP3    H157955   0.227   5.175   0.963
 8140TIP3    H257956   0.174   5.269   1.068
 8141TIP3   OH257957   1.911   5.271   1.597
 8141TIP3    H157958   1.900   5.176   1.589
 8141TIP3    H257959   1.828   5.291   1.646
 8142TIP3   OH257960   1.012   5.225   1.489
 8142TIP3    H157961   1.026   5.291   1.559
 8142TIP3    H257962   0.917   5.204   1.495
 8143TIP3   OH257963   1.071   5.602   0.430
 8143TIP3    H157964   1.067   5.623   0.334
 8143TIP3    H257965   1.066   5.691   0.471
 8144TIP3   OH257966   0.424   5.470   0.638
 8144TIP3    H157967   0.430   5.432   0.729
 8144TIP3    H257968   0.331   5.454   0.615
 8145TIP3   OH257969   1.370   5.546   0.152
 8145TIP3    H157970   1.419   5.467   0.123
 8145TIP3    H257971   1.370   5.534   0.249
 8146TIP3   OH257972   1.339   5.520   0.430
 8146TIP3    H157973   1.243   5.542   0.437
 8146TIP3    H257974   1.340   5.434   0.475
 8147TIP3   OH257975   1.624   4.408   1.644
 8147TIP3    H157976   1.584   4.469   1.578
 8147TIP3    H257977   1.620   4.323   1.596
 8148TIP3   OH257978   0.358   5.071   1.435
 8148TIP3    H157979   0.333   5.071   1.529
 8148TIP3    H257980   0.279   5.025   1.397
 8149TIP3   OH257981   0.615   3.929   1.051
 8149TIP3    H157982   0.528   3.934   1.006
 8149TIP3    H257983   0.597   3.981   1.131
 8150TIP3   OH257984   1.110   3.893   1.379
 8150TIP3    H157985   1.146   3.835   1.450
 8150TIP3    H257986   1.013   3.882   1.386
 8151TIP3   OH257987   1.391   4.273   1.486
 8151TIP3    H157988   1.335   4.234   1.558
 8151TIP3    H257989   1.386   4.369   1.505
 8152TIP3   OH257990   1.463   4.777   0.086
 8152TIP3    H157991   1.480   4.782  -0.009
 8152TIP3    H257992   1.536   4.833   0.119
 8153TIP3   OH257993   1.060   4.176   0.112
 8153TIP3    H157994   1.012   4.180   0.195
 8153TIP3    H257995   1.037   4.087   0.082
 8154TIP3   OH257996   0.644   4.410   1.160
 8154TIP3    H157997   0.598   4.440   1.240
 8154TIP3    H257998   0.645   4.496   1.111
 8155TIP3   OH257999   0.635   4.393   0.662
 8155TIP3    H158000   0.539   4.391   0.642
 8155TIP3    H258001   0.674   4.375   0.573
 8156TIP3   OH258002   1.181   4.495   0.541
 8156TIP3    H158003   1.141   4.572   0.493
 8156TIP3    H258004   1.245   4.463   0.474
 8157TIP3   OH258005   1.052   4.492   1.659
 8157TIP3    H158006   1.013   4.412   1.701
 8157TIP3    H258007   1.095   4.531   1.736
 8158TIP3   OH258008   1.309   4.442   0.833
 8158TIP3    H158009   1.287   4.524   0.784
 8158TIP3    H258010   1.274   4.377   0.771
 8159TIP3   OH258011   0.370   4.424   1.295
 8159TIP3    H158012   0.423   4.442   1.373
 8159TIP3    H258013   0.345   4.331   1.306
 8160TIP3   OH258014   0.723   4.201   0.069
 8160TIP3    H158015   0.678   4.156   0.143
 8160TIP3    H258016   0.691   4.292   0.071
 8161TIP3   OH258017   0.124   4.123   0.754
 8161TIP3    H158018   0.208   4.131   0.801
 8161TIP3    H258019   0.144   4.149   0.663
 8162TIP3   OH258020   0.153   4.226   0.253
 8162TIP3    H158021   0.222   4.232   0.186
 8162TIP3    H258022   0.102   4.307   0.236
 8163TIP3   OH258023   1.206   4.597   1.258
 8163TIP3    H158024   1.253   4.527   1.207
 8163TIP3    H258025   1.142   4.542   1.309
 8164TIP3   OH258026   0.916   4.168   0.767
 8164TIP3    H158027   0.826   4.174   0.801
 8164TIP3    H258028   0.961   4.115   0.837
 8165TIP3   OH258029   0.365   4.295   0.647
 8165TIP3    H158030   0.302   4.326   0.579
 8165TIP3    H258031   0.399   4.210   0.612
 8166TIP3   OH258032   0.709   4.349   0.391
 8166TIP3    H158033   0.805   4.368   0.395
 8166TIP3    H258034   0.676   4.402   0.315
 8167TIP3   OH258035   1.318   4.099   1.081
 8167TIP3    H158036   1.239   4.090   1.136
 8167TIP3    H258037   1.301   4.040   1.006
 8168TIP3   OH258038   0.605   4.462   0.149
 8168TIP3    H158039   0.549   4.452   0.070
 8168TIP3    H258040   0.688   4.500   0.111
 8169TIP3   OH258041   1.615   5.666   1.732
 8169TIP3    H158042   1.663   5.688   1.651
 8169TIP3    H258043   1.690   5.668   1.795
 8170TIP3   OH258044   0.395   4.896   1.685
 8170TIP3    H158045   0.432   4.889   1.774
 8170TIP3    H258046   0.302   4.922   1.706
 8171TIP3   OH258047   0.953   4.468   0.917
 8171TIP3    H158048   1.042   4.435   0.896
 8171TIP3    H258049   0.916   4.396   0.972
 8172TIP3   OH258050   0.466   4.053   0.590
 8172TIP3    H158051   0.415   3.978   0.628
 8172TIP3    H258052   0.519   4.009   0.522
 8173TIP3   OH258053   0.872   4.280   1.187
 8173TIP3    H158054   0.791   4.336   1.183
 8173TIP3    H258055   0.936   4.337   1.231
 8174TIP3   OH258056   0.935   4.910   0.381
 8174TIP3    H158057   0.859   4.869   0.335
 8174TIP3    H258058   0.891   4.939   0.465
 8175TIP3   OH258059   1.658   4.863   1.249
 8175TIP3    H158060   1.708   4.916   1.183
 8175TIP3    H258061   1.573   4.853   1.203
 8176TIP3   OH258062   1.319   4.198   0.163
 8176TIP3    H158063   1.231   4.211   0.123
 8176TIP3    H258064   1.329   4.280   0.216
 8177TIP3   OH258065   1.118   4.964   1.514
 8177TIP3    H158066   1.043   4.904   1.506
 8177TIP3    H258067   1.075   5.052   1.510
 8178TIP3   OH258068   1.371   4.406   0.349
 8178TIP3    H158069   1.438   4.385   0.417
 8178TIP3    H258070   1.409   4.486   0.307
 8179TIP3   OH258071   0.454   4.858   0.888
 8179TIP3    H158072   0.495   4.839   0.802
 8179TIP3    H258073   0.479   4.779   0.939
 8180TIP3   OH258074   1.142   5.049   0.269
 8180TIP3    H158075   1.097   5.134   0.292
 8180TIP3    H258076   1.076   4.984   0.298
 8181TIP3   OH258077   0.161   4.670   1.445
 8181TIP3    H158078   0.163   4.622   1.530
 8181TIP3    H258079   0.126   4.605   1.382
 8182TIP3   OH258080   0.813   4.655   1.637
 8182TIP3    H158081   0.763   4.627   1.559
 8182TIP3    H258082   0.898   4.610   1.623
 8183TIP3   OH258083   1.328   5.195   1.496
 8183TIP3    H158084   1.251   5.211   1.440
 8183TIP3    H258085   1.298   5.233   1.582
 8184TIP3   OH258086   1.864   4.396   0.319
 8184TIP3    H158087   1.796   4.390   0.249
 8184TIP3    H258088   1.883   4.492   0.313
 8185TIP3   OH258089   1.874   4.966   1.593
 8185TIP3    H158090   1.787   4.999   1.559
 8185TIP3    H258091   1.929   4.964   1.512
 8186TIP3   OH258092   1.695   5.272   0.333
 8186TIP3    H158093   1.663   5.187   0.363
 8186TIP3    H258094   1.723   5.259   0.240
 8187TIP3   OH258095   1.420   4.773   1.042
 8187TIP3    H158096   1.330   4.742   1.025
 8187TIP3    H258097   1.471   4.704   0.995
 8188TIP3   OH258098   0.670   5.205   0.696
 8188TIP3    H158099   0.693   5.293   0.660
 8188TIP3    H258100   0.577   5.198   0.668
 8189TIP3   OH258101   0.246   4.684   0.208
 8189TIP3    H158102   0.329   4.733   0.196
 8189TIP3    H258103   0.180   4.738   0.161
 8190TIP3   OH258104   0.807   4.975   0.613
 8190TIP3    H158105   0.762   5.055   0.647
 8190TIP3    H258106   0.754   4.904   0.655
 8191TIP3   OH258107   0.864   5.386   1.288
 8191TIP3    H158108   0.921   5.457   1.252
 8191TIP3    H258109   0.923   5.351   1.358
 8192TIP3   OH258110   0.700   5.453   0.573
 8192TIP3    H158111   0.604   5.458   0.587
 8192TIP3    H258112   0.728   5.537   0.615
 8193TIP3   OH258113   1.197   4.970   1.231
 8193TIP3    H158114   1.196   4.957   1.329
 8193TIP3    H258115   1.256   4.898   1.203
 8194TIP3   OH258116   1.448   5.115   0.173
 8194TIP3    H158117   1.473   5.056   0.248
 8194TIP3    H258118   1.356   5.084   0.163
 8195TIP3   OH258119   1.495   5.418   1.474
 8195TIP3    H158120   1.410   5.371   1.460
 8195TIP3    H258121   1.499   5.477   1.397
 8196TIP3   OH258122   1.887   5.523   0.166
 8196TIP3    H158123   1.933   5.594   0.118
 8196TIP3    H258124   1.817   5.575   0.212
 8197TIP3   OH258125   0.320   4.159   1.398
 8197TIP3    H158126   0.258   4.195   1.465
 8197TIP3    H258127   0.300   4.064   1.406
 8198TIP3   OH258128   1.533   4.951   0.370
 8198TIP3    H158129   1.519   4.866   0.419
 8198TIP3    H258130   1.629   4.958   0.379
 8199TIP3   OH258131   0.270   5.338   1.218
 8199TIP3    H158132   0.342   5.277   1.240
 8199TIP3    H258133   0.261   5.389   1.300
 8200TIP3   OH258134   0.735   5.146   0.227
 8200TIP3    H158135   0.812   5.099   0.263
 8200TIP3    H258136   0.753   5.240   0.251
 8201TIP3   OH258137   0.414   4.891   0.293
 8201TIP3    H158138   0.334   4.919   0.342
 8201TIP3    H258139   0.441   4.974   0.249
 8202TIP3   OH258140   1.177   4.152   1.333
 8202TIP3    H158141   1.267   4.156   1.368
 8202TIP3    H258142   1.150   4.060   1.353
 8203TIP3   OH258143   1.255   4.092   0.421
 8203TIP3    H158144   1.303   4.128   0.345
 8203TIP3    H258145   1.306   4.126   0.498
 8204TIP3   OH258146   1.040   5.290   0.329
 8204TIP3    H158147   0.962   5.346   0.329
 8204TIP3    H258148   1.092   5.325   0.254
 8205TIP3   OH258149   0.966   4.289   0.515
 8205TIP3    H158150   1.032   4.359   0.532
 8205TIP3    H258151   0.939   4.257   0.603
 8206TIP3   OH258152   1.082   4.403   1.386
 8206TIP3    H158153   1.095   4.416   1.482
 8206TIP3    H258154   1.123   4.316   1.367
 8207TIP3   OH258155   1.059   3.962   0.558
 8207TIP3    H158156   1.027   4.032   0.617
 8207TIP3    H258157   1.132   4.010   0.511
 8208TIP3   OH258158   0.775   5.402   0.301
 8208TIP3    H158159   0.797   5.488   0.257
 8208TIP3    H258160   0.737   5.437   0.386
 8209TIP3   OH258161   0.618   4.095   0.297
 8209TIP3    H158162   0.608   4.174   0.353
 8209TIP3    H258163   0.711   4.073   0.321
 8210TIP3   OH258164   1.624   4.153   1.539
 8210TIP3    H158165   1.533   4.174   1.506
 8210TIP3    H258166   1.676   4.157   1.456
 8211TIP3   OH258167   1.543   4.549   0.909
 8211TIP3    H158168   1.462   4.494   0.904
 8211TIP3    H258169   1.604   4.490   0.959
 8212TIP3   OH258170   0.469   5.137   0.142
 8212TIP3    H158171   0.530   5.180   0.203
 8212TIP3    H258172   0.532   5.072   0.103
 8213TIP3   OH258173   0.296   4.434   0.038
 8213TIP3    H158174   0.319   4.506   0.098
 8213TIP3    H258175   0.200   4.426   0.053
 8214TIP3   OH258176   1.616   5.465   1.067
 8214TIP3    H158177   1.611   5.539   1.002
 8214TIP3    H258178   1.713   5.458   1.075
 8215TIP3   OH258179   0.372   3.888   0.966
 8215TIP3    H158180   0.361   3.865   0.871
 8215TIP3    H258181   0.336   3.806   1.008
 8216TIP3   OH258182   0.261   5.248   0.557
 8216TIP3    H158183   0.171   5.280   0.564
 8216TIP3    H258184   0.290   5.303   0.481
 8217TIP3   OH258185   0.153   5.561   1.711
 8217TIP3    H158186   0.218   5.513   1.766
 8217TIP3    H258187   0.091   5.490   1.688
 8218TIP3   OH258188   0.645   5.405   1.843
 8218TIP3    H158189   0.742   5.403   1.849
 8218TIP3    H258190   0.630   5.387   1.747
 8219TIP3   OH258191   1.130   5.391   0.081
 8219TIP3    H158192   1.061   5.344   0.029
 8219TIP3    H258193   1.185   5.425   0.008
 8220TIP3   OH258194   1.264   5.313   1.733
 8220TIP3    H158195   1.237   5.222   1.760
 8220TIP3    H258196   1.350   5.321   1.780
 8221TIP3   OH258197   1.549   5.336   0.015
 8221TIP3    H158198   1.503   5.267   0.066
 8221TIP3    H258199   1.641   5.313   0.042
 8222TIP3   OH258200   0.139   4.933   1.751
 8222TIP3    H158201   0.143   4.848   1.799
 8222TIP3    H258202   0.042   4.943   1.744
 8223TIP3   OH258203   0.645   4.944   0.040
 8223TIP3    H158204   0.699   4.912   0.116
 8223TIP3    H258205   0.669   4.881  -0.030
 8224TIP3   OH258206   1.395   4.910   1.490
 8224TIP3    H158207   1.477   4.965   1.495
 8224TIP3    H258208   1.328   4.979   1.508
 8225TIP3   OH258209   0.227   4.615   1.758
 8225TIP3    H158210   0.315   4.576   1.755
 8225TIP3    H258211   0.232   4.664   1.843
 8226TIP3   OH258212   0.742   4.775   0.243
 8226TIP3    H158213   0.665   4.733   0.284
 8226TIP3    H258214   0.777   4.703   0.187
 8227TIP3   OH258215   0.634   4.539   1.405
 8227TIP3    H158216   0.567   4.605   1.436
 8227TIP3    H258217   0.705   4.598   1.371
 8228TIP3   OH258218   0.838   4.581   0.056
 8228TIP3    H158219   0.862   4.581  -0.038
 8228TIP3    H258220   0.929   4.589   0.097
 8229TIP3   OH258221   1.181   4.807   1.819
 8229TIP3    H158222   1.223   4.781   1.735
 8229TIP3    H258223   1.144   4.723   1.853
 8230TIP3   OH258224   1.741   4.855   8.487
 8230TIP3    H158225   1.699   4.877   8.403
 8230TIP3    H258226   1.772   4.941   8.518
 8231TIP3   OH258227   0.712   4.324   1.550
 8231TIP3    H158228   0.725   4.245   1.494
 8231TIP3    H258229   0.714   4.396   1.483
 8232TIP3   OH258230   0.762   4.112   1.353
 8232TIP3    H158231   0.823   4.162   1.291
 8232TIP3    H258232   0.680   4.116   1.299
 8233TIP3   OH258233   0.865   4.700   1.341
 8233TIP3    H158234   0.946   4.725   1.295
 8233TIP3    H258235   0.804   4.769   1.306
 8234TIP3   OH258236   1.341   4.420   1.825
 8234TIP3    H158237   1.392   4.396   1.747
 8234TIP3    H258238   1.392   4.496   1.857
 8235TIP3   OH258239   1.470   4.729   1.674
 8235TIP3    H158240   1.441   4.794   1.607
 8235TIP3    H258241   1.567   4.730   1.660
 8236TIP3   OH258242   0.516   4.416   1.739
 8236TIP3    H158243   0.457   4.339   1.737
 8236TIP3    H258244   0.584   4.390   1.672
 8237TIP3   OH258245   0.837   3.857   1.348
 8237TIP3    H158246   0.796   3.946   1.354
 8237TIP3    H258247   0.762   3.803   1.318
 8238TIP3   OH258248   0.947   4.262   1.755
 8238TIP3    H158249   0.884   4.251   1.829
 8238TIP3    H258250   0.882   4.266   1.683
 8239TIP3   OH258251   1.220   4.183   1.668
 8239TIP3    H158252   1.131   4.220   1.681
 8239TIP3    H258253   1.203   4.093   1.698
 8240TIP3   OH258254   0.355   4.173   1.789
 8240TIP3    H158255   0.344   4.111   1.715
 8240TIP3    H258256   0.345   4.115   1.866
 8241TIP3   OH258257   0.824   3.799   1.630
 8241TIP3    H158258   0.895   3.733   1.621
 8241TIP3    H258259   0.825   3.834   1.539
 8242TIP3   OH258260   0.820   3.913   1.897
 8242TIP3    H158261   0.824   3.874   1.807
 8242TIP3    H258262   0.796   4.006   1.877
 8243TIP3   OH258263   0.816   5.638   0.192
 8243TIP3    H158264   0.901   5.683   0.175
 8243TIP3    H258265   0.758   5.683   0.131
 8244TIP3   OH258266   0.208   5.112   0.085
 8244TIP3    H158267   0.301   5.139   0.105
 8244TIP3    H258268   0.213   5.111  -0.013
 8245TIP3   OH258269   0.093   5.626   0.604
 8245TIP3    H158270   0.031   5.559   0.567
 8245TIP3    H258271   0.112   5.581   0.689
 8246TIP3   OH258272   0.146   5.462   0.815
 8246TIP3    H158273   0.108   5.375   0.839
 8246TIP3    H258274   0.194   5.484   0.898
 8247TIP3   OH258275   1.891   5.522   1.067
 8247TIP3    H158276   1.918   5.532   1.159
 8247TIP3    H258277   1.945   5.590   1.024
 8248TIP3   OH258278   1.849   5.462   1.382
 8248TIP3    H158279   1.818   5.385   1.330
 8248TIP3    H258280   1.869   5.418   1.467
 8249TIP3   OH258281   1.699   5.045   1.895
 8249TIP3    H158282   1.603   5.054   1.916
 8249TIP3    H258283   1.730   5.134   1.922
 8250TIP3   OH258284   1.808   4.900   0.378
 8250TIP3    H158285   1.896   4.943   0.391
 8250TIP3    H258286   1.806   4.838   0.454
 8251TIP3   OH258287   1.859   4.705   0.589
 8251TIP3    H158288   1.780   4.671   0.636
 8251TIP3    H258289   1.922   4.716   0.662
 8252TIP3   OH258290   1.823   4.967   1.076
 8252TIP3    H158291   1.886   4.899   1.044
 8252TIP3    H258292   1.865   5.050   1.046
 8253TIP3   OH258293   1.683   5.251   1.302
 8253TIP3    H158294   1.632   5.319   1.350
 8253TIP3    H258295   1.629   5.235   1.222
 8254TIP3   OH258296   1.858   4.666   0.209
 8254TIP3    H158297   1.800   4.688   0.134
 8254TIP3    H258298   1.841   4.741   0.269
 8255TIP3   OH258299   1.660   4.400   0.095
 8255TIP3    H158300   1.734   4.438   0.043
 8255TIP3    H258301   1.670   4.306   0.069
 8256TIP3   OH258302   1.643   4.567   0.666
 8256TIP3    H158303   1.624   4.476   0.636
 8256TIP3    H258304   1.619   4.561   0.761
 8257TIP3   OH258305   0.174   4.780   1.047
 8257TIP3    H158306   0.165   4.743   0.956
 8257TIP3    H258307   0.266   4.755   1.073
 8258TIP3   OH258308   1.735   4.742   1.629
 8258TIP3    H158309   1.793   4.662   1.631
 8258TIP3    H258310   1.799   4.815   1.615
 8259TIP3   OH258311   1.870   4.513   1.654
 8259TIP3    H158312   1.785   4.465   1.666
 8259TIP3    H258313   1.935   4.440   1.649
 8260TIP3   OH258314   1.644   4.157  -0.027
 8260TIP3    H158315   1.694   4.105   0.040
 8260TIP3    H258316   1.552   4.154   0.004
 8261TIP3   OH258317   1.580   4.338   0.511
 8261TIP3    H158318   1.613   4.250   0.539
 8261TIP3    H258319   1.626   4.340   0.425
 8262TIP3   OH258320   1.697   4.378   1.055
 8262TIP3    H158321   1.795   4.391   1.060
 8262TIP3    H258322   1.673   4.386   1.149
 8263TIP3   OH258323   1.685   4.448   1.325
 8263TIP3    H158324   1.595   4.475   1.354
 8263TIP3    H258325   1.728   4.534   1.304
 8264TIP3   OH258326   0.120   4.256   1.640
 8264TIP3    H158327   0.166   4.269   1.725
 8264TIP3    H258328   0.045   4.199   1.664
 8265TIP3   OH258329   1.872   3.859   1.806
 8265TIP3    H158330   1.925   3.785   1.770
 8265TIP3    H258331   1.901   3.934   1.753
 8266TIP3   OH258332   1.658   4.071   0.517
 8266TIP3    H158333   1.694   4.023   0.594
 8266TIP3    H258334   1.619   4.000   0.464
 8267TIP3   OH258335   0.253   4.119   1.034
 8267TIP3    H158336   0.290   4.030   1.013
 8267TIP3    H258337   0.331   4.177   1.030
 8268TIP3   OH258338   0.100   4.408   1.056
 8268TIP3    H158339   0.166   4.385   0.988
 8268TIP3    H258340   0.115   4.503   1.065
 8269TIP3   OH258341   1.857   4.093   1.656
 8269TIP3    H158342   1.762   4.118   1.645
 8269TIP3    H258343   1.861   4.024   1.587
 8270TIP3   OH258344   1.839   4.062   0.145
 8270TIP3    H158345   1.880   4.008   0.076
 8270TIP3    H258346   1.918   4.105   0.184
 8271TIP3   OH258347   0.094   4.051   0.454
 8271TIP3    H158348  -0.003   4.048   0.441
 8271TIP3    H258349   0.123   4.094   0.371
 8272TIP3   OH258350   1.558   5.559   0.687
 8272TIP3    H158351   1.624   5.527   0.621
 8272TIP3    H258352   1.612   5.608   0.751
 8273TIP3   OH258353   0.108   3.913   1.305
 8273TIP3    H158354   0.047   3.905   1.380
 8273TIP3    H258355   0.066   3.978   1.247
 8274TIP3   OH258356   0.288   5.245   1.698
 8274TIP3    H158357   0.200   5.284   1.692
 8274TIP3    H258358   0.311   5.260   1.790
 8275TIP3   OH258359   0.596   5.379   1.348
 8275TIP3    H158360   0.591   5.472   1.315
 8275TIP3    H258361   0.692   5.364   1.339
 8276TIP3   OH258362   1.028   5.527   1.617
 8276TIP3    H158363   1.028   5.497   1.712
 8276TIP3    H258364   1.123   5.544   1.601
 8277TIP3   OH258365   1.261   5.663   1.568
 8277TIP3    H158366   1.334   5.611   1.533
 8277TIP3    H258367   1.292   5.688   1.657
 8278TIP3   OH258368   1.749   3.843   1.492
 8278TIP3    H158369   1.678   3.891   1.447
 8278TIP3    H258370   1.747   3.756   1.448
 8279TIP3   OH258371   0.337   5.666   1.346
 8279TIP3    H158372   0.255   5.705   1.307
 8279TIP3    H258373   0.333   5.699   1.438
 8280TIP3   OH258374   0.584   5.625   1.237
 8280TIP3    H158375   0.494   5.647   1.271
 8280TIP3    H258376   0.592   5.685   1.160
 8281TIP3   OH258377   1.048   5.584   1.160
 8281TIP3    H158378   1.006   5.639   1.092
 8281TIP3    H258379   1.067   5.653   1.228
 8282TIP3   OH258380   1.251   5.462   1.304
 8282TIP3    H158381   1.187   5.499   1.240
 8282TIP3    H258382   1.326   5.520   1.284
 8283TIP3   OH258383   1.524   5.607   1.280
 8283TIP3    H158384   1.520   5.690   1.229
 8283TIP3    H258385   1.565   5.546   1.214
 8284TIP3   OH258386   0.308   5.529   1.030
 8284TIP3    H158387   0.281   5.473   1.106
 8284TIP3    H258388   0.388   5.483   0.997
 8285TIP3   OH258389   0.490   5.395   0.894
 8285TIP3    H158390   0.479   5.300   0.910
 8285TIP3    H258391   0.577   5.409   0.938
 8286TIP3   OH258392   0.719   5.388   1.038
 8286TIP3    H158393   0.757   5.299   1.016
 8286TIP3    H258394   0.756   5.400   1.128
 8287TIP3   OH258395   1.026   3.992   0.938
 8287TIP3    H158396   0.954   3.925   0.948
 8287TIP3    H258397   1.094   3.945   0.888
 8288TIP3   OH258398   1.623   3.811   0.906
 8288TIP3    H158399   1.690   3.862   0.854
 8288TIP3    H258400   1.538   3.840   0.866
 8289TIP3   OH258401   1.789   3.917   0.711
 8289TIP3    H158402   1.852   3.860   0.660
 8289TIP3    H258403   1.848   3.992   0.734
 8290TIP3   OH258404   0.351   3.838   0.693
 8290TIP3    H158405   0.268   3.823   0.643
 8290TIP3    H258406   0.396   3.750   0.685
 8291TIP3   OH258407   0.242   3.798   0.256
 8291TIP3    H158408   0.269   3.869   0.193
 8291TIP3    H258409   0.186   3.844   0.319
 8292TIP3   OH258410   0.774   3.817   0.675
 8292TIP3    H158411   0.862   3.826   0.636
 8292TIP3    H258412   0.785   3.856   0.764
 8293TIP3   OH258413   1.366   3.861   0.805
 8293TIP3    H158414   1.337   3.879   0.715
 8293TIP3    H258415   1.318   3.777   0.825
 8294TIP3   OH258416   1.491   3.844   0.365
 8294TIP3    H158417   1.407   3.887   0.347
 8294TIP3    H258418   1.460   3.762   0.410
 8295TIP3   OH258419   0.219   5.433   0.361
 8295TIP3    H158420   0.123   5.421   0.349
 8295TIP3    H258421   0.224   5.529   0.337
 8296TIP3   OH258422   0.390   3.995   0.115
 8296TIP3    H158423   0.463   3.944   0.080
 8296TIP3    H258424   0.435   4.051   0.180
 8297TIP3   OH258425   0.897   4.079   0.358
 8297TIP3    H158426   0.949   4.021   0.418
 8297TIP3    H258427   0.920   4.166   0.399
 8298TIP3   OH258428   1.106   5.642   0.170
 8298TIP3    H158429   1.196   5.654   0.132
 8298TIP3    H258430   1.099   5.546   0.153
 8299TIP3   OH258431   1.731   5.481   0.500
 8299TIP3    H158432   1.726   5.407   0.433
 8299TIP3    H258433   1.736   5.558   0.439
 8300TIP3   OH258434   0.314   3.903   1.587
 8300TIP3    H158435   0.246   3.841   1.621
 8300TIP3    H258436   0.385   3.887   1.653
 8301TIP3   OH258437   0.509   3.865   1.790
 8301TIP3    H158438   0.595   3.851   1.748
 8301TIP3    H258439   0.509   3.796   1.859
 8302TIP3   OH258440   0.375   5.478   0.070
 8302TIP3    H158441   0.339   5.520   0.149
 8302TIP3    H258442   0.435   5.412   0.105
 8303TIP3   OH258443   1.356   3.809   1.784
 8303TIP3    H158444   1.340   3.750   1.860
 8303TIP3    H258445   1.453   3.795   1.770
 8304TIP3   OH258446   1.680   5.400   1.658
 8304TIP3    H158447   1.610   5.371   1.595
 8304TIP3    H258448   1.650   5.492   1.671
 8305TIP3   OH258449   3.143   4.787   0.671
 8305TIP3    H158450   3.133   4.884   0.677
 8305TIP3    H258451   3.061   4.761   0.626
 8306TIP3   OH258452   3.020   4.672   1.014
 8306TIP3    H158453   3.020   4.635   1.105
 8306TIP3    H258454   2.943   4.631   0.970
 8307TIP3   OH258455   2.218   4.659   1.149
 8307TIP3    H158456   2.216   4.586   1.213
 8307TIP3    H258457   2.300   4.704   1.176
 8308TIP3   OH258458   3.335   4.978   0.843
 8308TIP3    H158459   3.309   4.911   0.908
 8308TIP3    H258460   3.372   5.046   0.902
 8309TIP3   OH258461   2.336   5.124   0.990
 8309TIP3    H158462   2.306   5.036   0.959
 8309TIP3    H258463   2.432   5.110   0.982
 8310TIP3   OH258464   2.014   4.441   0.550
 8310TIP3    H158465   1.983   4.530   0.575
 8310TIP3    H258466   1.954   4.420   0.477
 8311TIP3   OH258467   2.053   4.694   0.801
 8311TIP3    H158468   2.090   4.606   0.827
 8311TIP3    H258469   2.133   4.750   0.793
 8312TIP3   OH258470   3.102   5.533   0.843
 8312TIP3    H158471   3.162   5.469   0.797
 8312TIP3    H258472   3.080   5.478   0.919
 8313TIP3   OH258473   2.824   4.945   1.112
 8313TIP3    H158474   2.857   4.944   1.021
 8313TIP3    H258475   2.907   4.961   1.161
 8314TIP3   OH258476   3.705   4.088   1.110
 8314TIP3    H158477   3.705   4.144   1.190
 8314TIP3    H258478   3.794   4.110   1.076
 8315TIP3   OH258479   3.203   4.388   1.110
 8315TIP3    H158480   3.225   4.297   1.133
 8315TIP3    H258481   3.188   4.380   1.014
 8316TIP3   OH258482   2.495   4.168   0.784
 8316TIP3    H158483   2.507   4.253   0.737
 8316TIP3    H258484   2.445   4.119   0.717
 8317TIP3   OH258485   3.250   4.197   0.650
 8317TIP3    H158486   3.302   4.174   0.731
 8317TIP3    H258487   3.299   4.274   0.618
 8318TIP3   OH258488   2.133   4.442   0.882
 8318TIP3    H158489   2.193   4.399   0.945
 8318TIP3    H258490   2.163   4.401   0.797
 8319TIP3   OH258491   2.617   4.589   0.829
 8319TIP3    H158492   2.703   4.546   0.852
 8319TIP3    H258493   2.583   4.522   0.766
 8320TIP3   OH258494   3.717   4.225   1.344
 8320TIP3    H158495   3.685   4.315   1.320
 8320TIP3    H258496   3.740   4.237   1.438
 8321TIP3   OH258497   2.388   4.087   1.211
 8321TIP3    H158498   2.342   4.137   1.142
 8321TIP3    H258499   2.328   4.102   1.288
 8322TIP3   OH258500   3.069   5.025   0.564
 8322TIP3    H158501   3.053   5.026   0.468
 8322TIP3    H258502   3.045   5.117   0.590
 8323TIP3   OH258503   2.592   4.850   1.218
 8323TIP3    H158504   2.534   4.922   1.251
 8323TIP3    H258505   2.669   4.900   1.183
 8324TIP3   OH258506   3.406   4.167   0.868
 8324TIP3    H158507   3.376   4.122   0.949
 8324TIP3    H258508   3.498   4.189   0.888
 8325TIP3   OH258509   2.343   4.276   1.013
 8325TIP3    H158510   2.403   4.342   1.054
 8325TIP3    H258511   2.394   4.251   0.932
 8326TIP3   OH258512   2.475   5.078   1.310
 8326TIP3    H158513   2.469   5.167   1.272
 8326TIP3    H258514   2.383   5.071   1.346
 8327TIP3   OH258515   2.061   5.013   0.389
 8327TIP3    H158516   2.064   5.064   0.305
 8327TIP3    H258517   2.077   5.082   0.457
 8328TIP3   OH258518   3.431   5.186   1.064
 8328TIP3    H158519   3.341   5.211   1.094
 8328TIP3    H258520   3.452   5.265   1.011
 8329TIP3   OH258521   3.420   4.023   1.197
 8329TIP3    H158522   3.337   4.054   1.154
 8329TIP3    H258523   3.488   4.048   1.131
 8330TIP3   OH258524   2.740   3.830   0.954
 8330TIP3    H158525   2.710   3.738   0.946
 8330TIP3    H258526   2.654   3.871   0.983
 8331TIP3   OH258527   3.264   5.361   0.727
 8331TIP3    H158528   3.290   5.283   0.674
 8331TIP3    H258529   3.342   5.420   0.714
 8332TIP3   OH258530   3.357   5.147   0.577
 8332TIP3    H158531   3.348   5.078   0.509
 8332TIP3    H258532   3.345   5.092   0.657
 8333TIP3   OH258533   3.540   5.019   1.445
 8333TIP3    H158534   3.543   4.944   1.381
 8333TIP3    H258535   3.556   5.094   1.385
 8334TIP3   OH258536   2.988   4.702   0.415
 8334TIP3    H158537   2.923   4.773   0.390
 8334TIP3    H258538   3.072   4.739   0.381
 8335TIP3   OH258539   2.990   4.602   0.139
 8335TIP3    H158540   3.052   4.624   0.212
 8335TIP3    H258541   3.031   4.522   0.103
 8336TIP3   OH258542   3.729   4.661   1.235
 8336TIP3    H158543   3.656   4.727   1.233
 8336TIP3    H258544   3.788   4.698   1.166
 8337TIP3   OH258545   3.371   4.742   0.533
 8337TIP3    H158546   3.293   4.761   0.590
 8337TIP3    H258547   3.426   4.685   0.594
 8338TIP3   OH258548   3.349   4.560   1.451
 8338TIP3    H158549   3.318   4.642   1.492
 8338TIP3    H258550   3.300   4.564   1.367
 8339TIP3   OH258551   2.491   4.773   0.688
 8339TIP3    H158552   2.482   4.728   0.602
 8339TIP3    H258553   2.555   4.715   0.736
 8340TIP3   OH258554   2.641   5.119   0.973
 8340TIP3    H158555   2.650   5.093   0.881
 8340TIP3    H258556   2.699   5.058   1.022
 8341TIP3   OH258557   2.511   4.652   1.067
 8341TIP3    H158558   2.554   4.652   0.978
 8341TIP3    H258559   2.556   4.726   1.113
 8342TIP3   OH258560   3.185   5.236   1.140
 8342TIP3    H158561   3.126   5.288   1.197
 8342TIP3    H258562   3.167   5.145   1.169
 8343TIP3   OH258563   2.636   5.114   1.526
 8343TIP3    H158564   2.568   5.166   1.574
 8343TIP3    H258565   2.589   5.098   1.441
 8344TIP3   OH258566   3.226   4.678   0.304
 8344TIP3    H158567   3.280   4.700   0.383
 8344TIP3    H258568   3.275   4.722   0.231
 8345TIP3   OH258569   2.340   4.722   1.420
 8345TIP3    H158570   2.355   4.802   1.472
 8345TIP3    H258571   2.257   4.694   1.463
 8346TIP3   OH258572   3.002   5.272   0.647
 8346TIP3    H158573   3.025   5.333   0.718
 8346TIP3    H258574   2.953   5.327   0.584
 8347TIP3   OH258575   2.459   5.281   1.617
 8347TIP3    H158576   2.451   5.323   1.528
 8347TIP3    H258577   2.366   5.252   1.632
 8348TIP3   OH258578   3.628   3.804   0.317
 8348TIP3    H158579   3.531   3.819   0.323
 8348TIP3    H258580   3.656   3.882   0.265
 8349TIP3   OH258581   2.390   4.670   0.421
 8349TIP3    H158582   2.344   4.752   0.392
 8349TIP3    H258583   2.318   4.605   0.424
 8350TIP3   OH258584   3.692   5.249   0.090
 8350TIP3    H158585   3.735   5.337   0.091
 8350TIP3    H258586   3.773   5.195   0.095
 8351TIP3   OH258587   2.024   4.944   1.375
 8351TIP3    H158588   1.978   4.942   1.290
 8351TIP3    H258589   2.060   4.852   1.376
 8352TIP3   OH258590   1.996   5.215   1.008
 8352TIP3    H158591   2.077   5.170   1.035
 8352TIP3    H258592   1.996   5.290   1.070
 8353TIP3   OH258593   3.803   5.269   1.608
 8353TIP3    H158594   3.774   5.180   1.584
 8353TIP3    H258595   3.716   5.307   1.637
 8354TIP3   OH258596   2.883   5.226   1.515
 8354TIP3    H158597   2.885   5.302   1.575
 8354TIP3    H258598   2.791   5.192   1.524
 8355TIP3   OH258599   2.958   5.601   0.428
 8355TIP3    H158600   2.953   5.626   0.334
 8355TIP3    H258601   2.955   5.690   0.471
 8356TIP3   OH258602   2.314   5.476   0.644
 8356TIP3    H158603   2.336   5.442   0.734
 8356TIP3    H258604   2.226   5.435   0.627
 8357TIP3   OH258605   3.244   5.553   0.159
 8357TIP3    H158606   3.308   5.487   0.127
 8357TIP3    H258607   3.248   5.538   0.256
 8358TIP3   OH258608   3.224   5.521   0.434
 8358TIP3    H158609   3.128   5.542   0.443
 8358TIP3    H258610   3.230   5.437   0.483
 8359TIP3   OH258611   3.498   4.414   1.645
 8359TIP3    H158612   3.438   4.457   1.580
 8359TIP3    H258613   3.505   4.323   1.610
 8360TIP3   OH258614   2.246   5.076   1.441
 8360TIP3    H158615   2.259   5.039   1.531
 8360TIP3    H258616   2.158   5.038   1.418
 8361TIP3   OH258617   2.514   3.936   1.034
 8361TIP3    H158618   2.429   3.934   0.987
 8361TIP3    H258619   2.489   3.988   1.113
 8362TIP3   OH258620   3.005   3.868   1.356
 8362TIP3    H158621   3.046   3.826   1.436
 8362TIP3    H258622   2.910   3.866   1.381
 8363TIP3   OH258623   3.268   4.303   1.453
 8363TIP3    H158624   3.213   4.274   1.530
 8363TIP3    H258625   3.286   4.397   1.475
 8364TIP3   OH258626   3.357   4.782   0.094
 8364TIP3    H158627   3.363   4.780  -0.002
 8364TIP3    H258628   3.436   4.836   0.115
 8365TIP3   OH258629   2.944   4.193   0.108
 8365TIP3    H158630   2.892   4.199   0.190
 8365TIP3    H258631   2.917   4.107   0.073
 8366TIP3   OH258632   2.515   4.410   1.179
 8366TIP3    H158633   2.434   4.408   1.234
 8366TIP3    H258634   2.510   4.503   1.147
 8367TIP3   OH258635   2.509   4.395   0.648
 8367TIP3    H158636   2.412   4.394   0.634
 8367TIP3    H258637   2.545   4.375   0.559
 8368TIP3   OH258638   3.077   4.470   0.516
 8368TIP3    H158639   3.047   4.555   0.476
 8368TIP3    H258640   3.136   4.436   0.445
 8369TIP3   OH258641   2.959   4.521   1.669
 8369TIP3    H158642   2.913   4.438   1.697
 8369TIP3    H258643   3.036   4.520   1.728
 8370TIP3   OH258644   3.163   4.422   0.834
 8370TIP3    H158645   3.158   4.509   0.792
 8370TIP3    H258646   3.155   4.365   0.756
 8371TIP3   OH258647   2.266   4.413   1.295
 8371TIP3    H158648   2.291   4.451   1.381
 8371TIP3    H258649   2.240   4.322   1.319
 8372TIP3   OH258650   2.578   4.203   0.062
 8372TIP3    H158651   2.549   4.138   0.128
 8372TIP3    H258652   2.559   4.288   0.108
 8373TIP3   OH258653   1.950   4.136   0.750
 8373TIP3    H158654   2.020   4.145   0.816
 8373TIP3    H258655   1.987   4.183   0.674
 8374TIP3   OH258656   2.046   4.207   0.253
 8374TIP3    H158657   2.111   4.246   0.191
 8374TIP3    H258658   1.988   4.285   0.263
 8375TIP3   OH258659   3.078   4.585   1.256
 8375TIP3    H158660   3.130   4.516   1.209
 8375TIP3    H258661   3.021   4.530   1.315
 8376TIP3   OH258662   2.805   4.148   0.730
 8376TIP3    H158663   2.711   4.152   0.758
 8376TIP3    H258664   2.852   4.136   0.814
 8377TIP3   OH258665   2.232   4.316   0.658
 8377TIP3    H158666   2.162   4.354   0.599
 8377TIP3    H258667   2.256   4.233   0.611
 8378TIP3   OH258668   2.582   4.349   0.386
 8378TIP3    H158669   2.678   4.366   0.388
 8378TIP3    H258670   2.552   4.401   0.308
 8379TIP3   OH258671   3.198   4.103   1.071
 8379TIP3    H158672   3.133   4.093   1.142
 8379TIP3    H258673   3.151   4.060   0.997
 8380TIP3   OH258674   2.510   4.456   0.145
 8380TIP3    H158675   2.444   4.446   0.074
 8380TIP3    H258676   2.584   4.501   0.098
 8381TIP3   OH258677   3.502   5.661   1.730
 8381TIP3    H158678   3.545   5.683   1.646
 8381TIP3    H258679   3.579   5.676   1.789
 8382TIP3   OH258680   2.275   4.914   1.664
 8382TIP3    H158681   2.347   4.940   1.723
 8382TIP3    H258682   2.203   4.893   1.727
 8383TIP3   OH258683   2.851   4.455   0.909
 8383TIP3    H158684   2.944   4.430   0.890
 8383TIP3    H258685   2.827   4.393   0.979
 8384TIP3   OH258686   2.335   4.065   0.583
 8384TIP3    H158687   2.288   3.996   0.636
 8384TIP3    H258688   2.374   4.011   0.513
 8385TIP3   OH258689   2.747   4.269   1.182
 8385TIP3    H158690   2.668   4.326   1.185
 8385TIP3    H258691   2.810   4.319   1.237
 8386TIP3   OH258692   2.816   4.908   0.384
 8386TIP3    H158693   2.742   4.858   0.342
 8386TIP3    H258694   2.774   4.934   0.470
 8387TIP3   OH258695   3.545   4.855   1.239
 8387TIP3    H158696   3.596   4.909   1.173
 8387TIP3    H258697   3.457   4.856   1.197
 8388TIP3   OH258698   3.204   4.202   0.166
 8388TIP3    H158699   3.116   4.215   0.126
 8388TIP3    H258700   3.218   4.286   0.213
 8389TIP3   OH258701   2.960   4.958   1.481
 8389TIP3    H158702   2.921   4.904   1.551
 8389TIP3    H258703   2.923   5.046   1.501
 8390TIP3   OH258704   3.272   4.405   0.340
 8390TIP3    H158705   3.335   4.384   0.412
 8390TIP3    H258706   3.301   4.495   0.317
 8391TIP3   OH258707   2.331   4.862   0.903
 8391TIP3    H158708   2.382   4.848   0.821
 8391TIP3    H258709   2.361   4.789   0.961
 8392TIP3   OH258710   3.023   5.035   0.281
 8392TIP3    H158711   2.990   5.124   0.308
 8392TIP3    H258712   2.947   4.979   0.307
 8393TIP3   OH258713   2.046   4.678   1.439
 8393TIP3    H158714   2.031   4.635   1.525
 8393TIP3    H258715   1.976   4.640   1.384
 8394TIP3   OH258716   2.686   4.629   1.665
 8394TIP3    H158717   2.654   4.600   1.578
 8394TIP3    H258718   2.780   4.608   1.659
 8395TIP3   OH258719   3.220   5.172   1.501
 8395TIP3    H158720   3.150   5.164   1.434
 8395TIP3    H258721   3.176   5.232   1.563
 8396TIP3   OH258722   3.752   4.393   0.324
 8396TIP3    H158723   3.684   4.384   0.253
 8396TIP3    H258724   3.772   4.488   0.314
 8397TIP3   OH258725   3.782   4.972   1.575
 8397TIP3    H158726   3.693   4.990   1.538
 8397TIP3    H258727   3.835   4.968   1.493
 8398TIP3   OH258728   3.548   5.298   0.327
 8398TIP3    H158729   3.550   5.210   0.367
 8398TIP3    H258730   3.591   5.285   0.241
 8399TIP3   OH258731   3.300   4.777   1.058
 8399TIP3    H158732   3.210   4.745   1.039
 8399TIP3    H258733   3.353   4.706   1.017
 8400TIP3   OH258734   2.556   5.214   0.651
 8400TIP3    H158735   2.571   5.309   0.631
 8400TIP3    H258736   2.466   5.204   0.620
 8401TIP3   OH258737   2.162   4.680   0.118
 8401TIP3    H158738   2.206   4.742   0.180
 8401TIP3    H258739   2.069   4.682   0.145
 8402TIP3   OH258740   2.688   4.967   0.617
 8402TIP3    H158741   2.646   5.056   0.629
 8402TIP3    H258742   2.628   4.907   0.665
 8403TIP3   OH258743   2.748   5.390   1.304
 8403TIP3    H158744   2.814   5.453   1.267
 8403TIP3    H258745   2.802   5.343   1.371
 8404TIP3   OH258746   2.574   5.470   0.565
 8404TIP3    H158747   2.477   5.476   0.581
 8404TIP3    H258748   2.603   5.554   0.607
 8405TIP3   OH258749   3.067   4.982   1.231
 8405TIP3    H158750   3.034   4.961   1.321
 8405TIP3    H258751   3.116   4.902   1.207
 8406TIP3   OH258752   3.336   5.113   0.174
 8406TIP3    H158753   3.370   5.061   0.249
 8406TIP3    H258754   3.247   5.074   0.166
 8407TIP3   OH258755   3.405   5.423   1.456
 8407TIP3    H158756   3.313   5.389   1.457
 8407TIP3    H258757   3.397   5.492   1.387
 8408TIP3   OH258758   3.779   5.517   0.176
 8408TIP3    H158759   3.821   5.587   0.123
 8408TIP3    H258760   3.706   5.569   0.217
 8409TIP3   OH258761   2.203   4.157   1.405
 8409TIP3    H158762   2.127   4.215   1.422
 8409TIP3    H258763   2.175   4.074   1.446
 8410TIP3   OH258764   3.419   4.943   0.370
 8410TIP3    H158765   3.405   4.861   0.424
 8410TIP3    H258766   3.515   4.955   0.381
 8411TIP3   OH258767   2.153   5.336   1.247
 8411TIP3    H158768   2.219   5.266   1.259
 8411TIP3    H258769   2.151   5.377   1.335
 8412TIP3   OH258770   2.621   5.146   0.246
 8412TIP3    H158771   2.688   5.104   0.302
 8412TIP3    H258772   2.636   5.242   0.263
 8413TIP3   OH258773   2.272   4.878   0.274
 8413TIP3    H158774   2.205   4.921   0.331
 8413TIP3    H258775   2.322   4.954   0.238
 8414TIP3   OH258776   3.046   4.153   1.348
 8414TIP3    H158777   3.139   4.160   1.377
 8414TIP3    H258778   3.022   4.065   1.382
 8415TIP3   OH258779   3.122   4.101   0.441
 8415TIP3    H158780   3.165   4.148   0.368
 8415TIP3    H258781   3.181   4.121   0.516
 8416TIP3   OH258782   2.925   5.282   0.336
 8416TIP3    H158783   2.859   5.352   0.352
 8416TIP3    H258784   2.981   5.323   0.267
 8417TIP3   OH258785   2.867   4.288   0.489
 8417TIP3    H158786   2.938   4.355   0.498
 8417TIP3    H258787   2.852   4.257   0.580
 8418TIP3   OH258788   2.950   4.404   1.401
 8418TIP3    H158789   2.958   4.419   1.497
 8418TIP3    H258790   2.987   4.314   1.385
 8419TIP3   OH258791   2.930   3.960   0.566
 8419TIP3    H158792   2.891   4.027   0.626
 8419TIP3    H258793   3.004   4.014   0.527
 8420TIP3   OH258794   2.648   5.409   0.305
 8420TIP3    H158795   2.673   5.495   0.265
 8420TIP3    H258796   2.614   5.441   0.392
 8421TIP3   OH258797   2.489   4.091   0.293
 8421TIP3    H158798   2.490   4.173   0.347
 8421TIP3    H258799   2.575   4.053   0.319
 8422TIP3   OH258800   3.501   4.159   1.521
 8422TIP3    H158801   3.410   4.181   1.493
 8422TIP3    H258802   3.549   4.155   1.436
 8423TIP3   OH258803   3.409   4.531   0.912
 8423TIP3    H158804   3.335   4.468   0.918
 8423TIP3    H258805   3.478   4.483   0.961
 8424TIP3   OH258806   2.347   5.133   0.152
 8424TIP3    H158807   2.429   5.157   0.199
 8424TIP3    H258808   2.384   5.080   0.080
 8425TIP3   OH258809   2.175   4.413   0.074
 8425TIP3    H158810   2.192   4.508   0.092
 8425TIP3    H258811   2.095   4.419   0.020
 8426TIP3   OH258812   3.492   5.475   1.061
 8426TIP3    H158813   3.501   5.550   0.997
 8426TIP3    H258814   3.588   5.454   1.068
 8427TIP3   OH258815   2.255   3.881   0.972
 8427TIP3    H158816   2.241   3.866   0.876
 8427TIP3    H258817   2.225   3.795   1.007
 8428TIP3   OH258818   2.114   5.273   0.543
 8428TIP3    H158819   2.032   5.308   0.581
 8428TIP3    H258820   2.120   5.329   0.462
 8429TIP3   OH258821   2.041   5.533   1.691
 8429TIP3    H158822   2.104   5.512   1.764
 8429TIP3    H258823   2.005   5.443   1.671
 8430TIP3   OH258824   2.547   5.410   1.852
 8430TIP3    H158825   2.637   5.436   1.828
 8430TIP3    H258826   2.517   5.366   1.769
 8431TIP3   OH258827   3.012   5.394   0.095
 8431TIP3    H158828   2.955   5.337   0.039
 8431TIP3    H258829   3.087   5.410   0.034
 8432TIP3   OH258830   3.171   5.295   1.736
 8432TIP3    H158831   3.137   5.205   1.759
 8432TIP3    H258832   3.266   5.281   1.745
 8433TIP3   OH258833   3.436   5.347   0.015
 8433TIP3    H158834   3.395   5.277   0.070
 8433TIP3    H258835   3.529   5.322   0.032
 8434TIP3   OH258836   2.035   4.894   1.792
 8434TIP3    H158837   1.979   4.817   1.809
 8434TIP3    H258838   1.995   4.925   1.708
 8435TIP3   OH258839   2.532   4.939   0.025
 8435TIP3    H158840   2.592   4.925   0.099
 8435TIP3    H258841   2.573   4.881  -0.043
 8436TIP3   OH258842   2.721   4.898   1.691
 8436TIP3    H158843   2.678   4.957   1.625
 8436TIP3    H258844   2.682   4.810   1.678
 8437TIP3   OH258845   3.289   4.901   1.497
 8437TIP3    H158846   3.370   4.957   1.496
 8437TIP3    H258847   3.223   4.973   1.487
 8438TIP3   OH258848   2.185   4.614   1.714
 8438TIP3    H158849   2.164   4.526   1.747
 8438TIP3    H258850   2.198   4.667   1.794
 8439TIP3   OH258851   2.626   4.766   0.254
 8439TIP3    H158852   2.553   4.717   0.298
 8439TIP3    H258853   2.656   4.702   0.187
 8440TIP3   OH258854   2.533   4.539   1.440
 8440TIP3    H158855   2.459   4.603   1.434
 8440TIP3    H258856   2.599   4.584   1.384
 8441TIP3   OH258857   2.736   4.573   0.034
 8441TIP3    H158858   2.770   4.575  -0.057
 8441TIP3    H258859   2.821   4.581   0.085
 8442TIP3   OH258860   3.077   4.813   1.812
 8442TIP3    H158861   3.126   4.764   1.743
 8442TIP3    H258862   3.044   4.740   1.869
 8443TIP3   OH258863   3.626   4.851   8.483
 8443TIP3    H158864   3.571   4.880   8.408
 8443TIP3    H258865   3.658   4.935   8.519
 8444TIP3   OH258866   2.632   4.302   1.537
 8444TIP3    H158867   2.620   4.238   1.465
 8444TIP3    H258868   2.617   4.388   1.493
 8445TIP3   OH258869   2.628   4.097   1.335
 8445TIP3    H158870   2.677   4.142   1.262
 8445TIP3    H258871   2.536   4.093   1.299
 8446TIP3   OH258872   2.747   4.685   1.359
 8446TIP3    H158873   2.833   4.709   1.322
 8446TIP3    H258874   2.689   4.754   1.319
 8447TIP3   OH258875   3.216   4.412   1.856
 8447TIP3    H158876   3.213   4.320   1.892
 8447TIP3    H258877   3.309   4.421   1.829
 8448TIP3   OH258878   3.352   4.735   1.698
 8448TIP3    H158879   3.329   4.793   1.621
 8448TIP3    H258880   3.444   4.710   1.675
 8449TIP3   OH258881   2.435   4.369   1.771
 8449TIP3    H158882   2.362   4.315   1.735
 8449TIP3    H258883   2.479   4.398   1.690
 8450TIP3   OH258884   2.717   3.849   1.366
 8450TIP3    H158885   2.688   3.943   1.359
 8450TIP3    H258886   2.647   3.807   1.314
 8451TIP3   OH258887   2.814   4.303   1.745
 8451TIP3    H158888   2.776   4.249   1.818
 8451TIP3    H258889   2.752   4.280   1.673
 8452TIP3   OH258890   3.108   4.198   1.657
 8452TIP3    H158891   3.016   4.206   1.685
 8452TIP3    H258892   3.145   4.152   1.736
 8453TIP3   OH258893   3.195   4.058   1.862
 8453TIP3    H158894   3.229   3.967   1.853
 8453TIP3    H258895   3.181   4.066   1.959
 8454TIP3   OH258896   2.227   4.182   1.773
 8454TIP3    H158897   2.210   4.098   1.723
 8454TIP3    H258898   2.224   4.149   1.865
 8455TIP3   OH258899   2.698   3.808   1.638
 8455TIP3    H158900   2.776   3.751   1.648
 8455TIP3    H258901   2.694   3.814   1.540
 8456TIP3   OH258902   2.752   3.995   1.854
 8456TIP3    H158903   2.725   3.944   1.776
 8456TIP3    H258904   2.676   4.054   1.871
 8457TIP3   OH258905   2.692   5.649   0.189
 8457TIP3    H158906   2.780   5.688   0.202
 8457TIP3    H258907   2.696   5.636   0.093
 8458TIP3   OH258908   2.049   5.107   0.110
 8458TIP3    H158909   2.146   5.111   0.119
 8458TIP3    H258910   2.041   5.073   0.019
 8459TIP3   OH258911   1.949   5.602   0.600
 8459TIP3    H158912   1.866   5.554   0.579
 8459TIP3    H258913   1.980   5.551   0.678
 8460TIP3   OH258914   2.025   5.440   0.807
 8460TIP3    H158915   1.976   5.364   0.845
 8460TIP3    H258916   2.082   5.464   0.884
 8461TIP3   OH258917   3.769   5.513   1.070
 8461TIP3    H158918   3.798   5.522   1.161
 8461TIP3    H258919   3.816   5.586   1.027
 8462TIP3   OH258920   3.733   5.482   1.385
 8462TIP3    H158921   3.688   5.409   1.338
 8462TIP3    H258922   3.770   5.434   1.461
 8463TIP3   OH258923   3.607   5.024   1.856
 8463TIP3    H158924   3.518   5.033   1.890
 8463TIP3    H258925   3.645   5.113   1.870
 8464TIP3   OH258926   3.702   4.903   0.372
 8464TIP3    H158927   3.787   4.950   0.387
 8464TIP3    H258928   3.704   4.839   0.447
 8465TIP3   OH258929   3.731   4.711   0.582
 8465TIP3    H158930   3.652   4.676   0.629
 8465TIP3    H258931   3.794   4.723   0.656
 8466TIP3   OH258932   3.708   4.977   1.074
 8466TIP3    H158933   3.774   4.913   1.040
 8466TIP3    H258934   3.749   5.062   1.050
 8467TIP3   OH258935   3.585   5.253   1.302
 8467TIP3    H158936   3.512   5.296   1.351
 8467TIP3    H258937   3.544   5.231   1.216
 8468TIP3   OH258938   3.753   4.670   0.204
 8468TIP3    H158939   3.688   4.690   0.135
 8468TIP3    H258940   3.735   4.741   0.268
 8469TIP3   OH258941   3.545   4.394   0.098
 8469TIP3    H158942   3.613   4.440   0.046
 8469TIP3    H258943   3.562   4.302   0.069
 8470TIP3   OH258944   3.523   4.571   0.672
 8470TIP3    H158945   3.508   4.481   0.637
 8470TIP3    H258946   3.500   4.559   0.767
 8471TIP3   OH258947   2.020   4.786   1.047
 8471TIP3    H158948   2.013   4.745   0.959
 8471TIP3    H258949   2.110   4.754   1.074
 8472TIP3   OH258950   3.634   4.742   1.637
 8472TIP3    H158951   3.676   4.653   1.637
 8472TIP3    H258952   3.705   4.803   1.608
 8473TIP3   OH258953   3.751   4.489   1.631
 8473TIP3    H158954   3.662   4.466   1.667
 8473TIP3    H258955   3.803   4.408   1.651
 8474TIP3   OH258956   3.532   4.152  -0.026
 8474TIP3    H158957   3.590   4.106   0.039
 8474TIP3    H258958   3.442   4.147   0.012
 8475TIP3   OH258959   3.473   4.335   0.510
 8475TIP3    H158960   3.499   4.245   0.540
 8475TIP3    H258961   3.526   4.338   0.428
 8476TIP3   OH258962   3.584   4.378   1.052
 8476TIP3    H158963   3.682   4.385   1.059
 8476TIP3    H258964   3.562   4.389   1.146
 8477TIP3   OH258965   3.569   4.445   1.316
 8477TIP3    H158966   3.493   4.470   1.370
 8477TIP3    H258967   3.613   4.532   1.301
 8478TIP3   OH258968   2.022   4.297   1.638
 8478TIP3    H158969   2.102   4.266   1.685
 8478TIP3    H258970   1.959   4.223   1.654
 8479TIP3   OH258971   3.770   3.893   1.819
 8479TIP3    H158972   3.807   3.822   1.764
 8479TIP3    H258973   3.782   3.972   1.762
 8480TIP3   OH258974   3.558   4.064   0.524
 8480TIP3    H158975   3.594   4.011   0.598
 8480TIP3    H258976   3.513   3.995   0.472
 8481TIP3   OH258977   2.115   4.115   1.009
 8481TIP3    H158978   2.154   4.025   1.001
 8481TIP3    H258979   2.193   4.172   1.001
 8482TIP3   OH258980   1.954   4.431   1.072
 8482TIP3    H158981   2.008   4.419   0.992
 8482TIP3    H258982   1.993   4.511   1.108
 8483TIP3   OH258983   3.745   4.074   1.619
 8483TIP3    H158984   3.665   4.112   1.660
 8483TIP3    H258985   3.705   4.000   1.570
 8484TIP3   OH258986   3.737   4.066   0.143
 8484TIP3    H158987   3.780   4.004   0.082
 8484TIP3    H258988   3.817   4.109   0.182
 8485TIP3   OH258989   1.969   4.041   0.463
 8485TIP3    H158990   1.877   4.059   0.484
 8485TIP3    H258991   1.981   4.094   0.382
 8486TIP3   OH258992   3.453   5.533   0.681
 8486TIP3    H158993   3.522   5.520   0.613
 8486TIP3    H258994   3.488   5.602   0.739
 8487TIP3   OH258995   1.976   3.896   1.298
 8487TIP3    H158996   1.905   3.844   1.341
 8487TIP3    H258997   1.925   3.964   1.251
 8488TIP3   OH258998   2.213   5.218   1.712
 8488TIP3    H158999   2.146   5.252   1.650
 8488TIP3    H259000   2.168   5.234   1.795
 8489TIP3   OH259001   2.490   5.380   1.356
 8489TIP3    H159002   2.483   5.471   1.322
 8489TIP3    H259003   2.587   5.369   1.343
 8490TIP3   OH259004   2.897   5.486   1.629
 8490TIP3    H159005   2.920   5.477   1.724
 8490TIP3    H259006   2.984   5.516   1.596
 8491TIP3   OH259007   3.132   5.607   1.603
 8491TIP3    H159008   3.182   5.604   1.519
 8491TIP3    H259009   3.150   5.696   1.637
 8492TIP3   OH259010   3.629   3.856   1.479
 8492TIP3    H159011   3.556   3.895   1.430
 8492TIP3    H259012   3.624   3.762   1.449
 8493TIP3   OH259013   2.212   5.676   1.325
 8493TIP3    H159014   2.140   5.709   1.267
 8493TIP3    H259015   2.184   5.713   1.410
 8494TIP3   OH259016   2.464   5.619   1.234
 8494TIP3    H159017   2.371   5.638   1.258
 8494TIP3    H259018   2.475   5.678   1.156
 8495TIP3   OH259019   2.919   5.582   1.170
 8495TIP3    H159020   2.867   5.622   1.100
 8495TIP3    H259021   2.938   5.660   1.226
 8496TIP3   OH259022   3.139   5.465   1.304
 8496TIP3    H159023   3.073   5.508   1.246
 8496TIP3    H259024   3.218   5.514   1.273
 8497TIP3   OH259025   3.364   5.625   1.257
 8497TIP3    H159026   3.385   5.715   1.225
 8497TIP3    H259027   3.410   5.574   1.186
 8498TIP3   OH259028   2.190   5.509   1.024
 8498TIP3    H159029   2.171   5.444   1.096
 8498TIP3    H259030   2.278   5.478   0.991
 8499TIP3   OH259031   2.398   5.403   0.895
 8499TIP3    H159032   2.384   5.309   0.920
 8499TIP3    H259033   2.484   5.418   0.942
 8500TIP3   OH259034   2.624   5.398   1.031
 8500TIP3    H159035   2.659   5.308   1.018
 8500TIP3    H259036   2.639   5.409   1.127
 8501TIP3   OH259037   2.998   3.989   0.904
 8501TIP3    H159038   2.918   3.964   0.952
 8501TIP3    H259039   3.003   3.916   0.841
 8502TIP3   OH259040   3.513   3.807   0.903
 8502TIP3    H159041   3.578   3.865   0.858
 8502TIP3    H259042   3.427   3.841   0.864
 8503TIP3   OH259043   3.681   3.920   0.716
 8503TIP3    H159044   3.744   3.865   0.665
 8503TIP3    H259045   3.740   3.996   0.739
 8504TIP3   OH259046   2.220   3.839   0.692
 8504TIP3    H159047   2.138   3.819   0.644
 8504TIP3    H259048   2.269   3.755   0.679
 8505TIP3   OH259049   2.078   3.838   0.245
 8505TIP3    H159050   2.146   3.892   0.198
 8505TIP3    H259051   2.048   3.898   0.316
 8506TIP3   OH259052   2.644   3.814   0.665
 8506TIP3    H159053   2.731   3.839   0.631
 8506TIP3    H259054   2.637   3.869   0.744
 8507TIP3   OH259055   3.270   3.851   0.797
 8507TIP3    H159056   3.230   3.875   0.713
 8507TIP3    H259057   3.213   3.777   0.828
 8508TIP3   OH259058   3.380   3.848   0.373
 8508TIP3    H159059   3.298   3.896   0.358
 8508TIP3    H259060   3.346   3.767   0.418
 8509TIP3   OH259061   2.087   5.448   0.344
 8509TIP3    H159062   1.997   5.448   0.306
 8509TIP3    H259063   2.106   5.543   0.327
 8510TIP3   OH259064   2.260   3.971   0.109
 8510TIP3    H159065   2.347   3.932   0.092
 8510TIP3    H259066   2.283   4.058   0.145
 8511TIP3   OH259067   2.776   4.079   0.356
 8511TIP3    H159068   2.817   4.014   0.416
 8511TIP3    H259069   2.809   4.163   0.396
 8512TIP3   OH259070   2.980   5.647   0.166
 8512TIP3    H159071   3.068   5.663   0.127
 8512TIP3    H259072   2.978   5.550   0.149
 8513TIP3   OH259073   3.629   5.487   0.492
 8513TIP3    H159074   3.600   5.415   0.430
 8513TIP3    H259075   3.625   5.564   0.432
 8514TIP3   OH259076   2.191   3.929   1.650
 8514TIP3    H159077   2.151   3.840   1.650
 8514TIP3    H259078   2.278   3.913   1.694
 8515TIP3   OH259079   2.403   3.870   1.806
 8515TIP3    H159080   2.492   3.844   1.776
 8515TIP3    H259081   2.371   3.785   1.844
 8516TIP3   OH259082   2.280   5.547   0.047
 8516TIP3    H159083   2.209   5.597   0.092
 8516TIP3    H259084   2.297   5.472   0.106
 8517TIP3   OH259085   3.259   3.805   1.788
 8517TIP3    H159086   3.221   3.745   1.856
 8517TIP3    H259087   3.352   3.776   1.785
 8518TIP3   OH259088   3.581   5.402   1.653
 8518TIP3    H159089   3.523   5.404   1.573
 8518TIP3    H259090   3.555   5.486   1.696
 8519TIP3   OH259091   5.038   4.790   0.670
 8519TIP3    H159092   5.021   4.887   0.666
 8519TIP3    H259093   4.957   4.754   0.630
 8520TIP3   OH259094   4.918   4.662   0.995
 8520TIP3    H159095   4.917   4.622   1.085
 8520TIP3    H259096   4.834   4.633   0.955
 8521TIP3   OH259097   4.105   4.657   1.153
 8521TIP3    H159098   4.102   4.582   1.215
 8521TIP3    H259099   4.191   4.696   1.173
 8522TIP3   OH259100   5.232   4.988   0.856
 8522TIP3    H159101   5.205   4.919   0.918
 8522TIP3    H259102   5.261   5.057   0.917
 8523TIP3   OH259103   4.217   5.129   0.962
 8523TIP3    H159104   4.188   5.036   0.948
 8523TIP3    H259105   4.312   5.112   0.975
 8524TIP3   OH259106   3.898   4.456   0.556
 8524TIP3    H159107   3.856   4.540   0.580
 8524TIP3    H259108   3.843   4.428   0.481
 8525TIP3   OH259109   3.939   4.690   0.809
 8525TIP3    H159110   3.975   4.599   0.826
 8525TIP3    H259111   4.018   4.745   0.801
 8526TIP3   OH259112   4.985   5.535   0.842
 8526TIP3    H159113   5.048   5.476   0.795
 8526TIP3    H259114   4.958   5.475   0.912
 8527TIP3   OH259115   4.705   4.965   1.120
 8527TIP3    H159116   4.732   4.947   1.028
 8527TIP3    H259117   4.794   4.971   1.161
 8528TIP3   OH259118   5.590   4.097   1.100
 8528TIP3    H159119   5.595   4.146   1.185
 8528TIP3    H259120   5.677   4.121   1.063
 8529TIP3   OH259121   5.101   4.391   1.113
 8529TIP3    H159122   5.116   4.300   1.142
 8529TIP3    H259123   5.101   4.377   1.016
 8530TIP3   OH259124   4.372   4.174   0.789
 8530TIP3    H159125   4.389   4.254   0.735
 8530TIP3    H259126   4.326   4.120   0.721
 8531TIP3   OH259127   5.128   4.195   0.651
 8531TIP3    H159128   5.178   4.170   0.733
 8531TIP3    H259129   5.181   4.270   0.619
 8532TIP3   OH259130   4.013   4.439   0.887
 8532TIP3    H159131   4.069   4.394   0.952
 8532TIP3    H259132   4.042   4.398   0.803
 8533TIP3   OH259133   4.495   4.584   0.823
 8533TIP3    H159134   4.581   4.543   0.845
 8533TIP3    H259135   4.458   4.515   0.763
 8534TIP3   OH259136   5.599   4.228   1.356
 8534TIP3    H159137   5.570   4.312   1.314
 8534TIP3    H259138   5.636   4.258   1.440
 8535TIP3   OH259139   4.272   4.085   1.220
 8535TIP3    H159140   4.235   4.136   1.146
 8535TIP3    H259141   4.209   4.108   1.292
 8536TIP3   OH259142   4.957   5.022   0.560
 8536TIP3    H159143   4.940   5.025   0.464
 8536TIP3    H259144   4.916   5.107   0.590
 8537TIP3   OH259145   4.477   4.848   1.199
 8537TIP3    H159146   4.418   4.918   1.236
 8537TIP3    H259147   4.556   4.900   1.172
 8538TIP3   OH259148   5.296   4.158   0.858
 8538TIP3    H159149   5.311   4.082   0.916
 8538TIP3    H259150   5.381   4.203   0.866
 8539TIP3   OH259151   4.225   4.282   1.012
 8539TIP3    H159152   4.288   4.350   1.044
 8539TIP3    H259153   4.272   4.248   0.931
 8540TIP3   OH259154   4.359   5.080   1.294
 8540TIP3    H159155   4.345   5.165   1.252
 8540TIP3    H259156   4.273   5.068   1.341
 8541TIP3   OH259157   3.944   5.021   0.394
 8541TIP3    H159158   3.951   5.075   0.312
 8541TIP3    H259159   3.961   5.088   0.465
 8542TIP3   OH259160   5.322   5.183   1.061
 8542TIP3    H159161   5.231   5.210   1.089
 8542TIP3    H259162   5.350   5.269   1.023
 8543TIP3   OH259163   5.312   4.017   1.193
 8543TIP3    H159164   5.233   4.041   1.140
 8543TIP3    H259165   5.384   4.057   1.142
 8544TIP3   OH259166   4.627   3.841   0.939
 8544TIP3    H159167   4.599   3.748   0.943
 8544TIP3    H259168   4.544   3.883   0.975
 8545TIP3   OH259169   5.147   5.365   0.719
 8545TIP3    H159170   5.180   5.285   0.673
 8545TIP3    H259171   5.221   5.428   0.699
 8546TIP3   OH259172   5.268   5.144   0.577
 8546TIP3    H159173   5.239   5.083   0.507
 8546TIP3    H259174   5.243   5.094   0.656
 8547TIP3   OH259175   5.419   5.011   1.452
 8547TIP3    H159176   5.427   4.937   1.387
 8547TIP3    H259177   5.435   5.086   1.391
 8548TIP3   OH259178   4.872   4.702   0.409
 8548TIP3    H159179   4.808   4.776   0.392
 8548TIP3    H259180   4.957   4.737   0.374
 8549TIP3   OH259181   4.872   4.606   0.136
 8549TIP3    H159182   4.928   4.629   0.213
 8549TIP3    H259183   4.919   4.531   0.097
 8550TIP3   OH259184   5.634   4.669   1.251
 8550TIP3    H159185   5.562   4.734   1.237
 8550TIP3    H259186   5.693   4.698   1.178
 8551TIP3   OH259187   5.262   4.741   0.527
 8551TIP3    H159188   5.185   4.756   0.586
 8551TIP3    H259189   5.317   4.682   0.584
 8552TIP3   OH259190   5.248   4.543   1.434
 8552TIP3    H159191   5.218   4.629   1.468
 8552TIP3    H259192   5.186   4.538   1.359
 8553TIP3   OH259193   4.371   4.775   0.694
 8553TIP3    H159194   4.362   4.740   0.603
 8553TIP3    H259195   4.433   4.709   0.735
 8554TIP3   OH259196   4.523   5.116   0.964
 8554TIP3    H159197   4.543   5.091   0.873
 8554TIP3    H259198   4.587   5.064   1.018
 8555TIP3   OH259199   4.394   4.644   1.062
 8555TIP3    H159200   4.427   4.648   0.969
 8555TIP3    H259201   4.444   4.717   1.106
 8556TIP3   OH259202   5.079   5.238   1.138
 8556TIP3    H159203   5.016   5.294   1.186
 8556TIP3    H259204   5.059   5.149   1.172
 8557TIP3   OH259205   4.517   5.106   1.512
 8557TIP3    H159206   4.450   5.159   1.560
 8557TIP3    H259207   4.471   5.090   1.427
 8558TIP3   OH259208   5.112   4.682   0.301
 8558TIP3    H159209   5.171   4.704   0.377
 8558TIP3    H259210   5.163   4.721   0.226
 8559TIP3   OH259211   4.215   4.735   1.426
 8559TIP3    H159212   4.225   4.801   1.496
 8559TIP3    H259213   4.124   4.706   1.445
 8560TIP3   OH259214   4.865   5.261   0.662
 8560TIP3    H159215   4.909   5.326   0.718
 8560TIP3    H259216   4.836   5.315   0.588
 8561TIP3   OH259217   4.351   5.283   1.631
 8561TIP3    H159218   4.350   5.332   1.545
 8561TIP3    H259219   4.255   5.259   1.638
 8562TIP3   OH259220   5.520   3.809   0.317
 8562TIP3    H159221   5.421   3.813   0.321
 8562TIP3    H259222   5.539   3.891   0.269
 8563TIP3   OH259223   4.273   4.677   0.421
 8563TIP3    H159224   4.226   4.758   0.392
 8563TIP3    H259225   4.203   4.611   0.420
 8564TIP3   OH259226   5.581   5.242   0.087
 8564TIP3    H159227   5.618   5.332   0.088
 8564TIP3    H259228   5.666   5.192   0.097
 8565TIP3   OH259229   3.920   4.944   1.351
 8565TIP3    H159230   3.861   4.931   1.275
 8565TIP3    H259231   3.955   4.853   1.359
 8566TIP3   OH259232   3.870   5.200   1.016
 8566TIP3    H159233   3.963   5.175   1.006
 8566TIP3    H259234   3.877   5.282   1.067
 8567TIP3   OH259235   5.706   5.240   1.636
 8567TIP3    H159236   5.685   5.146   1.647
 8567TIP3    H259237   5.616   5.275   1.653
 8568TIP3   OH259238   4.772   5.210   1.503
 8568TIP3    H159239   4.791   5.290   1.554
 8568TIP3    H259240   4.677   5.190   1.518
 8569TIP3   OH259241   4.844   5.597   0.428
 8569TIP3    H159242   4.839   5.620   0.333
 8569TIP3    H259243   4.840   5.685   0.470
 8570TIP3   OH259244   4.201   5.471   0.655
 8570TIP3    H159245   4.223   5.439   0.746
 8570TIP3    H259246   4.111   5.437   0.640
 8571TIP3   OH259247   5.132   5.541   0.148
 8571TIP3    H159248   5.183   5.462   0.122
 8571TIP3    H259249   5.136   5.537   0.245
 8572TIP3   OH259250   5.108   5.529   0.431
 8572TIP3    H159251   5.012   5.546   0.440
 8572TIP3    H259252   5.116   5.443   0.476
 8573TIP3   OH259253   5.396   4.420   1.632
 8573TIP3    H159254   5.339   4.469   1.568
 8573TIP3    H259255   5.382   4.328   1.601
 8574TIP3   OH259256   4.138   5.078   1.438
 8574TIP3    H159257   4.157   5.034   1.524
 8574TIP3    H259258   4.050   5.040   1.418
 8575TIP3   OH259259   4.395   3.933   1.028
 8575TIP3    H159260   4.303   3.919   0.997
 8575TIP3    H259261   4.377   3.990   1.105
 8576TIP3   OH259262   4.878   3.881   1.352
 8576TIP3    H159263   4.916   3.839   1.433
 8576TIP3    H259264   4.782   3.883   1.371
 8577TIP3   OH259265   5.161   4.265   1.486
 8577TIP3    H159266   5.102   4.225   1.554
 8577TIP3    H259267   5.128   4.356   1.484
 8578TIP3   OH259268   5.245   4.778   0.093
 8578TIP3    H159269   5.255   4.778  -0.004
 8578TIP3    H259270   5.322   4.833   0.117
 8579TIP3   OH259271   4.828   4.187   0.106
 8579TIP3    H159272   4.779   4.180   0.190
 8579TIP3    H259273   4.801   4.107   0.060
 8580TIP3   OH259274   4.406   4.406   1.177
 8580TIP3    H159275   4.319   4.399   1.221
 8580TIP3    H259276   4.399   4.495   1.135
 8581TIP3   OH259277   4.388   4.395   0.643
 8581TIP3    H159278   4.290   4.390   0.632
 8581TIP3    H259279   4.420   4.377   0.552
 8582TIP3   OH259280   4.960   4.487   0.537
 8582TIP3    H159281   4.926   4.567   0.490
 8582TIP3    H259282   5.017   4.451   0.466
 8583TIP3   OH259283   4.799   4.522   1.715
 8583TIP3    H159284   4.764   4.432   1.737
 8583TIP3    H259285   4.888   4.514   1.750
 8584TIP3   OH259286   5.075   4.425   0.827
 8584TIP3    H159287   5.047   4.510   0.789
 8584TIP3    H259288   5.046   4.366   0.756
 8585TIP3   OH259289   4.154   4.413   1.296
 8585TIP3    H159290   4.184   4.452   1.380
 8585TIP3    H259291   4.125   4.325   1.326
 8586TIP3   OH259292   4.472   4.197   0.066
 8586TIP3    H159293   4.444   4.132   0.133
 8586TIP3    H259294   4.449   4.282   0.111
 8587TIP3   OH259295   3.839   4.144   0.745
 8587TIP3    H159296   3.910   4.154   0.809
 8587TIP3    H259297   3.878   4.175   0.662
 8588TIP3   OH259298   3.937   4.206   0.256
 8588TIP3    H159299   3.998   4.242   0.188
 8588TIP3    H259300   3.880   4.284   0.267
 8589TIP3   OH259301   4.958   4.579   1.254
 8589TIP3    H159302   5.014   4.511   1.211
 8589TIP3    H259303   4.898   4.523   1.310
 8590TIP3   OH259304   4.684   4.166   0.751
 8590TIP3    H159305   4.590   4.165   0.772
 8590TIP3    H259306   4.726   4.154   0.838
 8591TIP3   OH259307   4.110   4.317   0.658
 8591TIP3    H159308   4.041   4.354   0.599
 8591TIP3    H259309   4.136   4.233   0.613
 8592TIP3   OH259310   4.472   4.344   0.385
 8592TIP3    H159311   4.567   4.362   0.394
 8592TIP3    H259312   4.446   4.397   0.306
 8593TIP3   OH259313   5.090   4.092   1.069
 8593TIP3    H159314   5.016   4.084   1.132
 8593TIP3    H259315   5.056   4.045   0.990
 8594TIP3   OH259316   4.397   4.444   0.147
 8594TIP3    H159317   4.329   4.438   0.078
 8594TIP3    H259318   4.468   4.497   0.105
 8595TIP3   OH259319   5.389   5.659   1.732
 8595TIP3    H159320   5.421   5.711   1.655
 8595TIP3    H259321   5.464   5.671   1.792
 8596TIP3   OH259322   4.179   4.910   1.648
 8596TIP3    H159323   4.238   4.945   1.718
 8596TIP3    H259324   4.098   4.888   1.698
 8597TIP3   OH259325   4.724   4.446   0.905
 8597TIP3    H159326   4.820   4.429   0.901
 8597TIP3    H259327   4.694   4.387   0.975
 8598TIP3   OH259328   4.219   4.072   0.583
 8598TIP3    H159329   4.179   3.995   0.630
 8598TIP3    H259330   4.263   4.028   0.509
 8599TIP3   OH259331   4.639   4.266   1.192
 8599TIP3    H159332   4.563   4.328   1.186
 8599TIP3    H259333   4.707   4.318   1.237
 8600TIP3   OH259334   4.701   4.902   0.387
 8600TIP3    H159335   4.625   4.857   0.344
 8600TIP3    H259336   4.658   4.933   0.471
 8601TIP3   OH259337   5.441   4.867   1.233
 8601TIP3    H159338   5.487   4.921   1.164
 8601TIP3    H259339   5.354   4.856   1.191
 8602TIP3   OH259340   5.088   4.202   0.163
 8602TIP3    H159341   5.001   4.216   0.120
 8602TIP3    H259342   5.100   4.286   0.211
 8603TIP3   OH259343   4.824   4.945   1.503
 8603TIP3    H159344   4.778   4.921   1.585
 8603TIP3    H259345   4.808   5.042   1.501
 8604TIP3   OH259346   5.142   4.410   0.339
 8604TIP3    H159347   5.212   4.385   0.403
 8604TIP3    H259348   5.178   4.492   0.302
 8605TIP3   OH259349   4.208   4.859   0.908
 8605TIP3    H159350   4.263   4.845   0.828
 8605TIP3    H259351   4.236   4.787   0.966
 8606TIP3   OH259352   4.903   5.038   0.279
 8606TIP3    H159353   4.865   5.126   0.304
 8606TIP3    H259354   4.830   4.979   0.307
 8607TIP3   OH259355   3.937   4.677   1.433
 8607TIP3    H159356   3.913   4.627   1.513
 8607TIP3    H259357   3.868   4.646   1.371
 8608TIP3   OH259358   4.577   4.657   1.643
 8608TIP3    H159359   4.550   4.616   1.559
 8608TIP3    H259360   4.666   4.618   1.656
 8609TIP3   OH259361   5.111   5.175   1.509
 8609TIP3    H159362   5.043   5.202   1.447
 8609TIP3    H259363   5.082   5.225   1.589
 8610TIP3   OH259364   5.634   4.397   0.324
 8610TIP3    H159365   5.571   4.389   0.250
 8610TIP3    H259366   5.651   4.494   0.318
 8611TIP3   OH259367   5.653   4.964   1.583
 8611TIP3    H159368   5.568   4.997   1.545
 8611TIP3    H259369   5.711   4.964   1.503
 8612TIP3   OH259370   5.444   5.294   0.326
 8612TIP3    H159371   5.442   5.208   0.369
 8612TIP3    H259372   5.490   5.278   0.242
 8613TIP3   OH259373   5.190   4.773   1.053
 8613TIP3    H159374   5.098   4.747   1.034
 8613TIP3    H259375   5.237   4.703   1.003
 8614TIP3   OH259376   4.437   5.208   0.653
 8614TIP3    H159377   4.451   5.302   0.631
 8614TIP3    H259378   4.343   5.199   0.631
 8615TIP3   OH259379   4.038   4.682   0.116
 8615TIP3    H159380   4.076   4.751   0.174
 8615TIP3    H259381   3.944   4.681   0.143
 8616TIP3   OH259382   4.573   4.969   0.619
 8616TIP3    H159383   4.531   5.058   0.629
 8616TIP3    H259384   4.515   4.911   0.671
 8617TIP3   OH259385   4.635   5.384   1.301
 8617TIP3    H159386   4.702   5.452   1.279
 8617TIP3    H259387   4.682   5.337   1.372
 8618TIP3   OH259388   4.458   5.466   0.565
 8618TIP3    H159389   4.362   5.475   0.585
 8618TIP3    H259390   4.490   5.548   0.610
 8619TIP3   OH259391   4.948   4.978   1.238
 8619TIP3    H159392   4.911   4.959   1.328
 8619TIP3    H259393   5.003   4.900   1.225
 8620TIP3   OH259394   5.218   5.120   0.175
 8620TIP3    H159395   5.258   5.066   0.246
 8620TIP3    H259396   5.128   5.082   0.173
 8621TIP3   OH259397   5.281   5.422   1.468
 8621TIP3    H159398   5.189   5.391   1.461
 8621TIP3    H259399   5.282   5.485   1.392
 8622TIP3   OH259400   5.659   5.520   0.170
 8622TIP3    H159401   5.705   5.590   0.122
 8622TIP3    H259402   5.587   5.572   0.213
 8623TIP3   OH259403   4.092   4.170   1.417
 8623TIP3    H159404   4.008   4.217   1.430
 8623TIP3    H259405   4.079   4.089   1.470
 8624TIP3   OH259406   5.303   4.950   0.370
 8624TIP3    H159407   5.288   4.867   0.422
 8624TIP3    H259408   5.399   4.961   0.386
 8625TIP3   OH259409   4.040   5.338   1.232
 8625TIP3    H159410   4.103   5.265   1.236
 8625TIP3    H259411   4.044   5.371   1.323
 8626TIP3   OH259412   4.501   5.149   0.248
 8626TIP3    H159413   4.565   5.102   0.302
 8626TIP3    H259414   4.524   5.244   0.265
 8627TIP3   OH259415   4.147   4.878   0.279
 8627TIP3    H159416   4.079   4.924   0.334
 8627TIP3    H259417   4.201   4.952   0.245
 8628TIP3   OH259418   4.942   4.150   1.345
 8628TIP3    H159419   5.034   4.157   1.374
 8628TIP3    H259420   4.922   4.056   1.360
 8629TIP3   OH259421   5.017   4.096   0.429
 8629TIP3    H159422   5.057   4.145   0.355
 8629TIP3    H259423   5.071   4.123   0.506
 8630TIP3   OH259424   4.808   5.287   0.338
 8630TIP3    H159425   4.742   5.358   0.346
 8630TIP3    H259426   4.866   5.322   0.267
 8631TIP3   OH259427   4.747   4.292   0.502
 8631TIP3    H159428   4.815   4.359   0.520
 8631TIP3    H259429   4.727   4.253   0.590
 8632TIP3   OH259430   4.832   4.404   1.422
 8632TIP3    H159431   4.797   4.427   1.510
 8632TIP3    H259432   4.863   4.311   1.429
 8633TIP3   OH259433   4.812   3.963   0.555
 8633TIP3    H159434   4.781   4.029   0.620
 8633TIP3    H259435   4.890   4.012   0.516
 8634TIP3   OH259436   4.534   5.410   0.305
 8634TIP3    H159437   4.556   5.496   0.264
 8634TIP3    H259438   4.497   5.440   0.390
 8635TIP3   OH259439   4.378   4.088   0.294
 8635TIP3    H159440   4.393   4.176   0.333
 8635TIP3    H259441   4.462   4.044   0.317
 8636TIP3   OH259442   5.396   4.152   1.528
 8636TIP3    H159443   5.305   4.174   1.499
 8636TIP3    H259444   5.447   4.170   1.446
 8637TIP3   OH259445   5.304   4.547   0.906
 8637TIP3    H159446   5.229   4.485   0.900
 8637TIP3    H259447   5.371   4.495   0.956
 8638TIP3   OH259448   4.235   5.120   0.152
 8638TIP3    H159449   4.313   5.156   0.199
 8638TIP3    H259450   4.281   5.068   0.084
 8639TIP3   OH259451   4.055   4.413   0.065
 8639TIP3    H159452   4.075   4.507   0.083
 8639TIP3    H259453   3.978   4.422   0.008
 8640TIP3   OH259454   5.391   5.464   1.066
 8640TIP3    H159455   5.397   5.533   0.996
 8640TIP3    H259456   5.486   5.449   1.078
 8641TIP3   OH259457   4.139   3.883   0.968
 8641TIP3    H159458   4.131   3.865   0.872
 8641TIP3    H259459   4.109   3.796   1.003
 8642TIP3   OH259460   3.981   5.254   0.541
 8642TIP3    H159461   3.910   5.303   0.585
 8642TIP3    H259462   4.007   5.319   0.473
 8643TIP3   OH259463   3.942   5.539   1.698
 8643TIP3    H159464   4.014   5.528   1.763
 8643TIP3    H259465   3.901   5.451   1.695
 8644TIP3   OH259466   4.384   5.451   1.837
 8644TIP3    H159467   4.474   5.425   1.863
 8644TIP3    H259468   4.378   5.410   1.748
 8645TIP3   OH259469   4.897   5.389   0.099
 8645TIP3    H159470   4.837   5.332   0.045
 8645TIP3    H259471   4.966   5.409   0.034
 8646TIP3   OH259472   5.034   5.318   1.730
 8646TIP3    H159473   5.011   5.230   1.768
 8646TIP3    H259474   5.120   5.332   1.777
 8647TIP3   OH259475   5.319   5.349   0.013
 8647TIP3    H159476   5.285   5.274   0.067
 8647TIP3    H259477   5.414   5.335   0.027
 8648TIP3   OH259478   3.923   4.894   1.789
 8648TIP3    H159479   3.904   4.800   1.774
 8648TIP3    H259480   3.877   4.936   1.712
 8649TIP3   OH259481   4.409   4.936   0.021
 8649TIP3    H159482   4.473   4.926   0.093
 8649TIP3    H259483   4.452   4.880  -0.048
 8650TIP3   OH259484   4.601   4.918   1.693
 8650TIP3    H159485   4.571   4.980   1.623
 8650TIP3    H259486   4.579   4.829   1.654
 8651TIP3   OH259487   5.168   4.896   1.495
 8651TIP3    H159488   5.254   4.944   1.490
 8651TIP3    H259489   5.111   4.975   1.505
 8652TIP3   OH259490   4.050   4.636   1.734
 8652TIP3    H159491   4.145   4.642   1.739
 8652TIP3    H259492   4.028   4.567   1.801
 8653TIP3   OH259493   4.512   4.765   0.251
 8653TIP3    H159494   4.437   4.717   0.292
 8653TIP3    H259495   4.545   4.700   0.186
 8654TIP3   OH259496   4.396   4.535   1.447
 8654TIP3    H159497   4.338   4.613   1.453
 8654TIP3    H259498   4.457   4.561   1.376
 8655TIP3   OH259499   4.619   4.580   0.051
 8655TIP3    H159500   4.648   4.584  -0.042
 8655TIP3    H259501   4.707   4.584   0.097
 8656TIP3   OH259502   4.954   4.830   1.800
 8656TIP3    H159503   5.001   4.770   1.739
 8656TIP3    H259504   4.869   4.787   1.815
 8657TIP3   OH259505   5.504   4.865   8.485
 8657TIP3    H159506   5.454   4.892   8.406
 8657TIP3    H259507   5.541   4.948   8.518
 8658TIP3   OH259508   4.508   4.312   1.545
 8658TIP3    H159509   4.505   4.245   1.473
 8658TIP3    H259510   4.482   4.395   1.499
 8659TIP3   OH259511   4.505   4.105   1.351
 8659TIP3    H159512   4.552   4.154   1.279
 8659TIP3    H259513   4.415   4.095   1.314
 8660TIP3   OH259514   4.634   4.684   1.343
 8660TIP3    H159515   4.715   4.729   1.316
 8660TIP3    H259516   4.567   4.748   1.310
 8661TIP3   OH259517   5.085   4.406   1.868
 8661TIP3    H159518   5.115   4.324   1.825
 8661TIP3    H259519   5.159   4.466   1.847
 8662TIP3   OH259520   5.238   4.731   1.697
 8662TIP3    H159521   5.209   4.782   1.618
 8662TIP3    H259522   5.332   4.718   1.673
 8663TIP3   OH259523   4.331   4.387   1.773
 8663TIP3    H159524   4.251   4.345   1.736
 8663TIP3    H259525   4.394   4.379   1.699
 8664TIP3   OH259526   4.600   3.855   1.358
 8664TIP3    H159527   4.566   3.947   1.359
 8664TIP3    H259528   4.521   3.808   1.327
 8665TIP3   OH259529   4.694   4.282   1.755
 8665TIP3    H159530   4.637   4.257   1.830
 8665TIP3    H259531   4.634   4.262   1.680
 8666TIP3   OH259532   4.991   4.186   1.671
 8666TIP3    H159533   4.897   4.171   1.687
 8666TIP3    H259534   5.030   4.129   1.741
 8667TIP3   OH259535   5.146   4.051   1.848
 8667TIP3    H159536   5.126   3.955   1.837
 8667TIP3    H259537   5.139   4.062   1.944
 8668TIP3   OH259538   4.105   4.171   1.792
 8668TIP3    H159539   4.098   4.093   1.734
 8668TIP3    H259540   4.083   4.135   1.881
 8669TIP3   OH259541   4.561   3.790   1.655
 8669TIP3    H159542   4.619   3.711   1.661
 8669TIP3    H259543   4.596   3.827   1.571
 8670TIP3   OH259544   4.616   3.943   1.899
 8670TIP3    H159545   4.605   3.901   1.812
 8670TIP3    H259546   4.564   4.025   1.890
 8671TIP3   OH259547   4.578   5.655   0.187
 8671TIP3    H159548   4.667   5.691   0.200
 8671TIP3    H259549   4.581   5.639   0.091
 8672TIP3   OH259550   3.934   5.105   0.110
 8672TIP3    H159551   4.031   5.106   0.122
 8672TIP3    H259552   3.930   5.073   0.019
 8673TIP3   OH259553   3.843   5.599   0.599
 8673TIP3    H159554   3.762   5.551   0.570
 8673TIP3    H259555   3.864   5.550   0.681
 8674TIP3   OH259556   3.912   5.438   0.813
 8674TIP3    H159557   3.858   5.376   0.865
 8674TIP3    H259558   3.971   5.474   0.883
 8675TIP3   OH259559   5.678   5.521   1.081
 8675TIP3    H159560   5.695   5.540   1.175
 8675TIP3    H259561   5.723   5.593   1.036
 8676TIP3   OH259562   5.609   5.486   1.382
 8676TIP3    H159563   5.578   5.408   1.331
 8676TIP3    H259564   5.627   5.444   1.468
 8677TIP3   OH259565   5.482   5.048   1.862
 8677TIP3    H159566   5.388   5.068   1.882
 8677TIP3    H259567   5.525   5.118   1.914
 8678TIP3   OH259568   5.580   4.904   0.375
 8678TIP3    H159569   5.668   4.947   0.386
 8678TIP3    H259570   5.583   4.837   0.447
 8679TIP3   OH259571   5.616   4.710   0.566
 8679TIP3    H159572   5.541   4.670   0.618
 8679TIP3    H259573   5.679   4.733   0.637
 8680TIP3   OH259574   5.595   4.982   1.055
 8680TIP3    H159575   5.667   4.920   1.033
 8680TIP3    H259576   5.631   5.070   1.029
 8681TIP3   OH259577   5.462   5.249   1.300
 8681TIP3    H159578   5.392   5.289   1.355
 8681TIP3    H259579   5.413   5.229   1.217
 8682TIP3   OH259580   5.621   4.665   0.215
 8682TIP3    H159581   5.566   4.686   0.138
 8682TIP3    H259582   5.604   4.742   0.273
 8683TIP3   OH259583   5.431   4.396   0.092
 8683TIP3    H159584   5.507   4.437   0.045
 8683TIP3    H259585   5.444   4.303   0.067
 8684TIP3   OH259586   5.412   4.569   0.664
 8684TIP3    H159587   5.391   4.479   0.634
 8684TIP3    H259588   5.388   4.564   0.760
 8685TIP3   OH259589   3.897   4.781   1.060
 8685TIP3    H159590   3.899   4.748   0.968
 8685TIP3    H259591   3.987   4.752   1.089
 8686TIP3   OH259592   5.514   4.735   1.605
 8686TIP3    H159593   5.581   4.666   1.619
 8686TIP3    H259594   5.568   4.816   1.591
 8687TIP3   OH259595   5.656   4.497   1.649
 8687TIP3    H159596   5.559   4.480   1.651
 8687TIP3    H259597   5.691   4.405   1.655
 8688TIP3   OH259598   5.419   4.152  -0.019
 8688TIP3    H159599   5.470   4.102   0.047
 8688TIP3    H259600   5.326   4.149   0.012
 8689TIP3   OH259601   5.350   4.340   0.502
 8689TIP3    H159602   5.384   4.254   0.535
 8689TIP3    H259603   5.406   4.347   0.423
 8690TIP3   OH259604   5.475   4.385   1.037
 8690TIP3    H159605   5.574   4.389   1.040
 8690TIP3    H259606   5.458   4.395   1.133
 8691TIP3   OH259607   5.462   4.450   1.298
 8691TIP3    H159608   5.382   4.471   1.352
 8691TIP3    H259609   5.504   4.538   1.290
 8692TIP3   OH259610   3.906   4.275   1.655
 8692TIP3    H159611   3.987   4.249   1.702
 8692TIP3    H259612   3.862   4.188   1.644
 8693TIP3   OH259613   5.721   3.878   1.867
 8693TIP3    H159614   5.773   3.826   1.804
 8693TIP3    H259615   5.683   3.946   1.808
 8694TIP3   OH259616   5.438   4.054   0.516
 8694TIP3    H159617   5.477   4.007   0.592
 8694TIP3    H259618   5.395   3.981   0.468
 8695TIP3   OH259619   3.993   4.111   1.016
 8695TIP3    H159620   4.038   4.024   1.002
 8695TIP3    H259621   4.066   4.173   1.002
 8696TIP3   OH259622   3.839   4.418   1.077
 8696TIP3    H159623   3.885   4.397   0.993
 8696TIP3    H259624   3.886   4.499   1.103
 8697TIP3   OH259625   5.574   4.046   1.695
 8697TIP3    H159626   5.502   4.096   1.650
 8697TIP3    H259627   5.594   3.988   1.619
 8698TIP3   OH259628   5.621   4.058   0.151
 8698TIP3    H159629   5.665   4.000   0.087
 8698TIP3    H259630   5.697   4.108   0.189
 8699TIP3   OH259631   3.851   4.043   0.467
 8699TIP3    H159632   3.757   4.058   0.484
 8699TIP3    H259633   3.866   4.093   0.385
 8700TIP3   OH259634   5.329   5.553   0.676
 8700TIP3    H159635   5.399   5.528   0.612
 8700TIP3    H259636   5.379   5.600   0.746
 8701TIP3   OH259637   3.856   3.899   1.290
 8701TIP3    H159638   3.786   3.858   1.345
 8701TIP3    H259639   3.807   3.969   1.245
 8702TIP3   OH259640   4.087   5.230   1.709
 8702TIP3    H159641   4.012   5.256   1.653
 8702TIP3    H259642   4.041   5.174   1.773
 8703TIP3   OH259643   4.381   5.396   1.387
 8703TIP3    H159644   4.372   5.475   1.329
 8703TIP3    H259645   4.472   5.370   1.365
 8704TIP3   OH259646   4.767   5.484   1.589
 8704TIP3    H159647   4.770   5.462   1.684
 8704TIP3    H259648   4.854   5.527   1.578
 8705TIP3   OH259649   4.990   5.647   1.569
 8705TIP3    H159650   5.066   5.624   1.512
 8705TIP3    H259651   5.033   5.682   1.649
 8706TIP3   OH259652   5.495   3.844   1.493
 8706TIP3    H159653   5.420   3.886   1.448
 8706TIP3    H259654   5.504   3.760   1.444
 8707TIP3   OH259655   4.106   5.665   1.321
 8707TIP3    H159656   4.035   5.729   1.296
 8707TIP3    H259657   4.097   5.664   1.417
 8708TIP3   OH259658   4.356   5.623   1.237
 8708TIP3    H159659   4.261   5.638   1.257
 8708TIP3    H259660   4.372   5.693   1.171
 8709TIP3   OH259661   4.811   5.579   1.169
 8709TIP3    H159662   4.747   5.621   1.111
 8709TIP3    H259663   4.834   5.654   1.229
 8710TIP3   OH259664   5.022   5.460   1.301
 8710TIP3    H159665   4.957   5.499   1.239
 8710TIP3    H259666   5.098   5.518   1.279
 8711TIP3   OH259667   5.260   5.617   1.255
 8711TIP3    H159668   5.280   5.707   1.223
 8711TIP3    H259669   5.307   5.564   1.187
 8712TIP3   OH259670   4.072   5.511   1.020
 8712TIP3    H159671   4.048   5.452   1.096
 8712TIP3    H259672   4.161   5.475   0.998
 8713TIP3   OH259673   4.290   5.404   0.906
 8713TIP3    H159674   4.279   5.309   0.926
 8713TIP3    H259675   4.378   5.420   0.945
 8714TIP3   OH259676   4.523   5.403   1.030
 8714TIP3    H159677   4.549   5.311   1.012
 8714TIP3    H259678   4.549   5.412   1.123
 8715TIP3   OH259679   4.880   3.974   0.915
 8715TIP3    H159680   4.795   3.956   0.958
 8715TIP3    H259681   4.881   3.904   0.850
 8716TIP3   OH259682   5.394   3.811   0.903
 8716TIP3    H159683   5.458   3.865   0.851
 8716TIP3    H259684   5.308   3.837   0.861
 8717TIP3   OH259685   5.555   3.919   0.718
 8717TIP3    H159686   5.619   3.862   0.668
 8717TIP3    H259687   5.614   3.996   0.740
 8718TIP3   OH259688   4.110   3.842   0.696
 8718TIP3    H159689   4.029   3.828   0.643
 8718TIP3    H259690   4.158   3.759   0.679
 8719TIP3   OH259691   3.967   3.839   0.245
 8719TIP3    H159692   4.030   3.897   0.198
 8719TIP3    H259693   3.933   3.896   0.317
 8720TIP3   OH259694   4.543   3.817   0.675
 8720TIP3    H159695   4.628   3.830   0.630
 8720TIP3    H259696   4.563   3.848   0.765
 8721TIP3   OH259697   5.150   3.855   0.793
 8721TIP3    H159698   5.104   3.876   0.712
 8721TIP3    H259699   5.093   3.784   0.831
 8722TIP3   OH259700   5.270   3.838   0.368
 8722TIP3    H159701   5.192   3.894   0.361
 8722TIP3    H259702   5.229   3.754   0.402
 8723TIP3   OH259703   3.981   5.451   0.350
 8723TIP3    H159704   3.892   5.444   0.310
 8723TIP3    H259705   3.997   5.545   0.329
 8724TIP3   OH259706   4.146   3.974   0.108
 8724TIP3    H159707   4.231   3.931   0.089
 8724TIP3    H259708   4.175   4.058   0.146
 8725TIP3   OH259709   4.664   4.086   0.352
 8725TIP3    H159710   4.711   4.025   0.412
 8725TIP3    H259711   4.689   4.171   0.395
 8726TIP3   OH259712   4.864   5.642   0.166
 8726TIP3    H159713   4.950   5.659   0.124
 8726TIP3    H259714   4.866   5.544   0.156
 8727TIP3   OH259715   5.510   5.487   0.497
 8727TIP3    H159716   5.492   5.417   0.429
 8727TIP3    H259717   5.510   5.566   0.438
 8728TIP3   OH259718   4.073   3.911   1.645
 8728TIP3    H159719   4.016   3.832   1.648
 8728TIP3    H259720   4.148   3.886   1.702
 8729TIP3   OH259721   4.283   3.851   1.824
 8729TIP3    H159722   4.358   3.876   1.767
 8729TIP3    H259723   4.281   3.756   1.806
 8730TIP3   OH259724   4.157   5.560   0.064
 8730TIP3    H159725   4.089   5.595   0.124
 8730TIP3    H259726   4.180   5.474   0.104
 8731TIP3   OH259727   5.110   3.782   1.792
 8731TIP3    H159728   5.087   3.721   1.865
 8731TIP3    H259729   5.206   3.766   1.783
 8732TIP3   OH259730   5.474   5.382   1.654
 8732TIP3    H159731   5.403   5.391   1.586
 8732TIP3    H259732   5.466   5.468   1.697
 8733TIP3   OH259733   6.922   4.791   0.660
 8733TIP3    H159734   6.895   4.885   0.657
 8733TIP3    H259735   6.845   4.746   0.623
 8734TIP3   OH259736   6.791   4.661   1.006
 8734TIP3    H159737   6.777   4.617   1.093
 8734TIP3    H259738   6.720   4.625   0.952
 8735TIP3   OH259739   6.002   4.664   1.170
 8735TIP3    H159740   6.008   4.588   1.231
 8735TIP3    H259741   6.095   4.689   1.163
 8736TIP3   OH259742   7.111   4.987   0.861
 8736TIP3    H159743   7.089   4.912   0.918
 8736TIP3    H259744   7.138   5.054   0.925
 8737TIP3   OH259745   6.118   5.122   0.998
 8737TIP3    H159746   6.080   5.036   0.970
 8737TIP3    H259747   6.211   5.106   0.976
 8738TIP3   OH259748   5.784   4.452   0.558
 8738TIP3    H159749   5.749   4.540   0.579
 8738TIP3    H259750   5.732   4.429   0.479
 8739TIP3   OH259751   5.828   4.692   0.810
 8739TIP3    H159752   5.861   4.600   0.825
 8739TIP3    H259753   5.908   4.746   0.798
 8740TIP3   OH259754   6.874   5.538   0.849
 8740TIP3    H159755   6.935   5.475   0.804
 8740TIP3    H259756   6.830   5.477   0.909
 8741TIP3   OH259757   6.590   4.945   1.109
 8741TIP3    H159758   6.629   4.924   1.024
 8741TIP3    H259759   6.671   4.957   1.163
 8742TIP3   OH259760   7.471   4.101   1.079
 8742TIP3    H159761   7.482   4.153   1.161
 8742TIP3    H259762   7.557   4.119   1.034
 8743TIP3   OH259763   6.984   4.398   1.111
 8743TIP3    H159764   6.995   4.305   1.136
 8743TIP3    H259765   6.935   4.387   1.027
 8744TIP3   OH259766   6.265   4.171   0.781
 8744TIP3    H159767   6.277   4.256   0.734
 8744TIP3    H259768   6.209   4.124   0.716
 8745TIP3   OH259769   7.009   4.214   0.671
 8745TIP3    H159770   7.067   4.172   0.739
 8745TIP3    H259771   7.070   4.276   0.628
 8746TIP3   OH259772   5.902   4.441   0.884
 8746TIP3    H159773   5.961   4.393   0.946
 8746TIP3    H259774   5.932   4.403   0.799
 8747TIP3   OH259775   6.381   4.591   0.825
 8747TIP3    H159776   6.467   4.551   0.851
 8747TIP3    H259777   6.355   4.525   0.759
 8748TIP3   OH259778   7.492   4.222   1.344
 8748TIP3    H159779   7.458   4.307   1.307
 8748TIP3    H259780   7.524   4.253   1.430
 8749TIP3   OH259781   6.156   4.086   1.221
 8749TIP3    H159782   6.119   4.136   1.145
 8749TIP3    H259783   6.091   4.112   1.291
 8750TIP3   OH259784   6.842   5.023   0.559
 8750TIP3    H159785   6.824   5.032   0.463
 8750TIP3    H259786   6.804   5.108   0.593
 8751TIP3   OH259787   6.365   4.849   1.213
 8751TIP3    H159788   6.309   4.921   1.249
 8751TIP3    H259789   6.443   4.899   1.179
 8752TIP3   OH259790   7.205   4.125   0.829
 8752TIP3    H159791   7.208   4.083   0.915
 8752TIP3    H259792   7.284   4.179   0.834
 8753TIP3   OH259793   6.111   4.273   1.003
 8753TIP3    H159794   6.171   4.340   1.044
 8753TIP3    H259795   6.163   4.246   0.925
 8754TIP3   OH259796   6.250   5.076   1.301
 8754TIP3    H159797   6.230   5.149   1.242
 8754TIP3    H259798   6.163   5.066   1.347
 8755TIP3   OH259799   5.824   5.015   0.381
 8755TIP3    H159800   5.839   5.070   0.302
 8755TIP3    H259801   5.829   5.081   0.455
 8756TIP3   OH259802   7.205   5.196   1.068
 8756TIP3    H159803   7.112   5.217   1.090
 8756TIP3    H259804   7.231   5.282   1.030
 8757TIP3   OH259805   7.202   4.023   1.184
 8757TIP3    H159806   7.125   4.050   1.130
 8757TIP3    H259807   7.279   4.052   1.131
 8758TIP3   OH259808   6.510   3.834   0.950
 8758TIP3    H159809   6.484   3.741   0.941
 8758TIP3    H259810   6.422   3.872   0.978
 8759TIP3   OH259811   7.034   5.363   0.721
 8759TIP3    H159812   7.068   5.285   0.673
 8759TIP3    H259813   7.106   5.429   0.705
 8760TIP3   OH259814   7.151   5.139   0.582
 8760TIP3    H159815   7.131   5.071   0.516
 8760TIP3    H259816   7.126   5.092   0.664
 8761TIP3   OH259817   7.302   5.016   1.455
 8761TIP3    H159818   7.327   4.941   1.395
 8761TIP3    H259819   7.321   5.092   1.396
 8762TIP3   OH259820   6.762   4.699   0.412
 8762TIP3    H159821   6.697   4.772   0.395
 8762TIP3    H259822   6.845   4.736   0.376
 8763TIP3   OH259823   6.760   4.604   0.136
 8763TIP3    H159824   6.812   4.626   0.216
 8763TIP3    H259825   6.808   4.528   0.101
 8764TIP3   OH259826   7.512   4.659   1.234
 8764TIP3    H159827   7.449   4.734   1.244
 8764TIP3    H259828   7.569   4.697   1.163
 8765TIP3   OH259829   7.150   4.739   0.532
 8765TIP3    H159830   7.072   4.755   0.590
 8765TIP3    H259831   7.205   4.682   0.590
 8766TIP3   OH259832   7.122   4.546   1.441
 8766TIP3    H159833   7.112   4.628   1.495
 8766TIP3    H259834   7.054   4.560   1.372
 8767TIP3   OH259835   6.248   4.775   0.680
 8767TIP3    H159836   6.245   4.732   0.592
 8767TIP3    H259837   6.307   4.714   0.729
 8768TIP3   OH259838   6.409   5.111   0.966
 8768TIP3    H159839   6.430   5.092   0.873
 8768TIP3    H259840   6.472   5.056   1.017
 8769TIP3   OH259841   6.276   4.653   1.070
 8769TIP3    H159842   6.308   4.654   0.976
 8769TIP3    H259843   6.333   4.721   1.112
 8770TIP3   OH259844   6.954   5.236   1.135
 8770TIP3    H159845   6.897   5.291   1.191
 8770TIP3    H259846   6.935   5.146   1.170
 8771TIP3   OH259847   6.393   5.112   1.531
 8771TIP3    H159848   6.327   5.167   1.578
 8771TIP3    H259849   6.347   5.100   1.444
 8772TIP3   OH259850   7.002   4.676   0.307
 8772TIP3    H159851   7.062   4.702   0.380
 8772TIP3    H259852   7.044   4.716   0.228
 8773TIP3   OH259853   6.105   4.719   1.452
 8773TIP3    H159854   6.118   4.768   1.534
 8773TIP3    H259855   6.011   4.695   1.458
 8774TIP3   OH259856   6.765   5.271   0.649
 8774TIP3    H159857   6.810   5.328   0.712
 8774TIP3    H259858   6.721   5.335   0.592
 8775TIP3   OH259859   6.221   5.291   1.611
 8775TIP3    H159860   6.209   5.321   1.519
 8775TIP3    H259861   6.128   5.277   1.638
 8776TIP3   OH259862   7.398   3.804   0.316
 8776TIP3    H159863   7.300   3.816   0.320
 8776TIP3    H259864   7.424   3.889   0.276
 8777TIP3   OH259865   6.163   4.673   0.417
 8777TIP3    H159866   6.116   4.756   0.388
 8777TIP3    H259867   6.091   4.609   0.418
 8778TIP3   OH259868   7.470   5.233   0.087
 8778TIP3    H159869   7.491   5.328   0.096
 8778TIP3    H259870   7.558   5.195   0.102
 8779TIP3   OH259871   5.803   4.940   1.361
 8779TIP3    H159872   5.761   4.927   1.274
 8779TIP3    H259873   5.841   4.851   1.373
 8780TIP3   OH259874   5.765   5.210   1.031
 8780TIP3    H159875   5.848   5.160   1.040
 8780TIP3    H259876   5.787   5.289   1.082
 8781TIP3   OH259877   7.563   5.284   1.627
 8781TIP3    H159878   7.549   5.191   1.651
 8781TIP3    H259879   7.473   5.318   1.649
 8782TIP3   OH259880   6.644   5.233   1.504
 8782TIP3    H159881   6.668   5.303   1.568
 8782TIP3    H259882   6.552   5.209   1.527
 8783TIP3   OH259883   6.732   5.600   0.431
 8783TIP3    H159884   6.738   5.625   0.337
 8783TIP3    H259885   6.724   5.688   0.474
 8784TIP3   OH259886   6.090   5.469   0.646
 8784TIP3    H159887   6.114   5.439   0.737
 8784TIP3    H259888   5.999   5.438   0.634
 8785TIP3   OH259889   7.020   5.548   0.152
 8785TIP3    H159890   7.066   5.468   0.120
 8785TIP3    H259891   7.023   5.535   0.248
 8786TIP3   OH259892   6.993   5.520   0.434
 8786TIP3    H159893   6.896   5.537   0.443
 8786TIP3    H259894   7.001   5.435   0.480
 8787TIP3   OH259895   7.255   4.415   1.645
 8787TIP3    H159896   7.210   4.457   1.568
 8787TIP3    H259897   7.271   4.324   1.613
 8788TIP3   OH259898   6.024   5.085   1.429
 8788TIP3    H159899   6.038   5.046   1.518
 8788TIP3    H259900   5.937   5.044   1.407
 8789TIP3   OH259901   6.274   3.926   1.037
 8789TIP3    H159902   6.182   3.920   1.003
 8789TIP3    H259903   6.258   3.978   1.119
 8790TIP3   OH259904   6.752   3.884   1.367
 8790TIP3    H159905   6.785   3.833   1.444
 8790TIP3    H259906   6.654   3.877   1.374
 8791TIP3   OH259907   7.036   4.273   1.487
 8791TIP3    H159908   6.971   4.238   1.553
 8791TIP3    H259909   7.045   4.365   1.516
 8792TIP3   OH259910   7.121   4.775   0.088
 8792TIP3    H159911   7.141   4.779  -0.006
 8792TIP3    H259912   7.191   4.834   0.122
 8793TIP3   OH259913   6.713   4.185   0.111
 8793TIP3    H159914   6.662   4.188   0.194
 8793TIP3    H259915   6.697   4.093   0.083
 8794TIP3   OH259916   6.293   4.402   1.167
 8794TIP3    H159917   6.216   4.405   1.226
 8794TIP3    H259918   6.291   4.494   1.134
 8795TIP3   OH259919   6.268   4.392   0.629
 8795TIP3    H159920   6.170   4.389   0.628
 8795TIP3    H259921   6.294   4.367   0.538
 8796TIP3   OH259922   6.846   4.481   0.532
 8796TIP3    H159923   6.812   4.564   0.491
 8796TIP3    H259924   6.900   4.446   0.459
 8797TIP3   OH259925   6.723   4.525   1.641
 8797TIP3    H159926   6.689   4.438   1.671
 8797TIP3    H259927   6.781   4.548   1.714
 8798TIP3   OH259928   6.892   4.428   0.847
 8798TIP3    H159929   6.911   4.508   0.796
 8798TIP3    H259930   6.914   4.359   0.783
 8799TIP3   OH259931   6.050   4.413   1.293
 8799TIP3    H159932   6.078   4.447   1.379
 8799TIP3    H259933   6.012   4.327   1.321
 8800TIP3   OH259934   6.356   4.193   0.070
 8800TIP3    H159935   6.330   4.127   0.138
 8800TIP3    H259936   6.334   4.277   0.117
 8801TIP3   OH259937   5.719   4.146   0.742
 8801TIP3    H159938   5.793   4.154   0.803
 8801TIP3    H259939   5.754   4.184   0.660
 8802TIP3   OH259940   5.820   4.206   0.262
 8802TIP3    H159941   5.884   4.242   0.198
 8802TIP3    H259942   5.765   4.286   0.277
 8803TIP3   OH259943   6.842   4.575   1.259
 8803TIP3    H159944   6.903   4.515   1.211
 8803TIP3    H259945   6.786   4.511   1.310
 8804TIP3   OH259946   6.568   4.154   0.752
 8804TIP3    H159947   6.473   4.154   0.770
 8804TIP3    H259948   6.607   4.149   0.841
 8805TIP3   OH259949   5.999   4.318   0.659
 8805TIP3    H159950   5.929   4.357   0.601
 8805TIP3    H259951   6.022   4.234   0.614
 8806TIP3   OH259952   6.358   4.334   0.379
 8806TIP3    H159953   6.451   4.358   0.396
 8806TIP3    H259954   6.333   4.392   0.304
 8807TIP3   OH259955   6.981   4.102   1.063
 8807TIP3    H159956   6.916   4.100   1.136
 8807TIP3    H259957   6.937   4.052   0.992
 8808TIP3   OH259958   6.286   4.443   0.148
 8808TIP3    H159959   6.221   4.436   0.076
 8808TIP3    H259960   6.359   4.494   0.105
 8809TIP3   OH259961   7.303   5.678   1.732
 8809TIP3    H159962   7.330   5.751   1.674
 8809TIP3    H259963   7.369   5.689   1.802
 8810TIP3   OH259964   6.045   4.958   1.676
 8810TIP3    H159965   6.123   4.960   1.736
 8810TIP3    H259966   5.977   4.911   1.730
 8811TIP3   OH259967   6.619   4.438   0.904
 8811TIP3    H159968   6.715   4.425   0.884
 8811TIP3    H259969   6.606   4.377   0.978
 8812TIP3   OH259970   6.104   4.074   0.584
 8812TIP3    H159971   6.065   3.999   0.635
 8812TIP3    H259972   6.149   4.027   0.511
 8813TIP3   OH259973   6.522   4.254   1.155
 8813TIP3    H159974   6.447   4.317   1.152
 8813TIP3    H259975   6.583   4.301   1.214
 8814TIP3   OH259976   6.590   4.902   0.386
 8814TIP3    H159977   6.515   4.855   0.342
 8814TIP3    H259978   6.545   4.933   0.469
 8815TIP3   OH259979   7.341   4.859   1.252
 8815TIP3    H159980   7.381   4.916   1.180
 8815TIP3    H259981   7.252   4.849   1.215
 8816TIP3   OH259982   6.973   4.197   0.159
 8816TIP3    H159983   6.884   4.215   0.122
 8816TIP3    H259984   6.989   4.279   0.209
 8817TIP3   OH259985   6.701   4.965   1.469
 8817TIP3    H159986   6.691   4.934   1.560
 8817TIP3    H259987   6.670   5.058   1.476
 8818TIP3   OH259988   7.035   4.402   0.324
 8818TIP3    H159989   7.099   4.384   0.396
 8818TIP3    H259990   7.065   4.489   0.294
 8819TIP3   OH259991   6.091   4.861   0.898
 8819TIP3    H159992   6.144   4.851   0.815
 8819TIP3    H259993   6.132   4.795   0.957
 8820TIP3   OH259994   6.789   5.044   0.272
 8820TIP3    H159995   6.748   5.130   0.298
 8820TIP3    H259996   6.721   4.981   0.304
 8821TIP3   OH259997   5.836   4.662   1.455
 8821TIP3    H159998   5.784   4.615   1.522
 8821TIP3    H259999   5.779   4.651   1.376
 8822TIP3   OH260000   6.488   4.668   1.632
 8822TIP3    H160001   6.443   4.593   1.591
 8822TIP3    H260002   6.573   4.626   1.657
 8823TIP3   OH260003   6.988   5.178   1.493
 8823TIP3    H160004   6.916   5.208   1.437
 8823TIP3    H260005   6.961   5.218   1.578
 8824TIP3   OH260006   7.520   4.394   0.325
 8824TIP3    H160007   7.457   4.386   0.250
 8824TIP3    H260008   7.541   4.489   0.318
 8825TIP3   OH260009   7.551   4.983   1.574
 8825TIP3    H160010   7.458   5.003   1.548
 8825TIP3    H260011   7.596   4.982   1.487
 8826TIP3   OH260012   7.342   5.272   0.334
 8826TIP3    H160013   7.317   5.188   0.372
 8826TIP3    H260014   7.370   5.251   0.243
 8827TIP3   OH260015   7.071   4.776   1.054
 8827TIP3    H160016   6.983   4.739   1.036
 8827TIP3    H260017   7.126   4.709   1.010
 8828TIP3   OH260018   6.325   5.210   0.642
 8828TIP3    H160019   6.339   5.306   0.623
 8828TIP3    H260020   6.237   5.198   0.606
 8829TIP3   OH260021   5.926   4.690   0.122
 8829TIP3    H160022   5.970   4.753   0.183
 8829TIP3    H260023   5.833   4.694   0.149
 8830TIP3   OH260024   6.457   4.972   0.623
 8830TIP3    H160025   6.411   5.059   0.626
 8830TIP3    H260026   6.396   4.912   0.669
 8831TIP3   OH260027   6.525   5.390   1.300
 8831TIP3    H160028   6.587   5.454   1.259
 8831TIP3    H260029   6.583   5.349   1.366
 8832TIP3   OH260030   6.351   5.466   0.566
 8832TIP3    H160031   6.255   5.477   0.583
 8832TIP3    H260032   6.385   5.549   0.606
 8833TIP3   OH260033   6.841   4.982   1.221
 8833TIP3    H160034   6.813   4.956   1.311
 8833TIP3    H260035   6.898   4.907   1.194
 8834TIP3   OH260036   7.104   5.122   0.177
 8834TIP3    H160037   7.139   5.069   0.251
 8834TIP3    H260038   7.012   5.088   0.174
 8835TIP3   OH260039   7.164   5.428   1.461
 8835TIP3    H160040   7.075   5.390   1.451
 8835TIP3    H260041   7.165   5.494   1.388
 8836TIP3   OH260042   7.541   5.523   0.172
 8836TIP3    H160043   7.590   5.591   0.122
 8836TIP3    H260044   7.471   5.578   0.213
 8837TIP3   OH260045   5.989   4.179   1.424
 8837TIP3    H160046   5.907   4.205   1.467
 8837TIP3    H260047   6.000   4.090   1.462
 8838TIP3   OH260048   7.187   4.947   0.370
 8838TIP3    H160049   7.172   4.863   0.420
 8838TIP3    H260050   7.284   4.957   0.384
 8839TIP3   OH260051   5.928   5.343   1.232
 8839TIP3    H160052   5.999   5.277   1.238
 8839TIP3    H260053   5.925   5.373   1.324
 8840TIP3   OH260054   6.394   5.142   0.243
 8840TIP3    H160055   6.460   5.098   0.299
 8840TIP3    H260056   6.415   5.237   0.259
 8841TIP3   OH260057   6.037   4.879   0.285
 8841TIP3    H160058   5.970   4.926   0.341
 8841TIP3    H260059   6.085   4.952   0.243
 8842TIP3   OH260060   6.853   4.135   1.307
 8842TIP3    H160061   6.927   4.159   1.365
 8842TIP3    H260062   6.812   4.060   1.354
 8843TIP3   OH260063   6.898   4.104   0.461
 8843TIP3    H160064   6.940   4.151   0.388
 8843TIP3    H260065   6.940   4.144   0.541
 8844TIP3   OH260066   6.690   5.285   0.338
 8844TIP3    H160067   6.622   5.353   0.353
 8844TIP3    H260068   6.741   5.326   0.264
 8845TIP3   OH260069   6.636   4.285   0.509
 8845TIP3    H160070   6.701   4.356   0.525
 8845TIP3    H260071   6.613   4.254   0.598
 8846TIP3   OH260072   6.705   4.399   1.408
 8846TIP3    H160073   6.702   4.459   1.486
 8846TIP3    H260074   6.769   4.331   1.436
 8847TIP3   OH260075   6.694   3.960   0.559
 8847TIP3    H160076   6.660   4.023   0.628
 8847TIP3    H260077   6.772   4.013   0.527
 8848TIP3   OH260078   6.420   5.404   0.302
 8848TIP3    H160079   6.444   5.491   0.263
 8848TIP3    H260080   6.386   5.436   0.388
 8849TIP3   OH260081   6.260   4.088   0.301
 8849TIP3    H160082   6.273   4.176   0.343
 8849TIP3    H260083   6.345   4.047   0.324
 8850TIP3   OH260084   7.284   4.158   1.522
 8850TIP3    H160085   7.191   4.178   1.500
 8850TIP3    H260086   7.330   4.169   1.436
 8851TIP3   OH260087   7.164   4.511   0.898
 8851TIP3    H160088   7.098   4.463   0.952
 8851TIP3    H260089   7.245   4.486   0.947
 8852TIP3   OH260090   6.118   5.123   0.152
 8852TIP3    H160091   6.199   5.154   0.196
 8852TIP3    H260092   6.159   5.078   0.075
 8853TIP3   OH260093   5.945   4.418   0.088
 8853TIP3    H160094   5.961   4.514   0.100
 8853TIP3    H260095   5.875   4.419   0.021
 8854TIP3   OH260096   7.276   5.469   1.070
 8854TIP3    H160097   7.286   5.532   0.995
 8854TIP3    H260098   7.370   5.456   1.091
 8855TIP3   OH260099   6.018   3.884   0.976
 8855TIP3    H160100   6.012   3.869   0.879
 8855TIP3    H260101   5.987   3.797   1.009
 8856TIP3   OH260102   5.856   5.250   0.531
 8856TIP3    H160103   5.797   5.307   0.584
 8856TIP3    H260104   5.887   5.316   0.465
 8857TIP3   OH260105   5.819   5.528   1.698
 8857TIP3    H160106   5.888   5.514   1.766
 8857TIP3    H260107   5.791   5.437   1.679
 8858TIP3   OH260108   6.275   5.468   1.816
 8858TIP3    H160109   6.361   5.428   1.838
 8858TIP3    H260110   6.259   5.425   1.729
 8859TIP3   OH260111   6.785   5.393   0.102
 8859TIP3    H160112   6.723   5.339   0.049
 8859TIP3    H260113   6.852   5.415   0.034
 8860TIP3   OH260114   6.927   5.283   1.732
 8860TIP3    H160115   6.899   5.199   1.772
 8860TIP3    H260116   7.014   5.298   1.775
 8861TIP3   OH260117   7.194   5.346   0.017
 8861TIP3    H160118   7.164   5.271   0.074
 8861TIP3    H260119   7.290   5.332   0.021
 8862TIP3   OH260120   5.803   4.910   1.797
 8862TIP3    H160121   5.780   4.816   1.791
 8862TIP3    H260122   5.751   4.945   1.721
 8863TIP3   OH260123   6.294   4.938   0.016
 8863TIP3    H160124   6.358   4.928   0.088
 8863TIP3    H260125   6.333   4.877  -0.051
 8864TIP3   OH260126   6.489   4.933   1.701
 8864TIP3    H160127   6.460   4.990   1.625
 8864TIP3    H260128   6.492   4.842   1.660
 8865TIP3   OH260129   7.052   4.907   1.488
 8865TIP3    H160130   7.136   4.958   1.483
 8865TIP3    H260131   6.994   4.985   1.496
 8866TIP3   OH260132   5.916   4.643   1.769
 8866TIP3    H160133   5.926   4.597   1.685
 8866TIP3    H260134   5.888   4.571   1.826
 8867TIP3   OH260135   6.399   4.764   0.249
 8867TIP3    H160136   6.325   4.716   0.291
 8867TIP3    H260137   6.431   4.698   0.185
 8868TIP3   OH260138   6.293   4.533   1.429
 8868TIP3    H160139   6.244   4.617   1.440
 8868TIP3    H260140   6.371   4.566   1.378
 8869TIP3   OH260141   6.508   4.574   0.045
 8869TIP3    H160142   6.539   4.577  -0.047
 8869TIP3    H260143   6.594   4.580   0.093
 8870TIP3   OH260144   6.849   4.829   1.801
 8870TIP3    H160145   6.920   4.803   1.739
 8870TIP3    H260146   6.842   4.747   1.855
 8871TIP3   OH260147   7.401   4.855   8.483
 8871TIP3    H160148   7.356   4.865   8.398
 8871TIP3    H260149   7.424   4.946   8.506
 8872TIP3   OH260150   6.353   4.298   1.546
 8872TIP3    H160151   6.366   4.222   1.484
 8872TIP3    H260152   6.338   4.373   1.484
 8873TIP3   OH260153   6.390   4.105   1.347
 8873TIP3    H160154   6.434   4.151   1.272
 8873TIP3    H260155   6.299   4.095   1.312
 8874TIP3   OH260156   6.520   4.675   1.334
 8874TIP3    H160157   6.606   4.719   1.334
 8874TIP3    H260158   6.460   4.749   1.305
 8875TIP3   OH260159   6.996   4.404   1.823
 8875TIP3    H160160   7.022   4.311   1.832
 8875TIP3    H260161   7.075   4.444   1.781
 8876TIP3   OH260162   7.138   4.721   1.667
 8876TIP3    H160163   7.120   4.802   1.615
 8876TIP3    H260164   7.236   4.715   1.664
 8877TIP3   OH260165   6.236   4.358   1.783
 8877TIP3    H160166   6.140   4.352   1.770
 8877TIP3    H260167   6.272   4.345   1.692
 8878TIP3   OH260168   6.485   3.848   1.351
 8878TIP3    H160169   6.452   3.941   1.354
 8878TIP3    H260170   6.411   3.802   1.310
 8879TIP3   OH260171   6.571   4.293   1.745
 8879TIP3    H160172   6.514   4.289   1.824
 8879TIP3    H260173   6.506   4.280   1.673
 8880TIP3   OH260174   6.840   4.191   1.660
 8880TIP3    H160175   6.753   4.213   1.699
 8880TIP3    H260176   6.880   4.142   1.733
 8881TIP3   OH260177   7.058   4.064   1.838
 8881TIP3    H160178   7.043   3.970   1.815
 8881TIP3    H260179   7.011   4.072   1.922
 8882TIP3   OH260180   5.986   4.177   1.804
 8882TIP3    H160181   6.024   4.115   1.741
 8882TIP3    H260182   5.971   4.123   1.884
 8883TIP3   OH260183   6.444   3.806   1.623
 8883TIP3    H160184   6.510   3.737   1.643
 8883TIP3    H260185   6.461   3.817   1.527
 8884TIP3   OH260186   6.514   3.934   1.872
 8884TIP3    H160187   6.509   3.879   1.792
 8884TIP3    H260188   6.450   4.004   1.850
 8885TIP3   OH260189   6.470   5.646   0.191
 8885TIP3    H160190   6.555   5.691   0.200
 8885TIP3    H260191   6.469   5.630   0.095
 8886TIP3   OH260192   5.817   5.112   0.108
 8886TIP3    H160193   5.914   5.116   0.120
 8886TIP3    H260194   5.814   5.070   0.021
 8887TIP3   OH260195   5.721   5.601   0.605
 8887TIP3    H160196   5.641   5.548   0.580
 8887TIP3    H260197   5.753   5.550   0.682
 8888TIP3   OH260198   5.802   5.439   0.807
 8888TIP3    H160199   5.747   5.373   0.853
 8888TIP3    H260200   5.861   5.467   0.880
 8889TIP3   OH260201   7.556   5.522   1.074
 8889TIP3    H160202   7.577   5.527   1.168
 8889TIP3    H260203   7.614   5.591   1.039
 8890TIP3   OH260204   7.504   5.467   1.392
 8890TIP3    H160205   7.471   5.396   1.332
 8890TIP3    H260206   7.535   5.415   1.468
 8891TIP3   OH260207   7.366   5.048   1.824
 8891TIP3    H160208   7.287   5.048   1.883
 8891TIP3    H260209   7.406   5.133   1.849
 8892TIP3   OH260210   7.464   4.894   0.384
 8892TIP3    H160211   7.548   4.943   0.400
 8892TIP3    H260212   7.466   4.829   0.458
 8893TIP3   OH260213   7.510   4.701   0.578
 8893TIP3    H160214   7.432   4.660   0.624
 8893TIP3    H260215   7.564   4.726   0.656
 8894TIP3   OH260216   7.471   4.977   1.057
 8894TIP3    H160217   7.543   4.913   1.041
 8894TIP3    H260218   7.508   5.059   1.020
 8895TIP3   OH260219   7.350   5.249   1.305
 8895TIP3    H160220   7.289   5.312   1.349
 8895TIP3    H260221   7.302   5.227   1.222
 8896TIP3   OH260222   7.514   4.684   0.211
 8896TIP3    H160223   7.463   4.720   0.136
 8896TIP3    H260224   7.499   4.752   0.279
 8897TIP3   OH260225   7.314   4.395   0.091
 8897TIP3    H160226   7.390   4.435   0.045
 8897TIP3    H260227   7.327   4.302   0.062
 8898TIP3   OH260228   7.303   4.557   0.669
 8898TIP3    H160229   7.284   4.470   0.631
 8898TIP3    H260230   7.266   4.546   0.759
 8899TIP3   OH260231   5.789   4.776   1.063
 8899TIP3    H160232   5.790   4.745   0.969
 8899TIP3    H260233   5.881   4.748   1.091
 8900TIP3   OH260234   7.414   4.737   1.610
 8900TIP3    H160235   7.464   4.661   1.647
 8900TIP3    H260236   7.483   4.802   1.585
 8901TIP3   OH260237   7.504   4.505   1.717
 8901TIP3    H160238   7.411   4.486   1.693
 8901TIP3    H260239   7.548   4.422   1.687
 8902TIP3   OH260240   7.303   4.150  -0.025
 8902TIP3    H160241   7.359   4.103   0.042
 8902TIP3    H260242   7.212   4.145   0.011
 8903TIP3   OH260243   7.235   4.337   0.501
 8903TIP3    H160244   7.267   4.250   0.531
 8903TIP3    H260245   7.289   4.343   0.421
 8904TIP3   OH260246   7.349   4.390   1.053
 8904TIP3    H160247   7.448   4.396   1.054
 8904TIP3    H260248   7.332   4.387   1.149
 8905TIP3   OH260249   7.350   4.447   1.314
 8905TIP3    H160250   7.265   4.476   1.352
 8905TIP3    H260251   7.390   4.533   1.285
 8906TIP3   OH260252   5.762   4.247   1.657
 8906TIP3    H160253   5.838   4.223   1.714
 8906TIP3    H260254   5.690   4.192   1.696
 8907TIP3   OH260255   7.333   4.074   0.514
 8907TIP3    H160256   7.362   4.019   0.591
 8907TIP3    H260257   7.279   4.008   0.468
 8908TIP3   OH260258   5.876   4.115   1.013
 8908TIP3    H160259   5.915   4.026   1.002
 8908TIP3    H260260   5.956   4.171   1.005
 8909TIP3   OH260261   5.731   4.418   1.079
 8909TIP3    H160262   5.778   4.385   1.001
 8909TIP3    H260263   5.778   4.501   1.092
 8910TIP3   OH260264   7.459   4.049   1.685
 8910TIP3    H160265   7.387   4.091   1.630
 8910TIP3    H260266   7.488   3.983   1.621
 8911TIP3   OH260267   7.506   4.066   0.148
 8911TIP3    H160268   7.554   4.011   0.084
 8911TIP3    H260269   7.580   4.120   0.183
 8912TIP3   OH260270   5.736   4.041   0.467
 8912TIP3    H160271   5.639   4.034   0.470
 8912TIP3    H260272   5.750   4.092   0.385
 8913TIP3   OH260273   7.212   5.548   0.673
 8913TIP3    H160274   7.288   5.530   0.614
 8913TIP3    H260275   7.250   5.603   0.744
 8914TIP3   OH260276   5.733   3.905   1.290
 8914TIP3    H160277   5.660   3.864   1.338
 8914TIP3    H260278   5.691   3.971   1.232
 8915TIP3   OH260279   5.973   5.239   1.709
 8915TIP3    H160280   5.883   5.252   1.673
 8915TIP3    H260281   5.979   5.142   1.711
 8916TIP3   OH260282   6.260   5.378   1.361
 8916TIP3    H160283   6.264   5.467   1.317
 8916TIP3    H260284   6.354   5.354   1.357
 8917TIP3   OH260285   6.671   5.502   1.615
 8917TIP3    H160286   6.678   5.483   1.711
 8917TIP3    H260287   6.763   5.529   1.594
 8918TIP3   OH260288   6.902   5.633   1.558
 8918TIP3    H160289   6.981   5.629   1.502
 8918TIP3    H260290   6.938   5.663   1.643
 8919TIP3   OH260291   7.421   3.849   1.479
 8919TIP3    H160292   7.344   3.887   1.435
 8919TIP3    H260293   7.434   3.764   1.430
 8920TIP3   OH260294   5.999   5.675   1.322
 8920TIP3    H160295   5.929   5.729   1.280
 8920TIP3    H260296   5.969   5.665   1.413
 8921TIP3   OH260297   6.246   5.615   1.238
 8921TIP3    H160298   6.153   5.630   1.269
 8921TIP3    H260299   6.246   5.668   1.157
 8922TIP3   OH260300   6.692   5.580   1.161
 8922TIP3    H160301   6.617   5.622   1.114
 8922TIP3    H260302   6.722   5.655   1.216
 8923TIP3   OH260303   6.911   5.459   1.301
 8923TIP3    H160304   6.846   5.503   1.242
 8923TIP3    H260305   6.989   5.514   1.279
 8924TIP3   OH260306   7.156   5.608   1.264
 8924TIP3    H160307   7.177   5.700   1.237
 8924TIP3    H260308   7.198   5.561   1.188
 8925TIP3   OH260309   5.968   5.514   1.016
 8925TIP3    H160310   5.941   5.458   1.092
 8925TIP3    H260311   6.052   5.472   0.989
 8926TIP3   OH260312   6.182   5.401   0.897
 8926TIP3    H160313   6.176   5.306   0.920
 8926TIP3    H260314   6.268   5.422   0.941
 8927TIP3   OH260315   6.406   5.405   1.035
 8927TIP3    H160316   6.437   5.314   1.016
 8927TIP3    H260317   6.411   5.406   1.132
 8928TIP3   OH260318   6.780   3.993   0.905
 8928TIP3    H160319   6.702   3.985   0.960
 8928TIP3    H260320   6.763   3.922   0.841
 8929TIP3   OH260321   7.282   3.808   0.898
 8929TIP3    H160322   7.341   3.867   0.846
 8929TIP3    H260323   7.192   3.829   0.862
 8930TIP3   OH260324   7.442   3.921   0.714
 8930TIP3    H160325   7.509   3.866   0.667
 8930TIP3    H260326   7.498   3.998   0.739
 8931TIP3   OH260327   5.993   3.844   0.708
 8931TIP3    H160328   5.911   3.836   0.656
 8931TIP3    H260329   6.038   3.760   0.684
 8932TIP3   OH260330   5.858   3.841   0.245
 8932TIP3    H160331   5.916   3.903   0.196
 8932TIP3    H260332   5.815   3.896   0.313
 8933TIP3   OH260333   6.414   3.813   0.678
 8933TIP3    H160334   6.502   3.829   0.641
 8933TIP3    H260335   6.415   3.862   0.761
 8934TIP3   OH260336   7.041   3.849   0.793
 8934TIP3    H160337   6.997   3.881   0.713
 8934TIP3    H260338   6.981   3.777   0.823
 8935TIP3   OH260339   7.148   3.848   0.372
 8935TIP3    H160340   7.065   3.894   0.360
 8935TIP3    H260341   7.116   3.765   0.414
 8936TIP3   OH260342   5.864   5.455   0.346
 8936TIP3    H160343   5.774   5.453   0.308
 8936TIP3    H260344   5.884   5.548   0.322
 8937TIP3   OH260345   6.036   3.977   0.106
 8937TIP3    H160346   6.120   3.930   0.106
 8937TIP3    H260347   6.062   4.065   0.135
 8938TIP3   OH260348   6.550   4.086   0.355
 8938TIP3    H160349   6.591   4.021   0.414
 8938TIP3    H260350   6.579   4.169   0.402
 8939TIP3   OH260351   6.754   5.651   0.168
 8939TIP3    H160352   6.843   5.665   0.129
 8939TIP3    H260353   6.750   5.554   0.153
 8940TIP3   OH260354   7.398   5.481   0.491
 8940TIP3    H160355   7.380   5.404   0.430
 8940TIP3    H260356   7.394   5.554   0.425
 8941TIP3   OH260357   5.965   3.928   1.637
 8941TIP3    H160358   5.913   3.847   1.629
 8941TIP3    H260359   6.042   3.899   1.691
 8942TIP3   OH260360   6.182   3.823   1.794
 8942TIP3    H160361   6.263   3.825   1.741
 8942TIP3    H260362   6.193   3.736   1.837
 8943TIP3   OH260363   6.055   5.552   0.051
 8943TIP3    H160364   5.982   5.595   0.098
 8943TIP3    H260365   6.072   5.471   0.103
 8944TIP3   OH260366   7.013   3.779   1.808
 8944TIP3    H160367   6.981   3.688   1.797
 8944TIP3    H260368   7.107   3.768   1.782
 8945TIP3   OH260369   7.335   5.408   1.664
 8945TIP3    H160370   7.285   5.409   1.579
 8945TIP3    H260371   7.332   5.503   1.688
 8946TIP3   OH260372   8.809   4.795   0.654
 8946TIP3    H160373   8.796   4.893   0.653
 8946TIP3    H260374   8.730   4.765   0.605
 8947TIP3   OH260375   8.652   4.658   0.996
 8947TIP3    H160376   8.669   4.623   1.085
 8947TIP3    H260377   8.586   4.598   0.958
 8948TIP3   OH260378   7.886   4.666   1.159
 8948TIP3    H160379   7.890   4.590   1.220
 8948TIP3    H260380   7.975   4.703   1.169
 8949TIP3   OH260381   9.032   5.017   0.862
 8949TIP3    H160382   9.039   4.943   0.924
 8949TIP3    H260383   9.035   5.095   0.921
 8950TIP3   OH260384   8.015   5.111   1.015
 8950TIP3    H160385   7.974   5.031   0.977
 8950TIP3    H260386   8.106   5.100   0.981
 8951TIP3   OH260387   7.663   4.444   0.572
 8951TIP3    H160388   7.639   4.537   0.583
 8951TIP3    H260389   7.596   4.414   0.508
 8952TIP3   OH260390   7.715   4.704   0.800
 8952TIP3    H160391   7.751   4.614   0.814
 8952TIP3    H260392   7.794   4.760   0.802
 8953TIP3   OH260393   8.760   5.547   0.864
 8953TIP3    H160394   8.822   5.486   0.815
 8953TIP3    H260395   8.712   5.481   0.916
 8954TIP3   OH260396   8.476   4.980   1.085
 8954TIP3    H160397   8.500   4.929   1.005
 8954TIP3    H260398   8.565   4.988   1.124
 8955TIP3   OH260399   9.357   4.148   1.140
 8955TIP3    H160400   9.375   4.243   1.148
 8955TIP3    H260401   9.446   4.121   1.109
 8956TIP3   OH260402   8.824   4.399   1.104
 8956TIP3    H160403   8.854   4.309   1.123
 8956TIP3    H260404   8.814   4.397   1.007
 8957TIP3   OH260405   8.147   4.174   0.786
 8957TIP3    H160406   8.157   4.255   0.731
 8957TIP3    H260407   8.096   4.118   0.723
 8958TIP3   OH260408   8.913   4.232   0.678
 8958TIP3    H160409   8.964   4.181   0.745
 8958TIP3    H260410   8.983   4.283   0.635
 8959TIP3   OH260411   7.781   4.447   0.875
 8959TIP3    H160412   7.839   4.400   0.937
 8959TIP3    H260413   7.813   4.409   0.790
 8960TIP3   OH260414   8.268   4.590   0.824
 8960TIP3    H160415   8.354   4.550   0.849
 8960TIP3    H260416   8.239   4.525   0.756
 8961TIP3   OH260417   8.059   4.098   1.200
 8961TIP3    H160418   8.014   4.145   1.127
 8961TIP3    H260419   7.997   4.118   1.273
 8962TIP3   OH260420   8.735   5.034   0.567
 8962TIP3    H160421   8.716   5.039   0.471
 8962TIP3    H260422   8.703   5.122   0.598
 8963TIP3   OH260423   8.249   4.864   1.176
 8963TIP3    H160424   8.198   4.936   1.218
 8963TIP3    H260425   8.328   4.913   1.142
 8964TIP3   OH260426   9.086   4.164   0.875
 8964TIP3    H160427   9.043   4.115   0.948
 8964TIP3    H260428   9.144   4.224   0.925
 8965TIP3   OH260429   7.991   4.282   1.007
 8965TIP3    H160430   8.051   4.345   1.052
 8965TIP3    H260431   8.043   4.255   0.928
 8966TIP3   OH260432   8.133   5.080   1.304
 8966TIP3    H160433   8.101   5.142   1.237
 8966TIP3    H260434   8.048   5.056   1.348
 8967TIP3   OH260435   7.706   5.011   0.393
 8967TIP3    H160436   7.705   5.055   0.306
 8967TIP3    H260437   7.719   5.087   0.454
 8968TIP3   OH260438   9.062   5.213   1.037
 8968TIP3    H160439   8.967   5.223   1.056
 8968TIP3    H260440   9.090   5.306   1.034
 8969TIP3   OH260441   9.147   3.985   1.220
 8969TIP3    H160442   9.082   4.005   1.151
 8969TIP3    H260443   9.216   4.053   1.201
 8970TIP3   OH260444   8.400   3.845   0.958
 8970TIP3    H160445   8.369   3.753   0.951
 8970TIP3    H260446   8.316   3.889   0.988
 8971TIP3   OH260447   8.907   5.383   0.720
 8971TIP3    H160448   8.939   5.296   0.689
 8971TIP3    H260449   8.979   5.442   0.687
 8972TIP3   OH260450   9.042   5.147   0.581
 8972TIP3    H160451   9.015   5.071   0.526
 8972TIP3    H260452   9.071   5.103   0.663
 8973TIP3   OH260453   9.174   5.008   1.463
 8973TIP3    H160454   9.159   4.943   1.391
 8973TIP3    H260455   9.216   5.082   1.414
 8974TIP3   OH260456   8.641   4.711   0.412
 8974TIP3    H160457   8.572   4.777   0.388
 8974TIP3    H260458   8.717   4.744   0.360
 8975TIP3   OH260459   8.635   4.603   0.129
 8975TIP3    H160460   8.707   4.633   0.188
 8975TIP3    H260461   8.679   4.533   0.079
 8976TIP3   OH260462   9.358   4.646   1.198
 8976TIP3    H160463   9.290   4.716   1.208
 8976TIP3    H260464   9.422   4.695   1.141
 8977TIP3   OH260465   8.999   4.691   0.502
 8977TIP3    H160466   8.932   4.734   0.561
 8977TIP3    H260467   9.060   4.652   0.570
 8978TIP3   OH260468   8.963   4.518   1.426
 8978TIP3    H160469   8.955   4.591   1.491
 8978TIP3    H260470   8.907   4.556   1.355
 8979TIP3   OH260471   8.125   4.771   0.686
 8979TIP3    H160472   8.121   4.731   0.597
 8979TIP3    H260473   8.187   4.711   0.733
 8980TIP3   OH260474   8.291   5.119   0.961
 8980TIP3    H160475   8.315   5.107   0.869
 8980TIP3    H260476   8.363   5.072   1.010
 8981TIP3   OH260477   8.165   4.640   1.071
 8981TIP3    H160478   8.198   4.637   0.978
 8981TIP3    H260479   8.213   4.718   1.108
 8982TIP3   OH260480   8.816   5.222   1.131
 8982TIP3    H160481   8.776   5.275   1.201
 8982TIP3    H260482   8.808   5.132   1.167
 8983TIP3   OH260483   8.297   5.109   1.527
 8983TIP3    H160484   8.220   5.160   1.562
 8983TIP3    H260485   8.263   5.095   1.436
 8984TIP3   OH260486   8.865   4.671   0.272
 8984TIP3    H160487   8.918   4.672   0.354
 8984TIP3    H260488   8.922   4.723   0.209
 8985TIP3   OH260489   7.992   4.693   1.446
 8985TIP3    H160490   8.011   4.782   1.479
 8985TIP3    H260491   7.898   4.685   1.470
 8986TIP3   OH260492   8.640   5.275   0.652
 8986TIP3    H160493   8.702   5.334   0.697
 8986TIP3    H260494   8.591   5.334   0.594
 8987TIP3   OH260495   8.095   5.266   1.594
 8987TIP3    H160496   8.091   5.316   1.509
 8987TIP3    H260497   8.000   5.250   1.613
 8988TIP3   OH260498   9.248   3.766   0.302
 8988TIP3    H160499   9.159   3.801   0.323
 8988TIP3    H260500   9.252   3.777   0.205
 8989TIP3   OH260501   8.045   4.669   0.431
 8989TIP3    H160502   7.997   4.752   0.408
 8989TIP3    H260503   7.976   4.602   0.422
 8990TIP3   OH260504   9.350   5.282   0.105
 8990TIP3    H160505   9.394   5.343   0.045
 8990TIP3    H260506   9.415   5.207   0.107
 8991TIP3   OH260507   7.674   4.943   1.343
 8991TIP3    H160508   7.624   4.940   1.260
 8991TIP3    H260509   7.718   4.856   1.341
 8992TIP3   OH260510   7.652   5.204   1.022
 8992TIP3    H160511   7.746   5.183   1.027
 8992TIP3    H260512   7.646   5.285   1.074
 8993TIP3   OH260513   8.525   5.242   1.497
 8993TIP3    H160514   8.528   5.329   1.542
 8993TIP3    H260515   8.435   5.207   1.516
 8994TIP3   OH260516   8.604   5.604   0.439
 8994TIP3    H160517   8.605   5.633   0.345
 8994TIP3    H260518   8.604   5.692   0.484
 8995TIP3   OH260519   7.976   5.479   0.653
 8995TIP3    H160520   7.993   5.444   0.743
 8995TIP3    H260521   7.886   5.447   0.632
 8996TIP3   OH260522   8.899   5.553   0.149
 8996TIP3    H160523   8.954   5.478   0.118
 8996TIP3    H260524   8.906   5.543   0.246
 8997TIP3   OH260525   8.861   5.516   0.432
 8997TIP3    H160526   8.766   5.532   0.452
 8997TIP3    H260527   8.885   5.442   0.490
 8998TIP3   OH260528   9.183   4.432   1.634
 8998TIP3    H160529   9.118   4.445   1.562
 8998TIP3    H260530   9.226   4.350   1.605
 8999TIP3   OH260531   7.902   5.049   1.428
 8999TIP3    H160532   7.904   5.025   1.523
 8999TIP3    H260533   7.810   5.026   1.404
 9000TIP3   OH260534   8.164   3.931   1.033
 9000TIP3    H160535   8.073   3.922   0.999
 9000TIP3    H260536   8.146   3.987   1.112
 9001TIP3   OH260537   8.658   3.881   1.368
 9001TIP3    H160538   8.692   3.850   1.455
 9001TIP3    H260539   8.560   3.872   1.374
 9002TIP3   OH260540   8.959   4.246   1.453
 9002TIP3    H160541   8.904   4.225   1.532
 9002TIP3    H260542   8.953   4.343   1.451
 9003TIP3   OH260543   9.017   4.783   0.091
 9003TIP3    H160544   9.054   4.743   0.012
 9003TIP3    H260545   9.092   4.837   0.121
 9004TIP3   OH260546   8.591   4.187   0.125
 9004TIP3    H160547   8.547   4.186   0.212
 9004TIP3    H260548   8.583   4.094   0.101
 9005TIP3   OH260549   8.172   4.400   1.184
 9005TIP3    H160550   8.091   4.407   1.240
 9005TIP3    H260551   8.169   4.488   1.139
 9006TIP3   OH260552   8.166   4.401   0.642
 9006TIP3    H160553   8.069   4.403   0.641
 9006TIP3    H260554   8.188   4.380   0.548
 9007TIP3   OH260555   8.723   4.475   0.515
 9007TIP3    H160556   8.695   4.562   0.478
 9007TIP3    H260557   8.787   4.444   0.448
 9008TIP3   OH260558   8.594   4.512   1.646
 9008TIP3    H160559   8.545   4.431   1.673
 9008TIP3    H260560   8.658   4.522   1.718
 9009TIP3   OH260561   8.805   4.460   0.827
 9009TIP3    H160562   8.793   4.541   0.774
 9009TIP3    H260563   8.824   4.395   0.757
 9010TIP3   OH260564   7.928   4.413   1.302
 9010TIP3    H160565   7.936   4.440   1.395
 9010TIP3    H260566   7.892   4.322   1.312
 9011TIP3   OH260567   8.258   4.200   0.065
 9011TIP3    H160568   8.222   4.141   0.135
 9011TIP3    H260569   8.230   4.289   0.096
 9012TIP3   OH260570   7.607   4.134   0.749
 9012TIP3    H160571   7.678   4.148   0.814
 9012TIP3    H260572   7.643   4.173   0.668
 9013TIP3   OH260573   7.707   4.206   0.257
 9013TIP3    H160574   7.774   4.245   0.198
 9013TIP3    H260575   7.659   4.288   0.280
 9014TIP3   OH260576   8.760   4.617   1.249
 9014TIP3    H160577   8.797   4.541   1.199
 9014TIP3    H260578   8.696   4.572   1.307
 9015TIP3   OH260579   8.452   4.149   0.750
 9015TIP3    H160580   8.359   4.159   0.779
 9015TIP3    H260581   8.499   4.125   0.832
 9016TIP3   OH260582   7.886   4.320   0.660
 9016TIP3    H160583   7.815   4.357   0.603
 9016TIP3    H260584   7.910   4.236   0.615
 9017TIP3   OH260585   8.231   4.345   0.384
 9017TIP3    H160586   8.326   4.366   0.394
 9017TIP3    H260587   8.209   4.395   0.302
 9018TIP3   OH260588   8.913   4.064   1.056
 9018TIP3    H160589   8.838   4.074   1.117
 9018TIP3    H260590   8.872   4.013   0.982
 9019TIP3   OH260591   8.174   4.443   0.144
 9019TIP3    H160592   8.100   4.438   0.081
 9019TIP3    H260593   8.241   4.493   0.092
 9020TIP3   OH260594   9.162   5.633   1.725
 9020TIP3    H160595   9.214   5.670   1.650
 9020TIP3    H260596   9.216   5.664   1.799
 9021TIP3   OH260597   7.944   4.913   1.675
 9021TIP3    H160598   8.010   4.939   1.743
 9021TIP3    H260599   7.863   4.901   1.729
 9022TIP3   OH260600   8.499   4.432   0.905
 9022TIP3    H160601   8.593   4.414   0.884
 9022TIP3    H260602   8.477   4.357   0.962
 9023TIP3   OH260603   7.989   4.073   0.585
 9023TIP3    H160604   7.943   4.001   0.634
 9023TIP3    H260605   8.027   4.023   0.510
 9024TIP3   OH260606   8.420   4.278   1.190
 9024TIP3    H160607   8.340   4.334   1.188
 9024TIP3    H260608   8.485   4.338   1.230
 9025TIP3   OH260609   8.462   4.909   0.378
 9025TIP3    H160610   8.385   4.863   0.338
 9025TIP3    H260611   8.422   4.938   0.463
 9026TIP3   OH260612   9.179   4.863   1.239
 9026TIP3    H160613   9.227   4.924   1.179
 9026TIP3    H260614   9.093   4.853   1.192
 9027TIP3   OH260615   8.841   4.198   0.215
 9027TIP3    H160616   8.750   4.201   0.180
 9027TIP3    H260617   8.863   4.293   0.221
 9028TIP3   OH260618   8.605   4.975   1.477
 9028TIP3    H160619   8.575   4.940   1.562
 9028TIP3    H260620   8.576   5.068   1.483
 9029TIP3   OH260621   8.938   4.415   0.347
 9029TIP3    H160622   9.006   4.386   0.412
 9029TIP3    H260623   8.967   4.505   0.327
 9030TIP3   OH260624   7.977   4.860   0.906
 9030TIP3    H160625   8.031   4.852   0.824
 9030TIP3    H260626   8.014   4.791   0.963
 9031TIP3   OH260627   8.671   5.048   0.287
 9031TIP3    H160628   8.625   5.132   0.310
 9031TIP3    H260629   8.602   4.983   0.313
 9032TIP3   OH260630   7.701   4.687   1.462
 9032TIP3    H160631   7.686   4.642   1.547
 9032TIP3    H260632   7.636   4.647   1.403
 9033TIP3   OH260633   8.374   4.669   1.641
 9033TIP3    H160634   8.321   4.614   1.581
 9033TIP3    H260635   8.459   4.620   1.641
 9034TIP3   OH260636   8.869   5.169   1.484
 9034TIP3    H160637   8.783   5.198   1.454
 9034TIP3    H260638   8.864   5.192   1.578
 9035TIP3   OH260639   9.262   5.218   0.346
 9035TIP3    H160640   9.171   5.188   0.341
 9035TIP3    H260641   9.281   5.245   0.252
 9036TIP3   OH260642   8.976   4.770   1.052
 9036TIP3    H160643   8.882   4.754   1.038
 9036TIP3    H260644   9.018   4.703   0.995
 9037TIP3   OH260645   8.199   5.198   0.677
 9037TIP3    H160646   8.226   5.292   0.674
 9037TIP3    H260647   8.125   5.200   0.615
 9038TIP3   OH260648   7.812   4.686   0.130
 9038TIP3    H160649   7.863   4.752   0.180
 9038TIP3    H260650   7.721   4.700   0.162
 9039TIP3   OH260651   8.335   4.977   0.605
 9039TIP3    H160652   8.289   5.059   0.632
 9039TIP3    H260653   8.295   4.910   0.662
 9040TIP3   OH260654   8.408   5.392   1.297
 9040TIP3    H160655   8.468   5.461   1.265
 9040TIP3    H260656   8.466   5.346   1.361
 9041TIP3   OH260657   8.238   5.460   0.581
 9041TIP3    H160658   8.141   5.467   0.595
 9041TIP3    H260659   8.264   5.547   0.618
 9042TIP3   OH260660   8.708   4.977   1.216
 9042TIP3    H160661   8.688   4.963   1.312
 9042TIP3    H260662   8.742   4.889   1.190
 9043TIP3   OH260663   8.985   5.129   0.184
 9043TIP3    H160664   9.009   5.068   0.256
 9043TIP3    H260665   8.901   5.087   0.159
 9044TIP3   OH260666   9.051   5.406   1.455
 9044TIP3    H160667   8.957   5.381   1.447
 9044TIP3    H260668   9.061   5.480   1.392
 9045TIP3   OH260669   7.873   4.164   1.397
 9045TIP3    H160670   7.817   4.215   1.457
 9045TIP3    H260671   7.867   4.076   1.439
 9046TIP3   OH260672   9.061   4.923   0.367
 9046TIP3    H160673   9.033   4.841   0.412
 9046TIP3    H260674   9.158   4.912   0.360
 9047TIP3   OH260675   7.828   5.349   1.265
 9047TIP3    H160676   7.890   5.276   1.259
 9047TIP3    H260677   7.857   5.390   1.348
 9048TIP3   OH260678   8.267   5.152   0.245
 9048TIP3    H160679   8.334   5.112   0.303
 9048TIP3    H260680   8.276   5.248   0.264
 9049TIP3   OH260681   7.925   4.885   0.279
 9049TIP3    H160682   7.861   4.928   0.339
 9049TIP3    H260683   7.977   4.959   0.243
 9050TIP3   OH260684   8.734   4.149   1.353
 9050TIP3    H160685   8.829   4.170   1.368
 9050TIP3    H260686   8.728   4.053   1.366
 9051TIP3   OH260687   8.781   4.122   0.472
 9051TIP3    H160688   8.818   4.166   0.393
 9051TIP3    H260689   8.820   4.175   0.544
 9052TIP3   OH260690   8.562   5.289   0.346
 9052TIP3    H160691   8.491   5.355   0.349
 9052TIP3    H260692   8.617   5.323   0.274
 9053TIP3   OH260693   8.521   4.290   0.508
 9053TIP3    H160694   8.587   4.363   0.512
 9053TIP3    H260695   8.504   4.269   0.602
 9054TIP3   OH260696   8.613   4.411   1.393
 9054TIP3    H160697   8.617   4.451   1.482
 9054TIP3    H260698   8.661   4.326   1.403
 9055TIP3   OH260699   8.579   3.967   0.566
 9055TIP3    H160700   8.533   4.023   0.631
 9055TIP3    H260701   8.653   4.028   0.539
 9056TIP3   OH260702   8.282   5.417   0.306
 9056TIP3    H160703   8.317   5.500   0.269
 9056TIP3    H260704   8.260   5.447   0.397
 9057TIP3   OH260705   8.143   4.095   0.287
 9057TIP3    H160706   8.154   4.178   0.338
 9057TIP3    H260707   8.224   4.049   0.314
 9058TIP3   OH260708   9.202   4.152   1.495
 9058TIP3    H160709   9.110   4.182   1.482
 9058TIP3    H260710   9.242   4.179   1.412
 9059TIP3   OH260711   9.057   4.564   0.875
 9059TIP3    H160712   8.969   4.524   0.885
 9059TIP3    H260713   9.109   4.511   0.940
 9060TIP3   OH260714   7.989   5.147   0.145
 9060TIP3    H160715   8.066   5.175   0.198
 9060TIP3    H260716   8.033   5.086   0.084
 9061TIP3   OH260717   7.828   4.417   0.084
 9061TIP3    H160718   7.839   4.514   0.099
 9061TIP3    H260719   7.753   4.417   0.022
 9062TIP3   OH260720   9.196   5.460   1.069
 9062TIP3    H160721   9.174   5.520   0.994
 9062TIP3    H260722   9.290   5.476   1.079
 9063TIP3   OH260723   7.906   3.886   0.975
 9063TIP3    H160724   7.900   3.873   0.878
 9063TIP3    H260725   7.875   3.799   1.007
 9064TIP3   OH260726   7.748   5.256   0.533
 9064TIP3    H160727   7.681   5.307   0.581
 9064TIP3    H260728   7.772   5.323   0.464
 9065TIP3   OH260729   7.709   5.546   1.683
 9065TIP3    H160730   7.786   5.532   1.743
 9065TIP3    H260731   7.670   5.457   1.685
 9066TIP3   OH260732   8.127   5.467   1.796
 9066TIP3    H160733   8.215   5.447   1.833
 9066TIP3    H260734   8.125   5.415   1.713
 9067TIP3   OH260735   8.674   5.393   0.095
 9067TIP3    H160736   8.617   5.339   0.036
 9067TIP3    H260737   8.735   5.433   0.030
 9068TIP3   OH260738   8.813   5.275   1.732
 9068TIP3    H160739   8.783   5.200   1.788
 9068TIP3    H260740   8.902   5.291   1.770
 9069TIP3   OH260741   9.064   5.378   0.029
 9069TIP3    H160742   9.061   5.296   0.083
 9069TIP3    H260743   9.159   5.398   0.026
 9070TIP3   OH260744   7.691   4.921   1.786
 9070TIP3    H160745   7.646   4.834   1.787
 9070TIP3    H260746   7.646   4.960   1.708
 9071TIP3   OH260747   8.181   4.948   0.025
 9071TIP3    H160748   8.248   4.930   0.093
 9071TIP3    H260749   8.212   4.890  -0.047
 9072TIP3   OH260750   8.368   4.925   1.707
 9072TIP3    H160751   8.346   4.981   1.630
 9072TIP3    H260752   8.364   4.832   1.672
 9073TIP3   OH260753   8.923   4.895   1.484
 9073TIP3    H160754   9.008   4.943   1.498
 9073TIP3    H260755   8.863   4.973   1.483
 9074TIP3   OH260756   7.794   4.630   1.768
 9074TIP3    H160757   7.886   4.601   1.767
 9074TIP3    H260758   7.790   4.674   1.855
 9075TIP3   OH260759   8.274   4.770   0.249
 9075TIP3    H160760   8.201   4.718   0.289
 9075TIP3    H260761   8.313   4.705   0.188
 9076TIP3   OH260762   8.205   4.532   1.454
 9076TIP3    H160763   8.122   4.584   1.458
 9076TIP3    H260764   8.255   4.582   1.387
 9077TIP3   OH260765   8.386   4.584   0.036
 9077TIP3    H160766   8.417   4.579  -0.056
 9077TIP3    H260767   8.474   4.585   0.085
 9078TIP3   OH260768   8.734   4.808   1.818
 9078TIP3    H160769   8.823   4.804   1.856
 9078TIP3    H260770   8.692   4.729   1.857
 9079TIP3   OH260771   9.299   4.769   8.480
 9079TIP3    H160772   9.298   4.778   8.383
 9079TIP3    H260773   9.360   4.839   8.507
 9080TIP3   OH260774   8.232   4.288   1.556
 9080TIP3    H160775   8.250   4.215   1.492
 9080TIP3    H260776   8.236   4.369   1.499
 9081TIP3   OH260777   8.285   4.100   1.342
 9081TIP3    H160778   8.343   4.153   1.283
 9081TIP3    H260779   8.200   4.112   1.295
 9082TIP3   OH260780   8.386   4.693   1.333
 9082TIP3    H160781   8.473   4.734   1.335
 9082TIP3    H260782   8.333   4.761   1.286
 9083TIP3   OH260783   8.844   4.418   1.899
 9083TIP3    H160784   8.844   4.338   1.846
 9083TIP3    H260785   8.933   4.454   1.884
 9084TIP3   OH260786   8.982   4.687   1.654
 9084TIP3    H160787   8.949   4.764   1.603
 9084TIP3    H260788   9.079   4.698   1.647
 9085TIP3   OH260789   8.095   4.379   1.792
 9085TIP3    H160790   8.005   4.346   1.775
 9085TIP3    H260791   8.140   4.353   1.709
 9086TIP3   OH260792   8.386   3.854   1.333
 9086TIP3    H160793   8.352   3.945   1.340
 9086TIP3    H260794   8.304   3.807   1.312
 9087TIP3   OH260795   8.456   4.285   1.721
 9087TIP3    H160796   8.428   4.248   1.807
 9087TIP3    H260797   8.374   4.278   1.667
 9088TIP3   OH260798   8.775   4.209   1.671
 9088TIP3    H160799   8.679   4.215   1.664
 9088TIP3    H260800   8.783   4.134   1.731
 9089TIP3   OH260801   8.940   4.064   1.851
 9089TIP3    H160802   8.915   3.969   1.846
 9089TIP3    H260803   8.877   4.100   1.915
 9090TIP3   OH260804   7.866   4.186   1.740
 9090TIP3    H160805   7.864   4.097   1.699
 9090TIP3    H260806   7.831   4.171   1.828
 9091TIP3   OH260807   8.350   3.815   1.621
 9091TIP3    H160808   8.431   3.762   1.632
 9091TIP3    H260809   8.357   3.838   1.527
 9092TIP3   OH260810   8.360   3.918   1.898
 9092TIP3    H160811   8.363   3.896   1.803
 9092TIP3    H260812   8.303   3.998   1.896
 9093TIP3   OH260813   8.359   5.663   0.189
 9093TIP3    H160814   8.447   5.704   0.201
 9093TIP3    H260815   8.364   5.639   0.095
 9094TIP3   OH260816   7.711   5.096   0.125
 9094TIP3    H160817   7.808   5.111   0.130
 9094TIP3    H260818   7.704   5.066   0.033
 9095TIP3   OH260819   7.602   5.614   0.610
 9095TIP3    H160820   7.526   5.562   0.574
 9095TIP3    H260821   7.633   5.555   0.682
 9096TIP3   OH260822   7.686   5.444   0.808
 9096TIP3    H160823   7.633   5.371   0.845
 9096TIP3    H260824   7.741   5.470   0.885
 9097TIP3   OH260825   9.373   5.480   1.390
 9097TIP3    H160826   9.316   5.415   1.343
 9097TIP3    H260827   9.400   5.423   1.463
 9098TIP3   OH260828   9.255   5.042   1.881
 9098TIP3    H160829   9.161   5.049   1.906
 9098TIP3    H260830   9.281   5.135   1.876
 9099TIP3   OH260831   9.326   4.870   0.360
 9099TIP3    H160832   9.393   4.936   0.391
 9099TIP3    H260833   9.306   4.821   0.440
 9100TIP3   OH260834   0.022   4.999   1.101
 9100TIP3    H160835   0.081   4.930   1.062
 9100TIP3    H260836   0.040   5.076   1.043
 9101TIP3   OH260837   9.236   5.246   1.310
 9101TIP3    H160838   9.152   5.280   1.346
 9101TIP3    H260839   9.216   5.230   1.216
 9102TIP3   OH260840   9.351   4.390   0.059
 9102TIP3    H160841   9.310   4.451  -0.005
 9102TIP3    H260842   9.306   4.307   0.035
 9103TIP3   OH260843   9.172   4.544   0.635
 9103TIP3    H160844   9.170   4.452   0.600
 9103TIP3    H260845   9.140   4.536   0.728
 9104TIP3   OH260846   7.671   4.786   1.065
 9104TIP3    H160847   7.677   4.754   0.972
 9104TIP3    H260848   7.759   4.755   1.097
 9105TIP3   OH260849   9.258   4.733   1.626
 9105TIP3    H160850   9.293   4.641   1.628
 9105TIP3    H260851   9.323   4.782   1.573
 9106TIP3   OH260852   9.178   4.176  -0.014
 9106TIP3    H160853   9.235   4.103   0.016
 9106TIP3    H260854   9.089   4.145   0.007
 9107TIP3   OH260855   9.136   4.317   0.492
 9107TIP3    H160856   9.152   4.223   0.516
 9107TIP3    H260857   9.179   4.317   0.405
 9108TIP3   OH260858   9.187   4.375   1.036
 9108TIP3    H160859   9.285   4.373   1.022
 9108TIP3    H260860   9.190   4.382   1.134
 9109TIP3   OH260861   9.230   4.437   1.301
 9109TIP3    H160862   9.147   4.477   1.331
 9109TIP3    H260863   9.284   4.514   1.272
 9110TIP3   OH260864   7.615   4.268   1.637
 9110TIP3    H160865   7.699   4.274   1.685
 9110TIP3    H260866   7.576   4.187   1.677
 9111TIP3   OH260867   9.170   4.053   0.515
 9111TIP3    H160868   9.206   4.024   0.602
 9111TIP3    H260869   9.124   3.972   0.485
 9112TIP3   OH260870   7.766   4.119   0.998
 9112TIP3    H160871   7.808   4.030   1.000
 9112TIP3    H260872   7.843   4.178   1.001
 9113TIP3   OH260873   7.610   4.417   1.074
 9113TIP3    H160874   7.657   4.400   0.990
 9113TIP3    H260875   7.655   4.498   1.102
 9114TIP3   OH260876   7.623   4.037   0.460
 9114TIP3    H160877   7.527   4.032   0.469
 9114TIP3    H260878   7.633   4.087   0.377
 9115TIP3   OH260879   9.100   5.544   0.652
 9115TIP3    H160880   9.169   5.513   0.590
 9115TIP3    H260881   9.150   5.577   0.729
 9116TIP3   OH260882   7.621   3.901   1.287
 9116TIP3    H160883   7.570   3.871   1.364
 9116TIP3    H260884   7.565   3.970   1.250
 9117TIP3   OH260885   7.845   5.221   1.691
 9117TIP3    H160886   7.764   5.262   1.657
 9117TIP3    H260887   7.814   5.180   1.772
 9118TIP3   OH260888   8.141   5.390   1.368
 9118TIP3    H160889   8.147   5.477   1.323
 9118TIP3    H260890   8.233   5.360   1.355
 9119TIP3   OH260891   8.563   5.522   1.598
 9119TIP3    H160892   8.569   5.508   1.695
 9119TIP3    H260893   8.659   5.533   1.579
 9120TIP3   OH260894   8.819   5.620   1.571
 9120TIP3    H160895   8.883   5.622   1.499
 9120TIP3    H260896   8.860   5.670   1.643
 9121TIP3   OH260897   9.261   3.854   1.491
 9121TIP3    H160898   9.198   3.911   1.446
 9121TIP3    H260899   9.277   3.781   1.428
 9122TIP3   OH260900   7.879   5.676   1.316
 9122TIP3    H160901   7.807   5.734   1.284
 9122TIP3    H260902   7.866   5.679   1.412
 9123TIP3   OH260903   8.125   5.619   1.239
 9123TIP3    H160904   8.034   5.635   1.274
 9123TIP3    H260905   8.119   5.672   1.158
 9124TIP3   OH260906   8.611   5.589   1.156
 9124TIP3    H160907   8.545   5.632   1.099
 9124TIP3    H260908   8.625   5.660   1.223
 9125TIP3   OH260909   8.782   5.448   1.300
 9125TIP3    H160910   8.722   5.487   1.233
 9125TIP3    H260911   8.862   5.497   1.275
 9126TIP3   OH260912   9.094   5.604   1.271
 9126TIP3    H160913   9.108   5.699   1.250
 9126TIP3    H260914   9.134   5.563   1.191
 9127TIP3   OH260915   7.847   5.512   1.032
 9127TIP3    H160916   7.835   5.460   1.114
 9127TIP3    H260917   7.933   5.479   0.999
 9128TIP3   OH260918   8.063   5.396   0.905
 9128TIP3    H160919   8.056   5.302   0.928
 9128TIP3    H260920   8.152   5.415   0.942
 9129TIP3   OH260921   8.295   5.396   1.032
 9129TIP3    H160922   8.321   5.304   1.011
 9129TIP3    H260923   8.309   5.396   1.128
 9130TIP3   OH260924   8.624   3.994   0.924
 9130TIP3    H160925   8.543   3.949   0.955
 9130TIP3    H260926   8.662   3.927   0.867
 9131TIP3   OH260927   9.141   3.786   0.898
 9131TIP3    H160928   9.197   3.851   0.849
 9131TIP3    H260929   9.052   3.825   0.882
 9132TIP3   OH260930   9.288   3.931   0.729
 9132TIP3    H160931   9.345   3.879   0.668
 9132TIP3    H260932   9.352   4.002   0.755
 9133TIP3   OH260933   7.882   3.842   0.695
 9133TIP3    H160934   7.796   3.827   0.653
 9133TIP3    H260935   7.927   3.756   0.678
 9134TIP3   OH260936   7.738   3.840   0.250
 9134TIP3    H160937   7.801   3.897   0.201
 9134TIP3    H260938   7.707   3.899   0.322
 9135TIP3   OH260939   8.304   3.819   0.676
 9135TIP3    H160940   8.394   3.832   0.641
 9135TIP3    H260941   8.305   3.868   0.758
 9136TIP3   OH260942   8.895   3.875   0.817
 9136TIP3    H160943   8.889   3.877   0.721
 9136TIP3    H260944   8.844   3.794   0.841
 9137TIP3   OH260945   9.007   3.840   0.382
 9137TIP3    H160946   8.942   3.909   0.397
 9137TIP3    H260947   8.963   3.759   0.419
 9138TIP3   OH260948   7.745   5.453   0.348
 9138TIP3    H160949   7.655   5.448   0.309
 9138TIP3    H260950   7.760   5.548   0.327
 9139TIP3   OH260951   7.922   3.974   0.112
 9139TIP3    H160952   8.009   3.933   0.109
 9139TIP3    H260953   7.943   4.060   0.153
 9140TIP3   OH260954   8.440   4.084   0.361
 9140TIP3    H160955   8.478   4.024   0.427
 9140TIP3    H260956   8.467   4.170   0.402
 9141TIP3   OH260957   8.639   5.647   0.175
 9141TIP3    H160958   8.724   5.661   0.129
 9141TIP3    H260959   8.638   5.549   0.166
 9142TIP3   OH260960   9.283   5.458   0.476
 9142TIP3    H160961   9.268   5.373   0.428
 9142TIP3    H260962   9.276   5.523   0.402
 9143TIP3   OH260963   7.831   3.920   1.614
 9143TIP3    H160964   7.787   3.834   1.630
 9143TIP3    H260965   7.909   3.909   1.674
 9144TIP3   OH260966   8.019   3.865   1.806
 9144TIP3    H160967   8.105   3.850   1.763
 9144TIP3    H260968   8.002   3.778   1.845
 9145TIP3   OH260969   7.955   5.560   0.060
 9145TIP3    H160970   7.885   5.576   0.125
 9145TIP3    H260971   7.991   5.474   0.089
 9146TIP3   OH260972   8.917   3.781   1.832
 9146TIP3    H160973   8.945   3.744   1.918
 9146TIP3    H260974   8.998   3.757   1.779
 9147TIP3   OH260975   9.233   5.380   1.651
 9147TIP3    H160976   9.180   5.362   1.571
 9147TIP3    H260977   9.201   5.470   1.673
 9148TIP3   OH260978   1.261   6.675   0.663
 9148TIP3    H160979   1.246   6.772   0.668
 9148TIP3    H260980   1.177   6.645   0.625
 9149TIP3   OH260981   1.145   6.550   1.003
 9149TIP3    H160982   1.148   6.506   1.091
 9149TIP3    H260983   1.056   6.531   0.970
 9150TIP3   OH260984   0.402   6.573   1.161
 9150TIP3    H160985   0.382   6.495   1.215
 9150TIP3    H260986   0.449   6.627   1.227
 9151TIP3   OH260987   1.458   6.881   0.856
 9151TIP3    H160988   1.438   6.806   0.914
 9151TIP3    H260989   1.480   6.948   0.924
 9152TIP3   OH260990   0.410   6.999   0.971
 9152TIP3    H160991   0.408   6.907   0.935
 9152TIP3    H260992   0.501   6.997   1.004
 9153TIP3   OH260993   0.149   6.334   0.543
 9153TIP3    H160994   0.131   6.428   0.537
 9153TIP3    H260995   0.069   6.300   0.586
 9154TIP3   OH260996   0.175   6.559   0.812
 9154TIP3    H160997   0.230   6.480   0.822
 9154TIP3    H260998   0.228   6.616   0.755
 9155TIP3   OH260999   1.211   7.424   0.854
 9155TIP3    H161000   1.271   7.370   0.798
 9155TIP3    H261001   1.178   7.353   0.912
 9156TIP3   OH261002   0.953   6.808   1.107
 9156TIP3    H161003   0.991   6.793   1.020
 9156TIP3    H261004   1.032   6.835   1.157
 9157TIP3   OH261005   1.822   5.980   1.106
 9157TIP3    H161006   1.833   6.028   1.191
 9157TIP3    H261007   1.903   6.009   1.060
 9158TIP3   OH261008   1.317   6.275   1.108
 9158TIP3    H161009   1.330   6.182   1.130
 9158TIP3    H261010   1.320   6.268   1.010
 9159TIP3   OH261011   0.605   6.061   0.812
 9159TIP3    H161012   0.624   6.139   0.755
 9159TIP3    H261013   0.575   5.998   0.743
 9160TIP3   OH261014   1.358   6.083   0.645
 9160TIP3    H161015   1.407   6.056   0.726
 9160TIP3    H261016   1.409   6.160   0.619
 9161TIP3   OH261017   0.297   6.317   0.877
 9161TIP3    H161018   0.360   6.271   0.936
 9161TIP3    H261019   0.314   6.269   0.792
 9162TIP3   OH261020   0.752   6.484   0.809
 9162TIP3    H161021   0.837   6.441   0.833
 9162TIP3    H261022   0.712   6.411   0.757
 9163TIP3   OH261023   1.839   6.117   1.343
 9163TIP3    H161024   1.815   6.199   1.294
 9163TIP3    H261025   1.845   6.152   1.433
 9164TIP3   OH261026   0.520   5.985   1.211
 9164TIP3    H161027   0.483   6.035   1.136
 9164TIP3    H261028   0.464   6.019   1.283
 9165TIP3   OH261029   1.184   6.911   0.557
 9165TIP3    H161030   1.170   6.917   0.461
 9165TIP3    H261031   1.149   6.997   0.590
 9166TIP3   OH261032   0.705   6.739   1.193
 9166TIP3    H161033   0.662   6.823   1.224
 9166TIP3    H261034   0.790   6.776   1.161
 9167TIP3   OH261035   1.528   6.036   0.846
 9167TIP3    H161036   1.531   5.964   0.910
 9167TIP3    H261037   1.615   6.075   0.858
 9168TIP3   OH261038   0.464   6.163   1.018
 9168TIP3    H161039   0.528   6.224   1.063
 9168TIP3    H261040   0.517   6.126   0.944
 9169TIP3   OH261041   0.597   6.968   1.291
 9169TIP3    H161042   0.584   7.064   1.280
 9169TIP3    H261043   0.515   6.942   1.340
 9170TIP3   OH261044   0.187   6.919   0.409
 9170TIP3    H161045   0.186   6.971   0.326
 9170TIP3    H261046   0.214   6.984   0.478
 9171TIP3   OH261047   1.543   7.081   1.056
 9171TIP3    H161048   1.452   7.109   1.078
 9171TIP3    H261049   1.578   7.165   1.021
 9172TIP3   OH261050   1.549   5.912   1.189
 9172TIP3    H161051   1.468   5.931   1.138
 9172TIP3    H261052   1.618   5.933   1.124
 9173TIP3   OH261053   0.847   5.717   0.946
 9173TIP3    H161054   0.818   5.624   0.943
 9173TIP3    H261055   0.763   5.759   0.978
 9174TIP3   OH261056   1.367   7.260   0.720
 9174TIP3    H161057   1.402   7.179   0.676
 9174TIP3    H261058   1.436   7.326   0.696
 9175TIP3   OH261059   1.479   7.038   0.578
 9175TIP3    H161060   1.463   6.968   0.512
 9175TIP3    H261061   1.468   6.988   0.661
 9176TIP3   OH261062   1.639   6.896   1.460
 9176TIP3    H161063   1.644   6.822   1.396
 9176TIP3    H261064   1.655   6.972   1.401
 9177TIP3   OH261065   1.094   6.583   0.406
 9177TIP3    H161066   1.034   6.661   0.396
 9177TIP3    H261067   1.179   6.618   0.373
 9178TIP3   OH261068   1.095   6.495   0.134
 9178TIP3    H161069   1.145   6.516   0.215
 9178TIP3    H261070   1.139   6.413   0.106
 9179TIP3   OH261071   1.867   6.560   1.246
 9179TIP3    H161072   1.796   6.625   1.234
 9179TIP3    H261073   1.931   6.595   1.180
 9180TIP3   OH261074   1.499   6.629   0.533
 9180TIP3    H161075   1.417   6.645   0.586
 9180TIP3    H261076   1.547   6.564   0.589
 9181TIP3   OH261077   1.454   6.443   1.449
 9181TIP3    H161078   1.452   6.538   1.463
 9181TIP3    H261079   1.383   6.435   1.383
 9182TIP3   OH261080   0.622   6.672   0.690
 9182TIP3    H161081   0.572   6.621   0.623
 9182TIP3    H261082   0.683   6.604   0.727
 9183TIP3   OH261083   0.761   7.008   0.958
 9183TIP3    H161084   0.767   6.987   0.864
 9183TIP3    H261085   0.820   6.945   1.002
 9184TIP3   OH261086   0.658   6.515   1.054
 9184TIP3    H161087   0.691   6.530   0.963
 9184TIP3    H261088   0.683   6.598   1.100
 9185TIP3   OH261089   1.289   7.124   1.141
 9185TIP3    H161090   1.250   7.193   1.198
 9185TIP3    H261091   1.259   7.042   1.184
 9186TIP3   OH261092   0.722   6.994   1.533
 9186TIP3    H161093   0.657   7.054   1.577
 9186TIP3    H261094   0.684   6.988   1.443
 9187TIP3   OH261095   1.338   6.570   0.303
 9187TIP3    H161096   1.399   6.595   0.376
 9187TIP3    H261097   1.386   6.604   0.224
 9188TIP3   OH261098   0.443   6.616   1.428
 9188TIP3    H161099   0.462   6.666   1.509
 9188TIP3    H261100   0.348   6.596   1.441
 9189TIP3   OH261101   1.105   7.148   0.647
 9189TIP3    H161102   1.127   7.210   0.716
 9189TIP3    H261103   1.057   7.202   0.583
 9190TIP3   OH261104   0.550   7.187   1.610
 9190TIP3    H161105   0.539   7.210   1.516
 9190TIP3    H261106   0.460   7.158   1.637
 9191TIP3   OH261107   1.744   5.692   0.324
 9191TIP3    H161108   1.646   5.701   0.327
 9191TIP3    H261109   1.767   5.772   0.273
 9192TIP3   OH261110   0.465   6.559   0.494
 9192TIP3    H161111   0.451   6.635   0.433
 9192TIP3    H261112   0.434   6.485   0.440
 9193TIP3   OH261113   1.813   7.133   0.090
 9193TIP3    H161114   1.843   7.226   0.100
 9193TIP3    H261115   1.899   7.087   0.098
 9194TIP3   OH261116   0.145   6.810   1.377
 9194TIP3    H161117   0.093   6.824   1.296
 9194TIP3    H261118   0.164   6.715   1.373
 9195TIP3   OH261119   0.150   7.102   0.985
 9195TIP3    H161120   0.231   7.051   0.963
 9195TIP3    H261121   0.182   7.153   1.061
 9196TIP3   OH261122   1.904   7.164   1.597
 9196TIP3    H161123   1.888   7.072   1.575
 9196TIP3    H261124   1.818   7.189   1.637
 9197TIP3   OH261125   0.978   7.104   1.510
 9197TIP3    H161126   1.006   7.172   1.574
 9197TIP3    H261127   0.888   7.079   1.539
 9198TIP3   OH261128   1.067   7.485   0.432
 9198TIP3    H161129   1.072   7.505   0.336
 9198TIP3    H261130   1.063   7.576   0.470
 9199TIP3   OH261131   0.432   7.360   0.639
 9199TIP3    H161132   0.438   7.312   0.725
 9199TIP3    H261133   0.341   7.340   0.610
 9200TIP3   OH261134   1.371   7.426   0.153
 9200TIP3    H161135   1.422   7.347   0.126
 9200TIP3    H261136   1.367   7.414   0.250
 9201TIP3   OH261137   1.338   7.407   0.421
 9201TIP3    H161138   1.240   7.420   0.427
 9201TIP3    H261139   1.350   7.333   0.483
 9202TIP3   OH261140   1.617   6.301   1.644
 9202TIP3    H161141   1.564   6.336   1.569
 9202TIP3    H261142   1.621   6.206   1.621
 9203TIP3   OH261143   0.372   6.952   1.447
 9203TIP3    H161144   0.393   6.897   1.526
 9203TIP3    H261145   0.282   6.918   1.425
 9204TIP3   OH261146   0.624   5.816   1.040
 9204TIP3    H161147   0.537   5.819   0.995
 9204TIP3    H261148   0.603   5.865   1.121
 9205TIP3   OH261149   1.093   5.757   1.364
 9205TIP3    H161150   1.135   5.721   1.445
 9205TIP3    H261151   0.998   5.758   1.389
 9206TIP3   OH261152   1.383   6.169   1.495
 9206TIP3    H161153   1.319   6.134   1.561
 9206TIP3    H261154   1.388   6.262   1.521
 9207TIP3   OH261155   1.466   6.662   0.090
 9207TIP3    H161156   1.480   6.669  -0.005
 9207TIP3    H261157   1.539   6.718   0.122
 9208TIP3   OH261158   1.061   6.065   0.110
 9208TIP3    H161159   1.028   6.052   0.200
 9208TIP3    H261160   1.039   5.980   0.070
 9209TIP3   OH261161   0.636   6.286   1.169
 9209TIP3    H161162   0.596   6.320   1.250
 9209TIP3    H261163   0.639   6.372   1.119
 9210TIP3   OH261164   0.632   6.279   0.658
 9210TIP3    H161165   0.536   6.285   0.639
 9210TIP3    H261166   0.667   6.252   0.570
 9211TIP3   OH261167   1.184   6.371   0.533
 9211TIP3    H161168   1.147   6.452   0.489
 9211TIP3    H261169   1.239   6.336   0.460
 9212TIP3   OH261170   1.004   6.405   1.691
 9212TIP3    H161171   0.984   6.314   1.722
 9212TIP3    H261172   1.098   6.411   1.713
 9213TIP3   OH261173   1.297   6.320   0.830
 9213TIP3    H161174   1.274   6.406   0.791
 9213TIP3    H261175   1.266   6.260   0.761
 9214TIP3   OH261176   0.344   6.307   1.298
 9214TIP3    H161177   0.416   6.334   1.356
 9214TIP3    H261178   0.332   6.213   1.323
 9215TIP3   OH261179   0.724   6.087   0.065
 9215TIP3    H161180   0.680   6.048   0.142
 9215TIP3    H261181   0.696   6.180   0.062
 9216TIP3   OH261182   0.116   6.008   0.756
 9216TIP3    H161183   0.194   6.022   0.812
 9216TIP3    H261184   0.146   6.029   0.667
 9217TIP3   OH261185   0.152   6.109   0.254
 9217TIP3    H161186   0.220   6.113   0.185
 9217TIP3    H261187   0.114   6.198   0.246
 9218TIP3   OH261188   1.201   6.466   1.263
 9218TIP3    H161189   1.249   6.394   1.217
 9218TIP3    H261190   1.140   6.413   1.321
 9219TIP3   OH261191   0.918   6.049   0.766
 9219TIP3    H161192   0.830   6.059   0.805
 9219TIP3    H261193   0.972   6.014   0.840
 9220TIP3   OH261194   0.358   6.179   0.649
 9220TIP3    H161195   0.299   6.212   0.578
 9220TIP3    H261196   0.400   6.099   0.609
 9221TIP3   OH261197   0.687   6.234   0.392
 9221TIP3    H161198   0.782   6.252   0.406
 9221TIP3    H261199   0.663   6.290   0.315
 9222TIP3   OH261200   1.324   5.982   1.068
 9222TIP3    H161201   1.252   5.985   1.135
 9222TIP3    H261202   1.285   5.929   0.998
 9223TIP3   OH261203   0.605   6.345   0.145
 9223TIP3    H161204   0.547   6.337   0.067
 9223TIP3    H261205   0.689   6.382   0.108
 9224TIP3   OH261206   1.621   7.547   1.737
 9224TIP3    H161207   1.658   7.616   1.678
 9224TIP3    H261208   1.679   7.555   1.815
 9225TIP3   OH261209   0.411   6.797   1.675
 9225TIP3    H161210   0.469   6.835   1.745
 9225TIP3    H261211   0.326   6.790   1.722
 9226TIP3   OH261212   0.955   6.332   0.899
 9226TIP3    H161213   1.050   6.311   0.897
 9226TIP3    H261214   0.921   6.272   0.967
 9227TIP3   OH261215   0.487   5.938   0.594
 9227TIP3    H161216   0.430   5.868   0.635
 9227TIP3    H261217   0.528   5.891   0.521
 9228TIP3   OH261218   0.864   6.155   1.180
 9228TIP3    H161219   0.781   6.208   1.170
 9228TIP3    H261220   0.922   6.213   1.232
 9229TIP3   OH261221   0.931   6.794   0.383
 9229TIP3    H161222   0.855   6.759   0.331
 9229TIP3    H261223   0.886   6.821   0.467
 9230TIP3   OH261224   1.662   6.745   1.243
 9230TIP3    H161225   1.710   6.808   1.183
 9230TIP3    H261226   1.580   6.731   1.192
 9231TIP3   OH261227   1.320   6.085   0.162
 9231TIP3    H161228   1.235   6.098   0.116
 9231TIP3    H261229   1.329   6.171   0.207
 9232TIP3   OH261230   1.023   6.839   1.455
 9232TIP3    H161231   1.039   6.810   1.545
 9232TIP3    H261232   0.996   6.932   1.468
 9233TIP3   OH261233   1.362   6.297   0.335
 9233TIP3    H161234   1.425   6.270   0.404
 9233TIP3    H261235   1.404   6.379   0.301
 9234TIP3   OH261236   0.458   6.745   0.899
 9234TIP3    H161237   0.500   6.726   0.813
 9234TIP3    H261238   0.477   6.665   0.952
 9235TIP3   OH261239   1.138   6.933   0.272
 9235TIP3    H161240   1.095   7.018   0.296
 9235TIP3    H261241   1.069   6.869   0.302
 9236TIP3   OH261242   0.177   6.544   1.442
 9236TIP3    H161243   0.169   6.491   1.524
 9236TIP3    H261244   0.115   6.501   1.382
 9237TIP3   OH261245   0.779   6.552   1.635
 9237TIP3    H161246   0.784   6.508   1.549
 9237TIP3    H261247   0.855   6.511   1.681
 9238TIP3   OH261248   1.327   7.063   1.503
 9238TIP3    H161249   1.245   7.093   1.462
 9238TIP3    H261250   1.320   7.111   1.589
 9239TIP3   OH261251   1.864   6.281   0.322
 9239TIP3    H161252   1.798   6.276   0.250
 9239TIP3    H261253   1.882   6.377   0.319
 9240TIP3   OH261254   1.887   6.859   1.574
 9240TIP3    H161255   1.798   6.874   1.534
 9240TIP3    H261256   1.943   6.857   1.494
 9241TIP3   OH261257   1.697   7.158   0.331
 9241TIP3    H161258   1.667   7.075   0.368
 9241TIP3    H261259   1.729   7.137   0.241
 9242TIP3   OH261260   1.422   6.659   1.044
 9242TIP3    H161261   1.330   6.627   1.033
 9242TIP3    H261262   1.469   6.588   0.996
 9243TIP3   OH261263   0.670   7.088   0.676
 9243TIP3    H161264   0.689   7.179   0.643
 9243TIP3    H261265   0.576   7.082   0.655
 9244TIP3   OH261266   0.247   6.574   0.213
 9244TIP3    H161267   0.330   6.620   0.194
 9244TIP3    H261268   0.178   6.628   0.171
 9245TIP3   OH261269   0.806   6.859   0.616
 9245TIP3    H161270   0.762   6.944   0.636
 9245TIP3    H261271   0.748   6.793   0.661
 9246TIP3   OH261272   0.866   7.266   1.305
 9246TIP3    H161273   0.929   7.331   1.270
 9246TIP3    H261274   0.916   7.228   1.381
 9247TIP3   OH261275   0.699   7.342   0.573
 9247TIP3    H161276   0.603   7.353   0.586
 9247TIP3    H261277   0.729   7.426   0.616
 9248TIP3   OH261278   1.186   6.868   1.226
 9248TIP3    H161279   1.146   6.841   1.312
 9248TIP3    H261280   1.243   6.792   1.204
 9249TIP3   OH261281   1.452   6.995   0.173
 9249TIP3    H161282   1.483   6.941   0.250
 9249TIP3    H261283   1.358   6.967   0.172
 9250TIP3   OH261284   1.509   7.315   1.477
 9250TIP3    H161285   1.421   7.279   1.456
 9250TIP3    H261286   1.520   7.380   1.404
 9251TIP3   OH261287   1.889   7.405   0.169
 9251TIP3    H161288   1.936   7.476   0.120
 9251TIP3    H261289   1.817   7.458   0.209
 9252TIP3   OH261290   0.321   6.057   1.419
 9252TIP3    H161291   0.271   6.080   1.499
 9252TIP3    H261292   0.285   5.968   1.402
 9253TIP3   OH261293   1.532   6.831   0.369
 9253TIP3    H161294   1.519   6.750   0.423
 9253TIP3    H261295   1.628   6.846   0.384
 9254TIP3   OH261296   0.274   7.229   1.217
 9254TIP3    H161297   0.339   7.163   1.244
 9254TIP3    H261298   0.256   7.275   1.301
 9255TIP3   OH261299   0.733   7.029   0.232
 9255TIP3    H161300   0.812   6.986   0.266
 9255TIP3    H261301   0.749   7.124   0.252
 9256TIP3   OH261302   0.422   6.780   0.301
 9256TIP3    H161303   0.340   6.804   0.349
 9256TIP3    H261304   0.441   6.861   0.251
 9257TIP3   OH261305   1.185   6.031   1.338
 9257TIP3    H161306   1.267   6.047   1.389
 9257TIP3    H261307   1.161   5.940   1.365
 9258TIP3   OH261308   1.235   5.992   0.430
 9258TIP3    H161309   1.288   6.029   0.357
 9258TIP3    H261310   1.290   6.013   0.509
 9259TIP3   OH261311   1.043   7.175   0.334
 9259TIP3    H161312   0.966   7.235   0.332
 9259TIP3    H261313   1.095   7.206   0.257
 9260TIP3   OH261314   0.943   6.191   0.516
 9260TIP3    H161315   1.025   6.244   0.528
 9260TIP3    H261316   0.934   6.144   0.601
 9261TIP3   OH261317   1.068   6.288   1.416
 9261TIP3    H161318   1.050   6.308   1.511
 9261TIP3    H261319   1.100   6.195   1.414
 9262TIP3   OH261320   1.046   5.847   0.557
 9262TIP3    H161321   1.015   5.912   0.622
 9262TIP3    H261322   1.122   5.897   0.516
 9263TIP3   OH261323   0.766   7.288   0.299
 9263TIP3    H161324   0.797   7.372   0.259
 9263TIP3    H261325   0.734   7.324   0.385
 9264TIP3   OH261326   0.621   5.979   0.291
 9264TIP3    H161327   0.608   6.058   0.348
 9264TIP3    H261328   0.714   5.958   0.315
 9265TIP3   OH261329   1.633   6.058   1.520
 9265TIP3    H161330   1.539   6.073   1.495
 9265TIP3    H261331   1.677   6.057   1.433
 9266TIP3   OH261332   1.536   6.433   0.901
 9266TIP3    H161333   1.458   6.374   0.898
 9266TIP3    H261334   1.600   6.381   0.955
 9267TIP3   OH261335   0.472   7.021   0.139
 9267TIP3    H161336   0.545   7.045   0.198
 9267TIP3    H261337   0.522   6.958   0.082
 9268TIP3   OH261338   0.291   6.323   0.046
 9268TIP3    H161339   0.322   6.396   0.101
 9268TIP3    H261340   0.198   6.318   0.073
 9269TIP3   OH261341   1.625   7.350   1.069
 9269TIP3    H161342   1.614   7.423   1.003
 9269TIP3    H261343   1.722   7.343   1.066
 9270TIP3   OH261344   0.368   5.777   0.961
 9270TIP3    H161345   0.360   5.754   0.866
 9270TIP3    H261346   0.333   5.694   1.001
 9271TIP3   OH261347   0.260   7.133   0.562
 9271TIP3    H161348   0.175   7.174   0.574
 9271TIP3    H261349   0.287   7.183   0.481
 9272TIP3   OH261350   0.185   7.410   1.682
 9272TIP3    H161351   0.230   7.392   1.768
 9272TIP3    H261352   0.114   7.345   1.689
 9273TIP3   OH261353   0.647   7.320   1.851
 9273TIP3    H161354   0.742   7.324   1.830
 9273TIP3    H261355   0.612   7.283   1.768
 9274TIP3   OH261356   1.130   7.274   0.083
 9274TIP3    H161357   1.062   7.232   0.025
 9274TIP3    H261358   1.191   7.308   0.015
 9275TIP3   OH261359   1.268   7.158   1.742
 9275TIP3    H161360   1.242   7.072   1.782
 9275TIP3    H261361   1.354   7.171   1.789
 9276TIP3   OH261362   1.551   7.220   0.020
 9276TIP3    H161363   1.505   7.150   0.071
 9276TIP3    H261364   1.643   7.193   0.043
 9277TIP3   OH261365   0.138   6.815   1.754
 9277TIP3    H161366   0.134   6.722   1.780
 9277TIP3    H261367   0.051   6.823   1.712
 9278TIP3   OH261368   0.640   6.833   0.023
 9278TIP3    H161369   0.687   6.803   0.103
 9278TIP3    H261370   0.669   6.768  -0.045
 9279TIP3   OH261371   0.833   6.810   1.696
 9279TIP3    H161372   0.809   6.867   1.619
 9279TIP3    H261373   0.813   6.719   1.662
 9280TIP3   OH261374   1.397   6.793   1.492
 9280TIP3    H161375   1.482   6.844   1.489
 9280TIP3    H261376   1.339   6.872   1.501
 9281TIP3   OH261377   0.251   6.492   1.746
 9281TIP3    H161378   0.293   6.411   1.780
 9281TIP3    H261379   0.282   6.562   1.807
 9282TIP3   OH261380   0.743   6.665   0.234
 9282TIP3    H161381   0.671   6.624   0.283
 9282TIP3    H261382   0.775   6.591   0.179
 9283TIP3   OH261383   0.619   6.412   1.399
 9283TIP3    H161384   0.562   6.484   1.431
 9283TIP3    H261385   0.693   6.463   1.362
 9284TIP3   OH261386   0.837   6.467   0.052
 9284TIP3    H161387   0.864   6.472  -0.041
 9284TIP3    H261388   0.926   6.475   0.096
 9285TIP3   OH261389   1.181   6.688   1.817
 9285TIP3    H161390   1.241   6.645   1.755
 9285TIP3    H261391   1.113   6.621   1.837
 9286TIP3   OH261392   1.731   6.749   8.483
 9286TIP3    H161393   1.676   6.780   8.410
 9286TIP3    H261394   1.772   6.830   8.515
 9287TIP3   OH261395   0.739   6.202   1.550
 9287TIP3    H161396   0.737   6.131   1.483
 9287TIP3    H261397   0.726   6.282   1.496
 9288TIP3   OH261398   0.753   5.992   1.352
 9288TIP3    H161399   0.813   6.045   1.293
 9288TIP3    H261400   0.673   5.991   1.295
 9289TIP3   OH261401   0.858   6.578   1.347
 9289TIP3    H161402   0.943   6.620   1.328
 9289TIP3    H261403   0.799   6.645   1.307
 9290TIP3   OH261404   1.286   6.328   1.852
 9290TIP3    H161405   1.322   6.238   1.861
 9290TIP3    H261406   1.366   6.380   1.840
 9291TIP3   OH261407   1.484   6.625   1.687
 9291TIP3    H161408   1.447   6.680   1.615
 9291TIP3    H261409   1.580   6.620   1.661
 9292TIP3   OH261410   0.580   6.254   1.767
 9292TIP3    H161411   0.489   6.222   1.772
 9292TIP3    H261412   0.598   6.251   1.671
 9293TIP3   OH261413   0.824   5.734   1.369
 9293TIP3    H161414   0.798   5.829   1.365
 9293TIP3    H261415   0.756   5.695   1.312
 9294TIP3   OH261416   0.922   6.149   1.762
 9294TIP3    H161417   0.856   6.136   1.834
 9294TIP3    H261418   0.861   6.152   1.684
 9295TIP3   OH261419   1.195   6.100   1.666
 9295TIP3    H161420   1.101   6.088   1.687
 9295TIP3    H261421   1.238   6.044   1.734
 9296TIP3   OH261422   1.333   5.951   1.836
 9296TIP3    H161423   1.350   5.854   1.839
 9296TIP3    H261424   1.347   5.981   1.928
 9297TIP3   OH261425   0.345   6.064   1.785
 9297TIP3    H161426   0.358   5.979   1.740
 9297TIP3    H261427   0.364   6.040   1.878
 9298TIP3   OH261428   0.815   5.702   1.646
 9298TIP3    H161429   0.897   5.647   1.645
 9298TIP3    H261430   0.803   5.707   1.549
 9299TIP3   OH261431   0.835   5.813   1.911
 9299TIP3    H161432   0.821   5.758   1.830
 9299TIP3    H261433   0.842   5.900   1.871
 9300TIP3   OH261434   0.825   7.528   0.206
 9300TIP3    H161435   0.908   7.572   0.181
 9300TIP3    H261436   0.759   7.574   0.154
 9301TIP3   OH261437   0.211   6.998   0.087
 9301TIP3    H161438   0.304   7.023   0.108
 9301TIP3    H261439   0.215   6.993  -0.012
 9302TIP3   OH261440   0.097   7.515   0.598
 9302TIP3    H161441   0.037   7.447   0.562
 9302TIP3    H261442   0.109   7.477   0.687
 9303TIP3   OH261443   0.144   7.345   0.815
 9303TIP3    H161444   0.111   7.257   0.840
 9303TIP3    H261445   0.190   7.373   0.897
 9304TIP3   OH261446   1.917   7.423   1.057
 9304TIP3    H161447   1.909   7.409   1.152
 9304TIP3    H261448   1.956   7.511   1.056
 9305TIP3   OH261449   1.828   7.362   1.335
 9305TIP3    H161450   1.799   7.272   1.309
 9305TIP3    H261451   1.867   7.344   1.422
 9306TIP3   OH261452   1.719   6.937   1.874
 9306TIP3    H161453   1.636   6.916   1.829
 9306TIP3    H261454   1.723   7.032   1.860
 9307TIP3   OH261455   1.811   6.785   0.377
 9307TIP3    H161456   1.896   6.831   0.394
 9307TIP3    H261457   1.811   6.719   0.450
 9308TIP3   OH261458   1.846   6.590   0.570
 9308TIP3    H161459   1.772   6.547   0.619
 9308TIP3    H261460   1.909   6.606   0.642
 9309TIP3   OH261461   1.817   6.851   1.064
 9309TIP3    H161462   1.885   6.784   1.042
 9309TIP3    H261463   1.861   6.935   1.037
 9310TIP3   OH261464   1.685   7.129   1.306
 9310TIP3    H161465   1.628   7.190   1.356
 9310TIP3    H261466   1.634   7.115   1.224
 9311TIP3   OH261467   1.866   6.563   0.204
 9311TIP3    H161468   1.799   6.580   0.136
 9311TIP3    H261469   1.846   6.631   0.270
 9312TIP3   OH261470   1.653   6.283   0.090
 9312TIP3    H161471   1.723   6.324   0.037
 9312TIP3    H261472   1.660   6.191   0.055
 9313TIP3   OH261473   1.646   6.441   0.660
 9313TIP3    H161474   1.622   6.352   0.630
 9313TIP3    H261475   1.615   6.441   0.754
 9314TIP3   OH261476   0.174   6.660   1.057
 9314TIP3    H161477   0.170   6.631   0.963
 9314TIP3    H261478   0.267   6.637   1.080
 9315TIP3   OH261479   1.747   6.630   1.624
 9315TIP3    H161480   1.791   6.543   1.632
 9315TIP3    H261481   1.820   6.691   1.602
 9316TIP3   OH261482   1.880   6.385   1.662
 9316TIP3    H161483   1.786   6.356   1.672
 9316TIP3    H261484   1.925   6.298   1.663
 9317TIP3   OH261485   1.645   6.038  -0.025
 9317TIP3    H161486   1.702   5.989   0.039
 9317TIP3    H261487   1.555   6.029   0.009
 9318TIP3   OH261488   1.570   6.219   0.503
 9318TIP3    H161489   1.606   6.133   0.535
 9318TIP3    H261490   1.625   6.226   0.423
 9319TIP3   OH261491   1.698   6.266   1.049
 9319TIP3    H161492   1.796   6.273   1.050
 9319TIP3    H261493   1.681   6.266   1.145
 9320TIP3   OH261494   1.690   6.342   1.313
 9320TIP3    H161495   1.597   6.369   1.304
 9320TIP3    H261496   1.737   6.429   1.307
 9321TIP3   OH261497   0.137   6.152   1.635
 9321TIP3    H161498   0.218   6.137   1.689
 9321TIP3    H261499   0.078   6.087   1.673
 9322TIP3   OH261500   1.898   5.713   1.833
 9322TIP3    H161501   1.940   5.650   1.771
 9322TIP3    H261502   1.897   5.794   1.779
 9323TIP3   OH261503   1.674   5.953   0.517
 9323TIP3    H161504   1.706   5.896   0.590
 9323TIP3    H261505   1.624   5.889   0.464
 9324TIP3   OH261506   0.249   6.009   1.038
 9324TIP3    H161507   0.282   5.918   1.019
 9324TIP3    H261508   0.330   6.063   1.040
 9325TIP3   OH261509   0.094   6.303   1.053
 9325TIP3    H161510   0.159   6.271   0.986
 9325TIP3    H261511   0.119   6.396   1.056
 9326TIP3   OH261512   1.832   5.958   1.719
 9326TIP3    H161513   1.744   5.988   1.751
 9326TIP3    H261514   1.813   5.938   1.627
 9327TIP3   OH261515   1.840   5.944   0.144
 9327TIP3    H161516   1.892   5.893   0.080
 9327TIP3    H261517   1.906   6.008   0.176
 9328TIP3   OH261518   0.094   5.933   0.450
 9328TIP3    H161519  -0.003   5.929   0.443
 9328TIP3    H261520   0.116   5.975   0.364
 9329TIP3   OH261521   1.552   7.443   0.677
 9329TIP3    H161522   1.621   7.413   0.614
 9329TIP3    H261523   1.602   7.491   0.746
 9330TIP3   OH261524   0.111   5.799   1.303
 9330TIP3    H161525   0.051   5.779   1.377
 9330TIP3    H261526   0.059   5.862   1.252
 9331TIP3   OH261527   0.315   7.088   1.741
 9331TIP3    H161528   0.285   7.004   1.702
 9331TIP3    H261529   0.305   7.070   1.837
 9332TIP3   OH261530   0.602   7.251   1.341
 9332TIP3    H161531   0.588   7.345   1.314
 9332TIP3    H261532   0.700   7.246   1.335
 9333TIP3   OH261533   1.021   7.374   1.616
 9333TIP3    H161534   1.026   7.356   1.713
 9333TIP3    H261535   1.109   7.417   1.601
 9334TIP3   OH261536   1.240   7.526   1.572
 9334TIP3    H161537   1.316   7.488   1.526
 9334TIP3    H261538   1.277   7.555   1.658
 9335TIP3   OH261539   1.751   5.714   1.490
 9335TIP3    H161540   1.680   5.761   1.443
 9335TIP3    H261541   1.744   5.624   1.452
 9336TIP3   OH261542   0.336   7.541   1.349
 9336TIP3    H161543   0.255   7.583   1.313
 9336TIP3    H261544   0.311   7.520   1.440
 9337TIP3   OH261545   0.581   7.507   1.240
 9337TIP3    H161546   0.494   7.532   1.277
 9337TIP3    H261547   0.589   7.569   1.165
 9338TIP3   OH261548   1.046   7.470   1.172
 9338TIP3    H161549   1.001   7.510   1.097
 9338TIP3    H261550   1.060   7.547   1.232
 9339TIP3   OH261551   1.251   7.340   1.303
 9339TIP3    H161552   1.183   7.386   1.250
 9339TIP3    H261553   1.326   7.399   1.282
 9340TIP3   OH261554   1.508   7.488   1.275
 9340TIP3    H161555   1.535   7.581   1.261
 9340TIP3    H261556   1.549   7.447   1.194
 9341TIP3   OH261557   0.307   7.414   1.024
 9341TIP3    H161558   0.285   7.354   1.098
 9341TIP3    H261559   0.387   7.368   0.986
 9342TIP3   OH261560   0.489   7.269   0.894
 9342TIP3    H161561   0.479   7.175   0.920
 9342TIP3    H261562   0.575   7.288   0.939
 9343TIP3   OH261563   0.718   7.274   1.039
 9343TIP3    H161564   0.755   7.186   1.018
 9343TIP3    H261565   0.755   7.289   1.128
 9344TIP3   OH261566   1.060   5.863   0.929
 9344TIP3    H161567   0.976   5.813   0.943
 9344TIP3    H261568   1.104   5.807   0.864
 9345TIP3   OH261569   1.639   5.689   0.911
 9345TIP3    H161570   1.702   5.741   0.855
 9345TIP3    H261571   1.552   5.720   0.878
 9346TIP3   OH261572   1.786   5.805   0.714
 9346TIP3    H161573   1.853   5.751   0.666
 9346TIP3    H261574   1.840   5.885   0.733
 9347TIP3   OH261575   0.356   5.729   0.692
 9347TIP3    H161576   0.273   5.719   0.640
 9347TIP3    H261577   0.398   5.641   0.679
 9348TIP3   OH261578   0.245   5.683   0.257
 9348TIP3    H161579   0.273   5.752   0.194
 9348TIP3    H261580   0.183   5.729   0.316
 9349TIP3   OH261581   0.770   5.695   0.669
 9349TIP3    H161582   0.856   5.709   0.628
 9349TIP3    H261583   0.775   5.746   0.750
 9350TIP3   OH261584   1.371   5.746   0.814
 9350TIP3    H161585   1.345   5.762   0.723
 9350TIP3    H261586   1.318   5.665   0.834
 9351TIP3   OH261587   1.492   5.733   0.361
 9351TIP3    H161588   1.409   5.771   0.331
 9351TIP3    H261589   1.458   5.652   0.408
 9352TIP3   OH261590   0.214   7.316   0.363
 9352TIP3    H161591   0.119   7.309   0.351
 9352TIP3    H261592   0.226   7.410   0.336
 9353TIP3   OH261593   0.391   5.873   0.109
 9353TIP3    H161594   0.466   5.816   0.085
 9353TIP3    H261595   0.433   5.939   0.164
 9354TIP3   OH261596   0.898   5.970   0.359
 9354TIP3    H161597   0.947   5.909   0.418
 9354TIP3    H261598   0.918   6.055   0.403
 9355TIP3   OH261599   1.105   7.525   0.170
 9355TIP3    H161600   1.191   7.545   0.129
 9355TIP3    H261601   1.104   7.428   0.153
 9356TIP3   OH261602   1.730   7.367   0.496
 9356TIP3    H161603   1.728   7.293   0.429
 9356TIP3    H261604   1.734   7.443   0.435
 9357TIP3   OH261605   0.306   5.793   1.630
 9357TIP3    H161606   0.244   5.720   1.651
 9357TIP3    H261607   0.388   5.762   1.672
 9358TIP3   OH261608   0.514   5.719   1.829
 9358TIP3    H161609   0.602   5.718   1.787
 9358TIP3    H261610   0.503   5.625   1.850
 9359TIP3   OH261611   0.364   7.363   0.075
 9359TIP3    H161612   0.333   7.412   0.152
 9359TIP3    H261613   0.444   7.320   0.108
 9360TIP3   OH261614   1.363   5.681   1.853
 9360TIP3    H161615   1.374   5.640   1.942
 9360TIP3    H261616   1.451   5.659   1.814
 9361TIP3   OH261617   1.678   7.290   1.676
 9361TIP3    H161618   1.612   7.287   1.602
 9361TIP3    H261619   1.675   7.386   1.694
 9362TIP3   OH261620   3.159   6.677   0.661
 9362TIP3    H161621   3.137   6.773   0.664
 9362TIP3    H261622   3.083   6.643   0.611
 9363TIP3   OH261623   3.027   6.549   1.001
 9363TIP3    H161624   3.027   6.507   1.090
 9363TIP3    H261625   2.938   6.531   0.967
 9364TIP3   OH261626   2.233   6.558   1.174
 9364TIP3    H161627   2.233   6.482   1.235
 9364TIP3    H261628   2.328   6.571   1.158
 9365TIP3   OH261629   3.343   6.885   0.870
 9365TIP3    H161630   3.324   6.805   0.923
 9365TIP3    H261631   3.366   6.950   0.939
 9366TIP3   OH261632   2.344   7.005   0.996
 9366TIP3    H161633   2.307   6.921   0.963
 9366TIP3    H261634   2.438   6.991   0.977
 9367TIP3   OH261635   2.022   6.336   0.560
 9367TIP3    H161636   1.978   6.421   0.572
 9367TIP3    H261637   1.967   6.296   0.491
 9368TIP3   OH261638   2.057   6.579   0.806
 9368TIP3    H161639   2.092   6.490   0.828
 9368TIP3    H261640   2.135   6.635   0.795
 9369TIP3   OH261641   3.094   7.422   0.846
 9369TIP3    H161642   3.156   7.365   0.795
 9369TIP3    H261643   3.072   7.359   0.916
 9370TIP3   OH261644   2.823   6.815   1.103
 9370TIP3    H161645   2.840   6.807   1.009
 9370TIP3    H261646   2.913   6.841   1.134
 9371TIP3   OH261647   3.701   5.980   1.122
 9371TIP3    H161648   3.716   6.029   1.206
 9371TIP3    H261649   3.783   6.001   1.076
 9372TIP3   OH261650   3.208   6.274   1.115
 9372TIP3    H161651   3.225   6.186   1.152
 9372TIP3    H261652   3.202   6.254   1.019
 9373TIP3   OH261653   2.491   6.059   0.794
 9373TIP3    H161654   2.508   6.140   0.742
 9373TIP3    H261655   2.443   6.007   0.727
 9374TIP3   OH261656   3.246   6.082   0.647
 9374TIP3    H161657   3.305   6.047   0.718
 9374TIP3    H261658   3.297   6.160   0.621
 9375TIP3   OH261659   2.135   6.324   0.890
 9375TIP3    H161660   2.194   6.272   0.949
 9375TIP3    H261661   2.161   6.286   0.804
 9376TIP3   OH261662   2.605   6.480   0.828
 9376TIP3    H161663   2.686   6.433   0.859
 9376TIP3    H261664   2.570   6.410   0.768
 9377TIP3   OH261665   3.714   6.113   1.354
 9377TIP3    H161666   3.687   6.199   1.315
 9377TIP3    H261667   3.743   6.142   1.442
 9378TIP3   OH261668   2.397   5.980   1.223
 9378TIP3    H161669   2.351   6.027   1.150
 9378TIP3    H261670   2.329   5.987   1.294
 9379TIP3   OH261671   3.065   6.909   0.561
 9379TIP3    H161672   3.053   6.915   0.465
 9379TIP3    H261673   3.025   6.994   0.592
 9380TIP3   OH261674   2.597   6.738   1.220
 9380TIP3    H161675   2.540   6.812   1.250
 9380TIP3    H261676   2.673   6.787   1.181
 9381TIP3   OH261677   3.450   6.023   0.817
 9381TIP3    H161678   3.433   5.983   0.904
 9381TIP3    H261679   3.528   6.076   0.836
 9382TIP3   OH261680   2.338   6.162   1.012
 9382TIP3    H161681   2.395   6.231   1.053
 9382TIP3    H261682   2.392   6.138   0.933
 9383TIP3   OH261683   2.478   6.963   1.298
 9383TIP3    H161684   2.455   7.040   1.244
 9383TIP3    H261685   2.393   6.953   1.348
 9384TIP3   OH261686   2.056   6.898   0.385
 9384TIP3    H161687   2.062   6.951   0.303
 9384TIP3    H261688   2.074   6.966   0.454
 9385TIP3   OH261689   3.429   7.074   1.063
 9385TIP3    H161690   3.338   7.098   1.094
 9385TIP3    H261691   3.450   7.152   1.009
 9386TIP3   OH261692   3.434   5.893   1.183
 9386TIP3    H161693   3.358   5.926   1.130
 9386TIP3    H261694   3.505   5.951   1.150
 9387TIP3   OH261695   2.726   5.712   0.947
 9387TIP3    H161696   2.697   5.621   0.954
 9387TIP3    H261697   2.642   5.758   0.974
 9388TIP3   OH261698   3.261   7.259   0.716
 9388TIP3    H161699   3.289   7.175   0.673
 9388TIP3    H261700   3.339   7.318   0.701
 9389TIP3   OH261701   3.366   7.035   0.580
 9389TIP3    H161702   3.355   6.969   0.510
 9389TIP3    H261703   3.342   6.983   0.659
 9390TIP3   OH261704   3.532   6.916   1.439
 9390TIP3    H161705   3.534   6.832   1.388
 9390TIP3    H261706   3.552   6.982   1.369
 9391TIP3   OH261707   2.985   6.589   0.412
 9391TIP3    H161708   2.919   6.661   0.395
 9391TIP3    H261709   3.067   6.624   0.371
 9392TIP3   OH261710   2.991   6.490   0.135
 9392TIP3    H161711   3.047   6.514   0.212
 9392TIP3    H261712   3.035   6.411   0.102
 9393TIP3   OH261713   3.744   6.551   1.229
 9393TIP3    H161714   3.671   6.617   1.231
 9393TIP3    H261715   3.799   6.592   1.159
 9394TIP3   OH261716   3.379   6.620   0.521
 9394TIP3    H161717   3.303   6.640   0.581
 9394TIP3    H261718   3.435   6.565   0.582
 9395TIP3   OH261719   3.360   6.423   1.454
 9395TIP3    H161720   3.363   6.492   1.525
 9395TIP3    H261721   3.295   6.461   1.393
 9396TIP3   OH261722   2.479   6.664   0.677
 9396TIP3    H161723   2.473   6.614   0.593
 9396TIP3    H261724   2.533   6.602   0.732
 9397TIP3   OH261725   2.635   7.002   0.957
 9397TIP3    H161726   2.650   6.987   0.862
 9397TIP3    H261727   2.704   6.947   1.000
 9398TIP3   OH261728   2.488   6.555   1.071
 9398TIP3    H161729   2.528   6.544   0.981
 9398TIP3    H261730   2.549   6.618   1.116
 9399TIP3   OH261731   3.187   7.123   1.147
 9399TIP3    H161732   3.152   7.184   1.214
 9399TIP3    H261733   3.153   7.036   1.176
 9400TIP3   OH261734   2.641   6.990   1.515
 9400TIP3    H161735   2.570   7.040   1.563
 9400TIP3    H261736   2.596   6.972   1.430
 9401TIP3   OH261737   3.219   6.570   0.300
 9401TIP3    H161738   3.277   6.582   0.378
 9401TIP3    H261739   3.272   6.611   0.227
 9402TIP3   OH261740   2.333   6.606   1.448
 9402TIP3    H161741   2.340   6.695   1.484
 9402TIP3    H261742   2.242   6.583   1.473
 9403TIP3   OH261743   2.986   7.148   0.656
 9403TIP3    H161744   3.025   7.215   0.713
 9403TIP3    H261745   2.947   7.201   0.586
 9404TIP3   OH261746   2.462   7.170   1.612
 9404TIP3    H161747   2.445   7.209   1.524
 9404TIP3    H261748   2.372   7.145   1.640
 9405TIP3   OH261749   3.629   5.691   0.308
 9405TIP3    H161750   3.532   5.705   0.307
 9405TIP3    H261751   3.659   5.771   0.261
 9406TIP3   OH261752   2.386   6.557   0.427
 9406TIP3    H161753   2.342   6.641   0.400
 9406TIP3    H261754   2.315   6.492   0.423
 9407TIP3   OH261755   3.697   7.128   0.092
 9407TIP3    H161756   3.731   7.219   0.095
 9407TIP3    H261757   3.783   7.081   0.096
 9408TIP3   OH261758   2.035   6.831   1.362
 9408TIP3    H161759   1.997   6.813   1.275
 9408TIP3    H261760   2.069   6.742   1.382
 9409TIP3   OH261761   1.996   7.089   1.025
 9409TIP3    H161762   2.080   7.049   1.050
 9409TIP3    H261763   2.006   7.177   1.060
 9410TIP3   OH261764   3.777   7.162   1.587
 9410TIP3    H161765   3.779   7.065   1.587
 9410TIP3    H261766   3.694   7.178   1.638
 9411TIP3   OH261767   2.879   7.128   1.490
 9411TIP3    H161768   2.880   7.214   1.538
 9411TIP3    H261769   2.786   7.097   1.500
 9412TIP3   OH261770   2.955   7.486   0.429
 9412TIP3    H161771   2.959   7.509   0.334
 9412TIP3    H261772   2.950   7.575   0.471
 9413TIP3   OH261773   2.311   7.360   0.642
 9413TIP3    H161774   2.334   7.331   0.733
 9413TIP3    H261775   2.222   7.324   0.631
 9414TIP3   OH261776   3.252   7.428   0.152
 9414TIP3    H161777   3.309   7.352   0.130
 9414TIP3    H261778   3.250   7.423   0.250
 9415TIP3   OH261779   3.221   7.412   0.433
 9415TIP3    H161780   3.124   7.424   0.444
 9415TIP3    H261781   3.237   7.332   0.486
 9416TIP3   OH261782   3.530   6.284   1.621
 9416TIP3    H161783   3.453   6.337   1.591
 9416TIP3    H261784   3.503   6.193   1.600
 9417TIP3   OH261785   2.254   6.972   1.436
 9417TIP3    H161786   2.263   6.944   1.529
 9417TIP3    H261787   2.167   6.932   1.413
 9418TIP3   OH261788   2.498   5.814   1.034
 9418TIP3    H161789   2.412   5.828   0.989
 9418TIP3    H261790   2.483   5.868   1.114
 9419TIP3   OH261791   2.960   5.761   1.374
 9419TIP3    H161792   2.980   5.740   1.466
 9419TIP3    H261793   2.861   5.763   1.373
 9420TIP3   OH261794   3.270   6.171   1.517
 9420TIP3    H161795   3.201   6.153   1.586
 9420TIP3    H261796   3.276   6.268   1.520
 9421TIP3   OH261797   3.350   6.668   0.092
 9421TIP3    H161798   3.368   6.672  -0.003
 9421TIP3    H261799   3.419   6.730   0.124
 9422TIP3   OH261800   2.942   6.074   0.108
 9422TIP3    H161801   2.889   6.068   0.189
 9422TIP3    H261802   2.919   5.992   0.062
 9423TIP3   OH261803   2.510   6.303   1.156
 9423TIP3    H161804   2.447   6.303   1.230
 9423TIP3    H261805   2.506   6.399   1.133
 9424TIP3   OH261806   2.514   6.285   0.650
 9424TIP3    H161807   2.417   6.284   0.639
 9424TIP3    H261808   2.547   6.266   0.560
 9425TIP3   OH261809   3.076   6.374   0.538
 9425TIP3    H161810   3.039   6.453   0.491
 9425TIP3    H261811   3.133   6.338   0.468
 9426TIP3   OH261812   2.917   6.399   1.628
 9426TIP3    H161813   2.891   6.318   1.675
 9426TIP3    H261814   3.000   6.421   1.672
 9427TIP3   OH261815   3.183   6.310   0.832
 9427TIP3    H161816   3.157   6.398   0.799
 9427TIP3    H261817   3.163   6.256   0.754
 9428TIP3   OH261818   2.268   6.303   1.295
 9428TIP3    H161819   2.307   6.332   1.379
 9428TIP3    H261820   2.246   6.210   1.316
 9429TIP3   OH261821   2.580   6.084   0.069
 9429TIP3    H161822   2.556   6.019   0.138
 9429TIP3    H261823   2.564   6.168   0.117
 9430TIP3   OH261824   1.947   6.025   0.744
 9430TIP3    H161825   2.012   6.034   0.816
 9430TIP3    H261826   1.993   6.063   0.669
 9431TIP3   OH261827   2.045   6.093   0.256
 9431TIP3    H161828   2.108   6.129   0.191
 9431TIP3    H261829   1.992   6.174   0.273
 9432TIP3   OH261830   3.063   6.461   1.254
 9432TIP3    H161831   3.128   6.397   1.216
 9432TIP3    H261832   3.005   6.401   1.306
 9433TIP3   OH261833   2.811   6.034   0.728
 9433TIP3    H161834   2.717   6.032   0.754
 9433TIP3    H261835   2.856   6.003   0.810
 9434TIP3   OH261836   2.230   6.203   0.664
 9434TIP3    H161837   2.162   6.242   0.604
 9434TIP3    H261838   2.255   6.120   0.617
 9435TIP3   OH261839   2.594   6.229   0.387
 9435TIP3    H161840   2.690   6.246   0.392
 9435TIP3    H261841   2.566   6.281   0.308
 9436TIP3   OH261842   3.223   5.986   1.052
 9436TIP3    H161843   3.163   5.984   1.131
 9436TIP3    H261844   3.177   5.929   0.990
 9437TIP3   OH261845   2.510   6.333   0.151
 9437TIP3    H161846   2.445   6.322   0.079
 9437TIP3    H261847   2.582   6.384   0.108
 9438TIP3   OH261848   3.489   7.529   1.720
 9438TIP3    H161849   3.540   7.548   1.639
 9438TIP3    H261850   3.546   7.570   1.786
 9439TIP3   OH261851   2.287   6.799   1.664
 9439TIP3    H161852   2.363   6.804   1.726
 9439TIP3    H261853   2.216   6.762   1.720
 9440TIP3   OH261854   2.834   6.325   0.919
 9440TIP3    H161855   2.931   6.317   0.915
 9440TIP3    H261856   2.810   6.244   0.968
 9441TIP3   OH261857   2.342   5.957   0.588
 9441TIP3    H161858   2.290   5.883   0.627
 9441TIP3    H261859   2.388   5.911   0.515
 9442TIP3   OH261860   2.734   6.154   1.193
 9442TIP3    H161861   2.659   6.215   1.177
 9442TIP3    H261862   2.798   6.209   1.241
 9443TIP3   OH261863   2.816   6.790   0.387
 9443TIP3    H161864   2.741   6.741   0.347
 9443TIP3    H261865   2.775   6.821   0.471
 9444TIP3   OH261866   3.546   6.741   1.229
 9444TIP3    H161867   3.596   6.804   1.172
 9444TIP3    H261868   3.468   6.726   1.173
 9445TIP3   OH261869   3.199   6.089   0.163
 9445TIP3    H161870   3.111   6.103   0.123
 9445TIP3    H261871   3.214   6.173   0.209
 9446TIP3   OH261872   2.932   6.837   1.444
 9446TIP3    H161873   2.931   6.792   1.530
 9446TIP3    H261874   2.906   6.926   1.471
 9447TIP3   OH261875   3.264   6.301   0.332
 9447TIP3    H161876   3.331   6.278   0.400
 9447TIP3    H261877   3.300   6.383   0.294
 9448TIP3   OH261878   2.321   6.749   0.898
 9448TIP3    H161879   2.375   6.744   0.817
 9448TIP3    H261880   2.359   6.680   0.955
 9449TIP3   OH261881   3.016   6.931   0.277
 9449TIP3    H161882   2.973   7.018   0.299
 9449TIP3    H261883   2.946   6.868   0.307
 9450TIP3   OH261884   2.046   6.562   1.483
 9450TIP3    H161885   2.016   6.502   1.554
 9450TIP3    H261886   1.990   6.533   1.409
 9451TIP3   OH261887   2.690   6.548   1.651
 9451TIP3    H161888   2.686   6.501   1.566
 9451TIP3    H261889   2.779   6.518   1.681
 9452TIP3   OH261890   3.203   7.074   1.482
 9452TIP3    H161891   3.120   7.094   1.437
 9452TIP3    H261892   3.183   7.107   1.572
 9453TIP3   OH261893   3.744   6.280   0.325
 9453TIP3    H161894   3.684   6.275   0.247
 9453TIP3    H261895   3.768   6.375   0.318
 9454TIP3   OH261896   3.763   6.881   1.590
 9454TIP3    H161897   3.676   6.898   1.547
 9454TIP3    H261898   3.821   6.870   1.511
 9455TIP3   OH261899   3.561   7.174   0.333
 9455TIP3    H161900   3.553   7.086   0.371
 9455TIP3    H261901   3.606   7.160   0.247
 9456TIP3   OH261902   3.307   6.653   1.041
 9456TIP3    H161903   3.214   6.627   1.028
 9456TIP3    H261904   3.352   6.580   0.995
 9457TIP3   OH261905   2.554   7.098   0.650
 9457TIP3    H161906   2.567   7.193   0.627
 9457TIP3    H261907   2.467   7.083   0.612
 9458TIP3   OH261908   2.166   6.572   0.128
 9458TIP3    H161909   2.206   6.644   0.180
 9458TIP3    H261910   2.074   6.572   0.159
 9459TIP3   OH261911   2.688   6.861   0.621
 9459TIP3    H161912   2.642   6.948   0.625
 9459TIP3    H261913   2.626   6.800   0.664
 9460TIP3   OH261914   2.749   7.281   1.298
 9460TIP3    H161915   2.814   7.343   1.260
 9460TIP3    H261916   2.805   7.232   1.362
 9461TIP3   OH261917   2.568   7.352   0.560
 9461TIP3    H161918   2.471   7.350   0.577
 9461TIP3    H261919   2.591   7.434   0.609
 9462TIP3   OH261920   3.069   6.884   1.212
 9462TIP3    H161921   3.029   6.852   1.298
 9462TIP3    H261922   3.134   6.815   1.192
 9463TIP3   OH261923   3.334   7.001   0.171
 9463TIP3    H161924   3.369   6.949   0.247
 9463TIP3    H261925   3.242   6.970   0.171
 9464TIP3   OH261926   3.391   7.312   1.486
 9464TIP3    H161927   3.311   7.257   1.471
 9464TIP3    H261928   3.388   7.372   1.409
 9465TIP3   OH261929   3.776   7.408   0.171
 9465TIP3    H161930   3.819   7.481   0.123
 9465TIP3    H261931   3.703   7.457   0.214
 9466TIP3   OH261932   2.196   6.044   1.418
 9466TIP3    H161933   2.114   6.096   1.426
 9466TIP3    H261934   2.170   5.961   1.461
 9467TIP3   OH261935   3.417   6.839   0.373
 9467TIP3    H161936   3.404   6.754   0.423
 9467TIP3    H261937   3.513   6.850   0.384
 9468TIP3   OH261938   2.159   7.222   1.245
 9468TIP3    H161939   2.218   7.147   1.264
 9468TIP3    H261940   2.196   7.289   1.304
 9469TIP3   OH261941   2.617   7.031   0.240
 9469TIP3    H161942   2.684   6.988   0.296
 9469TIP3    H261943   2.634   7.127   0.257
 9470TIP3   OH261944   2.272   6.769   0.276
 9470TIP3    H161945   2.206   6.810   0.336
 9470TIP3    H261946   2.319   6.846   0.239
 9471TIP3   OH261947   3.123   5.989   1.318
 9471TIP3    H161948   3.179   6.027   1.387
 9471TIP3    H261949   3.059   5.935   1.368
 9472TIP3   OH261950   3.141   5.973   0.423
 9472TIP3    H161951   3.184   6.017   0.347
 9472TIP3    H261952   3.198   5.997   0.500
 9473TIP3   OH261953   2.920   7.174   0.340
 9473TIP3    H161954   2.855   7.246   0.349
 9473TIP3    H261955   2.974   7.208   0.265
 9474TIP3   OH261956   2.858   6.186   0.503
 9474TIP3    H161957   2.932   6.247   0.524
 9474TIP3    H261958   2.842   6.140   0.587
 9475TIP3   OH261959   2.926   6.273   1.392
 9475TIP3    H161960   2.909   6.328   1.472
 9475TIP3    H261961   2.987   6.204   1.424
 9476TIP3   OH261962   2.933   5.854   0.561
 9476TIP3    H161963   2.897   5.922   0.622
 9476TIP3    H261964   3.010   5.903   0.521
 9477TIP3   OH261965   2.649   7.291   0.301
 9477TIP3    H161966   2.680   7.377   0.265
 9477TIP3    H261967   2.612   7.323   0.386
 9478TIP3   OH261968   2.491   5.970   0.296
 9478TIP3    H161969   2.499   6.055   0.345
 9478TIP3    H261970   2.576   5.927   0.321
 9479TIP3   OH261971   3.504   6.022   1.542
 9479TIP3    H161972   3.411   6.041   1.518
 9479TIP3    H261973   3.551   6.046   1.459
 9480TIP3   OH261974   3.417   6.423   0.904
 9480TIP3    H161975   3.337   6.367   0.913
 9480TIP3    H261976   3.482   6.373   0.958
 9481TIP3   OH261977   2.346   7.017   0.153
 9481TIP3    H161978   2.430   7.046   0.195
 9481TIP3    H261979   2.384   6.967   0.079
 9482TIP3   OH261980   2.167   6.307   0.079
 9482TIP3    H161981   2.186   6.400   0.100
 9482TIP3    H261982   2.091   6.312   0.019
 9483TIP3   OH261983   3.502   7.365   1.063
 9483TIP3    H161984   3.505   7.438   0.998
 9483TIP3    H261985   3.598   7.346   1.065
 9484TIP3   OH261986   2.229   5.767   0.973
 9484TIP3    H161987   2.222   5.750   0.876
 9484TIP3    H261988   2.203   5.678   1.007
 9485TIP3   OH261989   2.108   7.145   0.537
 9485TIP3    H161990   2.033   7.188   0.581
 9485TIP3    H261991   2.123   7.211   0.465
 9486TIP3   OH261992   2.036   7.424   1.686
 9486TIP3    H161993   2.132   7.411   1.688
 9486TIP3    H261994   2.004   7.333   1.665
 9487TIP3   OH261995   2.528   7.323   1.838
 9487TIP3    H161996   2.620   7.297   1.861
 9487TIP3    H261997   2.516   7.273   1.754
 9488TIP3   OH261998   3.018   7.276   0.098
 9488TIP3    H161999   2.956   7.224   0.042
 9488TIP3    H262000   3.087   7.299   0.034
 9489TIP3   OH262001   3.182   7.212   1.740
 9489TIP3    H162002   3.148   7.139   1.794
 9489TIP3    H262003   3.239   7.257   1.806
 9490TIP3   OH262004   3.436   7.228   0.023
 9490TIP3    H162005   3.390   7.156   0.069
 9490TIP3    H262006   3.528   7.202   0.046
 9491TIP3   OH262007   2.036   6.799   1.793
 9491TIP3    H162008   2.022   6.703   1.783
 9491TIP3    H262009   1.986   6.835   1.717
 9492TIP3   OH262010   2.527   6.820   0.026
 9492TIP3    H162011   2.573   6.799   0.109
 9492TIP3    H262012   2.574   6.763  -0.038
 9493TIP3   OH262013   2.721   6.814   1.695
 9493TIP3    H162014   2.700   6.864   1.613
 9493TIP3    H262015   2.701   6.721   1.670
 9494TIP3   OH262016   3.283   6.801   1.487
 9494TIP3    H162017   3.359   6.863   1.480
 9494TIP3    H262018   3.210   6.864   1.478
 9495TIP3   OH262019   2.141   6.520   1.779
 9495TIP3    H162020   2.205   6.450   1.778
 9495TIP3    H262021   2.063   6.483   1.821
 9496TIP3   OH262022   2.621   6.654   0.250
 9496TIP3    H162023   2.551   6.600   0.292
 9496TIP3    H262024   2.660   6.590   0.188
 9497TIP3   OH262025   2.507   6.415   1.408
 9497TIP3    H162026   2.461   6.500   1.429
 9497TIP3    H262027   2.588   6.449   1.367
 9498TIP3   OH262028   2.737   6.461   0.050
 9498TIP3    H162029   2.761   6.481  -0.043
 9498TIP3    H262030   2.826   6.468   0.093
 9499TIP3   OH262031   3.075   6.633   1.846
 9499TIP3    H162032   3.157   6.619   1.797
 9499TIP3    H262033   3.104   6.593   1.932
 9500TIP3   OH262034   3.627   6.739   8.486
 9500TIP3    H162035   3.594   6.754   8.396
 9500TIP3    H262036   3.660   6.826   8.511
 9501TIP3   OH262037   2.603   6.211   1.547
 9501TIP3    H162038   2.614   6.136   1.486
 9501TIP3    H262039   2.575   6.285   1.489
 9502TIP3   OH262040   2.631   5.978   1.362
 9502TIP3    H162041   2.681   6.036   1.299
 9502TIP3    H262042   2.544   5.976   1.317
 9503TIP3   OH262043   2.742   6.563   1.353
 9503TIP3    H162044   2.827   6.597   1.319
 9503TIP3    H262045   2.681   6.632   1.316
 9504TIP3   OH262046   3.191   6.310   1.820
 9504TIP3    H162047   3.126   6.308   1.893
 9504TIP3    H262048   3.241   6.389   1.845
 9505TIP3   OH262049   3.361   6.600   1.653
 9505TIP3    H162050   3.329   6.677   1.601
 9505TIP3    H262051   3.456   6.625   1.661
 9506TIP3   OH262052   2.462   6.231   1.773
 9506TIP3    H162053   2.375   6.203   1.741
 9506TIP3    H262054   2.518   6.217   1.693
 9507TIP3   OH262055   2.697   5.720   1.359
 9507TIP3    H162056   2.669   5.814   1.359
 9507TIP3    H262057   2.624   5.681   1.309
 9508TIP3   OH262058   2.821   6.134   1.774
 9508TIP3    H162059   2.762   6.133   1.853
 9508TIP3    H262060   2.756   6.116   1.705
 9509TIP3   OH262061   3.066   6.072   1.662
 9509TIP3    H162062   2.981   6.104   1.701
 9509TIP3    H262063   3.104   6.025   1.739
 9510TIP3   OH262064   3.226   5.933   1.854
 9510TIP3    H162065   3.239   5.836   1.837
 9510TIP3    H262066   3.315   5.963   1.874
 9511TIP3   OH262067   2.228   6.048   1.795
 9511TIP3    H162068   2.239   5.975   1.731
 9511TIP3    H262069   2.215   6.001   1.878
 9512TIP3   OH262070   2.715   5.697   1.647
 9512TIP3    H162071   2.784   5.627   1.655
 9512TIP3    H262072   2.704   5.699   1.550
 9513TIP3   OH262073   2.698   7.534   0.192
 9513TIP3    H162074   2.783   7.579   0.203
 9513TIP3    H262075   2.701   7.515   0.097
 9514TIP3   OH262076   2.053   6.980   0.114
 9514TIP3    H162077   2.149   6.989   0.123
 9514TIP3    H262078   2.048   6.950   0.022
 9515TIP3   OH262079   1.950   7.493   0.595
 9515TIP3    H162080   1.866   7.446   0.577
 9515TIP3    H262081   1.990   7.436   0.663
 9516TIP3   OH262082   2.057   7.329   0.793
 9516TIP3    H162083   1.986   7.283   0.842
 9516TIP3    H262084   2.100   7.376   0.868
 9517TIP3   OH262085   3.784   7.416   1.053
 9517TIP3    H162086   3.802   7.397   1.146
 9517TIP3    H262087   3.837   7.495   1.040
 9518TIP3   OH262088   3.719   7.363   1.379
 9518TIP3    H162089   3.675   7.292   1.326
 9518TIP3    H262090   3.754   7.309   1.453
 9519TIP3   OH262091   3.573   6.949   1.857
 9519TIP3    H162092   3.482   6.967   1.890
 9519TIP3    H262093   3.608   7.037   1.842
 9520TIP3   OH262094   3.688   6.790   0.379
 9520TIP3    H162095   3.777   6.829   0.392
 9520TIP3    H262096   3.685   6.723   0.451
 9521TIP3   OH262097   3.745   6.583   0.571
 9521TIP3    H162098   3.666   6.550   0.620
 9521TIP3    H262099   3.805   6.603   0.646
 9522TIP3   OH262100   3.702   6.872   1.066
 9522TIP3    H162101   3.773   6.809   1.039
 9522TIP3    H262102   3.748   6.958   1.063
 9523TIP3   OH262103   3.583   7.142   1.290
 9523TIP3    H162104   3.510   7.178   1.343
 9523TIP3    H262105   3.538   7.117   1.207
 9524TIP3   OH262106   3.734   6.549   0.216
 9524TIP3    H162107   3.678   6.570   0.140
 9524TIP3    H262108   3.720   6.626   0.274
 9525TIP3   OH262109   3.547   6.284   0.089
 9525TIP3    H162110   3.616   6.320   0.030
 9525TIP3    H262111   3.555   6.188   0.068
 9526TIP3   OH262112   3.532   6.457   0.669
 9526TIP3    H162113   3.510   6.369   0.634
 9526TIP3    H262114   3.499   6.447   0.762
 9527TIP3   OH262115   2.023   6.667   1.063
 9527TIP3    H162116   2.022   6.634   0.970
 9527TIP3    H262117   2.115   6.641   1.090
 9528TIP3   OH262118   3.630   6.644   1.618
 9528TIP3    H162119   3.684   6.562   1.627
 9528TIP3    H262120   3.696   6.715   1.606
 9529TIP3   OH262121   3.759   6.415   1.631
 9529TIP3    H162122   3.672   6.371   1.618
 9529TIP3    H262123   3.814   6.337   1.655
 9530TIP3   OH262124   3.535   6.037  -0.026
 9530TIP3    H162125   3.586   5.987   0.042
 9530TIP3    H262126   3.443   6.033   0.006
 9531TIP3   OH262127   3.468   6.230   0.504
 9531TIP3    H162128   3.506   6.147   0.540
 9531TIP3    H262129   3.521   6.234   0.422
 9532TIP3   OH262130   3.591   6.267   1.044
 9532TIP3    H162131   3.689   6.266   1.051
 9532TIP3    H262132   3.568   6.274   1.139
 9533TIP3   OH262133   3.575   6.334   1.306
 9533TIP3    H162134   3.500   6.353   1.366
 9533TIP3    H262135   3.614   6.424   1.293
 9534TIP3   OH262136   2.008   6.145   1.654
 9534TIP3    H162137   2.092   6.109   1.684
 9534TIP3    H262138   1.947   6.082   1.699
 9535TIP3   OH262139   3.764   5.727   1.810
 9535TIP3    H162140   3.815   5.659   1.763
 9535TIP3    H262141   3.781   5.808   1.758
 9536TIP3   OH262142   3.559   5.942   0.516
 9536TIP3    H162143   3.589   5.895   0.596
 9536TIP3    H262144   3.514   5.871   0.467
 9537TIP3   OH262145   2.108   6.006   0.992
 9537TIP3    H162146   2.141   5.913   0.989
 9537TIP3    H262147   2.191   6.057   0.997
 9538TIP3   OH262148   1.955   6.310   1.080
 9538TIP3    H162149   2.011   6.283   1.004
 9538TIP3    H262150   1.994   6.397   1.096
 9539TIP3   OH262151   3.736   5.941   1.647
 9539TIP3    H162152   3.645   5.980   1.646
 9539TIP3    H262153   3.719   5.864   1.589
 9540TIP3   OH262154   3.725   5.946   0.146
 9540TIP3    H162155   3.770   5.886   0.083
 9540TIP3    H262156   3.803   5.991   0.186
 9541TIP3   OH262157   1.961   5.918   0.451
 9541TIP3    H162158   1.865   5.929   0.465
 9541TIP3    H262159   1.978   5.976   0.375
 9542TIP3   OH262160   3.449   7.445   0.684
 9542TIP3    H162161   3.516   7.418   0.618
 9542TIP3    H262162   3.497   7.502   0.747
 9543TIP3   OH262163   1.956   5.785   1.291
 9543TIP3    H162164   1.897   5.744   1.357
 9543TIP3    H262165   1.901   5.854   1.251
 9544TIP3   OH262166   2.189   7.096   1.703
 9544TIP3    H162167   2.115   7.049   1.661
 9544TIP3    H262168   2.178   7.075   1.796
 9545TIP3   OH262169   2.476   7.251   1.347
 9545TIP3    H162170   2.483   7.345   1.318
 9545TIP3    H262171   2.571   7.229   1.342
 9546TIP3   OH262172   2.920   7.375   1.619
 9546TIP3    H162173   2.937   7.353   1.712
 9546TIP3    H262174   3.007   7.410   1.593
 9547TIP3   OH262175   3.122   7.552   1.561
 9547TIP3    H162176   3.204   7.518   1.522
 9547TIP3    H262177   3.146   7.574   1.653
 9548TIP3   OH262178   3.651   5.720   1.487
 9548TIP3    H162179   3.585   5.762   1.430
 9548TIP3    H262180   3.667   5.634   1.440
 9549TIP3   OH262181   2.216   7.559   1.324
 9549TIP3    H162182   2.142   7.620   1.301
 9549TIP3    H262183   2.208   7.559   1.421
 9550TIP3   OH262184   2.474   7.501   1.249
 9550TIP3    H162185   2.379   7.510   1.273
 9550TIP3    H262186   2.474   7.552   1.166
 9551TIP3   OH262187   2.919   7.465   1.162
 9551TIP3    H162188   2.868   7.512   1.095
 9551TIP3    H262189   2.950   7.538   1.220
 9552TIP3   OH262190   3.135   7.347   1.296
 9552TIP3    H162191   3.072   7.390   1.236
 9552TIP3    H262192   3.210   7.409   1.286
 9553TIP3   OH262193   3.392   7.507   1.263
 9553TIP3    H162194   3.404   7.598   1.226
 9553TIP3    H262195   3.431   7.457   1.188
 9554TIP3   OH262196   2.195   7.402   1.026
 9554TIP3    H162197   2.160   7.338   1.090
 9554TIP3    H262198   2.277   7.357   0.995
 9555TIP3   OH262199   2.398   7.288   0.895
 9555TIP3    H162200   2.385   7.194   0.919
 9555TIP3    H262201   2.479   7.306   0.947
 9556TIP3   OH262202   2.622   7.286   1.042
 9556TIP3    H162203   2.658   7.200   1.014
 9556TIP3    H262204   2.658   7.292   1.133
 9557TIP3   OH262205   2.928   5.870   0.924
 9557TIP3    H162206   2.847   5.814   0.941
 9557TIP3    H262207   2.983   5.810   0.872
 9558TIP3   OH262208   3.513   5.692   0.897
 9558TIP3    H162209   3.579   5.743   0.844
 9558TIP3    H262210   3.428   5.724   0.858
 9559TIP3   OH262211   3.682   5.793   0.718
 9559TIP3    H162212   3.747   5.741   0.665
 9559TIP3    H262213   3.736   5.872   0.742
 9560TIP3   OH262214   2.223   5.732   0.700
 9560TIP3    H162215   2.144   5.716   0.645
 9560TIP3    H262216   2.272   5.648   0.684
 9561TIP3   OH262217   2.080   5.724   0.243
 9561TIP3    H162218   2.148   5.780   0.199
 9561TIP3    H262219   2.040   5.785   0.306
 9562TIP3   OH262220   2.654   5.702   0.668
 9562TIP3    H162221   2.744   5.706   0.635
 9562TIP3    H262222   2.657   5.751   0.751
 9563TIP3   OH262223   3.273   5.735   0.782
 9563TIP3    H162224   3.230   5.765   0.702
 9563TIP3    H262225   3.216   5.659   0.808
 9564TIP3   OH262226   3.382   5.731   0.372
 9564TIP3    H162227   3.301   5.772   0.341
 9564TIP3    H262228   3.347   5.651   0.416
 9565TIP3   OH262229   2.084   7.336   0.348
 9565TIP3    H162230   1.996   7.336   0.304
 9565TIP3    H262231   2.105   7.430   0.331
 9566TIP3   OH262232   2.264   5.859   0.115
 9566TIP3    H162233   2.350   5.827   0.083
 9566TIP3    H262234   2.289   5.946   0.151
 9567TIP3   OH262235   2.779   5.972   0.353
 9567TIP3    H162236   2.816   5.911   0.418
 9567TIP3    H262237   2.806   6.058   0.394
 9568TIP3   OH262238   2.982   7.529   0.171
 9568TIP3    H162239   3.069   7.549   0.132
 9568TIP3    H262240   2.984   7.432   0.156
 9569TIP3   OH262241   3.621   7.371   0.495
 9569TIP3    H162242   3.605   7.295   0.434
 9569TIP3    H262243   3.621   7.443   0.428
 9570TIP3   OH262244   2.172   5.809   1.617
 9570TIP3    H162245   2.124   5.725   1.628
 9570TIP3    H262246   2.256   5.786   1.663
 9571TIP3   OH262247   2.374   5.734   1.782
 9571TIP3    H162248   2.463   5.755   1.750
 9571TIP3    H262249   2.386   5.641   1.805
 9572TIP3   OH262250   2.275   7.422   0.046
 9572TIP3    H162251   2.212   7.474   0.098
 9572TIP3    H262252   2.297   7.348   0.104
 9573TIP3   OH262253   3.261   5.664   1.842
 9573TIP3    H162254   3.216   5.594   1.790
 9573TIP3    H262255   3.354   5.651   1.812
 9574TIP3   OH262256   3.548   7.254   1.702
 9574TIP3    H162257   3.481   7.250   1.629
 9574TIP3    H262258   3.528   7.346   1.729
 9575TIP3   OH262259   5.032   6.681   0.669
 9575TIP3    H162260   5.023   6.778   0.676
 9575TIP3    H262261   4.949   6.659   0.625
 9576TIP3   OH262262   4.909   6.542   1.000
 9576TIP3    H162263   4.902   6.504   1.091
 9576TIP3    H262264   4.829   6.510   0.955
 9577TIP3   OH262265   4.113   6.556   1.169
 9577TIP3    H162266   4.115   6.478   1.226
 9577TIP3    H262267   4.208   6.575   1.156
 9578TIP3   OH262268   5.227   6.869   0.857
 9578TIP3    H162269   5.205   6.798   0.920
 9578TIP3    H262270   5.256   6.939   0.917
 9579TIP3   OH262271   4.230   7.008   1.014
 9579TIP3    H162272   4.190   6.926   0.979
 9579TIP3    H262273   4.322   6.992   0.989
 9580TIP3   OH262274   3.901   6.330   0.561
 9580TIP3    H162275   3.865   6.420   0.573
 9580TIP3    H262276   3.831   6.289   0.506
 9581TIP3   OH262277   3.943   6.578   0.808
 9581TIP3    H162278   3.982   6.492   0.835
 9581TIP3    H262279   4.020   6.637   0.802
 9582TIP3   OH262280   4.984   7.418   0.849
 9582TIP3    H162281   5.049   7.362   0.800
 9582TIP3    H262282   4.947   7.352   0.908
 9583TIP3   OH262283   4.708   6.835   1.107
 9583TIP3    H162284   4.735   6.819   1.015
 9583TIP3    H262285   4.796   6.845   1.149
 9584TIP3   OH262286   5.592   5.973   1.116
 9584TIP3    H162287   5.598   6.027   1.199
 9584TIP3    H262288   5.674   6.003   1.073
 9585TIP3   OH262289   5.086   6.270   1.111
 9585TIP3    H162290   5.103   6.177   1.130
 9585TIP3    H262291   5.075   6.266   1.013
 9586TIP3   OH262292   4.375   6.058   0.793
 9586TIP3    H162293   4.395   6.138   0.740
 9586TIP3    H262294   4.332   6.002   0.726
 9587TIP3   OH262295   5.120   6.091   0.662
 9587TIP3    H162296   5.176   6.054   0.735
 9587TIP3    H262297   5.183   6.154   0.621
 9588TIP3   OH262298   4.020   6.330   0.887
 9588TIP3    H162299   4.079   6.283   0.949
 9588TIP3    H262300   4.050   6.292   0.802
 9589TIP3   OH262301   4.503   6.473   0.828
 9589TIP3    H162302   4.587   6.428   0.853
 9589TIP3    H262303   4.473   6.408   0.761
 9590TIP3   OH262304   5.605   6.112   1.344
 9590TIP3    H162305   5.573   6.199   1.309
 9590TIP3    H262306   5.617   6.138   1.436
 9591TIP3   OH262307   4.294   5.984   1.215
 9591TIP3    H162308   4.246   6.032   1.145
 9591TIP3    H262309   4.229   5.991   1.288
 9592TIP3   OH262310   4.953   6.913   0.562
 9592TIP3    H162311   4.933   6.916   0.467
 9592TIP3    H262312   4.930   7.005   0.590
 9593TIP3   OH262313   4.471   6.742   1.207
 9593TIP3    H162314   4.418   6.811   1.253
 9593TIP3    H262315   4.553   6.790   1.181
 9594TIP3   OH262316   5.302   6.020   0.852
 9594TIP3    H162317   5.313   5.961   0.928
 9594TIP3    H262318   5.383   6.072   0.859
 9595TIP3   OH262319   4.224   6.168   1.017
 9595TIP3    H162320   4.287   6.232   1.057
 9595TIP3    H262321   4.272   6.143   0.935
 9596TIP3   OH262322   4.363   6.970   1.314
 9596TIP3    H162323   4.343   7.030   1.241
 9596TIP3    H262324   4.273   6.961   1.355
 9597TIP3   OH262325   3.939   6.902   0.382
 9597TIP3    H162326   3.949   6.951   0.298
 9597TIP3    H262327   3.962   6.973   0.446
 9598TIP3   OH262328   5.310   7.082   1.057
 9598TIP3    H162329   5.218   7.106   1.084
 9598TIP3    H262330   5.330   7.161   1.005
 9599TIP3   OH262331   5.313   5.907   1.197
 9599TIP3    H162332   5.234   5.933   1.143
 9599TIP3    H262333   5.386   5.951   1.150
 9600TIP3   OH262334   4.625   5.727   0.954
 9600TIP3    H162335   4.592   5.636   0.948
 9600TIP3    H262336   4.543   5.773   0.985
 9601TIP3   OH262337   5.153   7.249   0.726
 9601TIP3    H162338   5.178   7.168   0.676
 9601TIP3    H262339   5.228   7.309   0.704
 9602TIP3   OH262340   5.256   7.033   0.576
 9602TIP3    H162341   5.244   6.969   0.503
 9602TIP3    H262342   5.240   6.976   0.653
 9603TIP3   OH262343   5.417   6.900   1.450
 9603TIP3    H162344   5.437   6.823   1.392
 9603TIP3    H262345   5.432   6.973   1.387
 9604TIP3   OH262346   4.875   6.590   0.403
 9604TIP3    H162347   4.813   6.664   0.386
 9604TIP3    H262348   4.961   6.624   0.371
 9605TIP3   OH262349   4.878   6.492   0.132
 9605TIP3    H162350   4.932   6.512   0.211
 9605TIP3    H262351   4.921   6.415   0.095
 9606TIP3   OH262352   5.624   6.541   1.241
 9606TIP3    H162353   5.565   6.620   1.240
 9606TIP3    H262354   5.680   6.567   1.165
 9607TIP3   OH262355   5.263   6.644   0.539
 9607TIP3    H162356   5.182   6.656   0.594
 9607TIP3    H262357   5.316   6.584   0.596
 9608TIP3   OH262358   5.234   6.426   1.448
 9608TIP3    H162359   5.236   6.522   1.463
 9608TIP3    H262360   5.169   6.422   1.375
 9609TIP3   OH262361   4.367   6.654   0.685
 9609TIP3    H162362   4.357   6.611   0.597
 9609TIP3    H262363   4.430   6.594   0.731
 9610TIP3   OH262364   4.521   6.999   0.970
 9610TIP3    H162365   4.534   6.978   0.876
 9610TIP3    H262366   4.586   6.943   1.017
 9611TIP3   OH262367   4.396   6.535   1.068
 9611TIP3    H162368   4.439   6.528   0.979
 9611TIP3    H262369   4.447   6.607   1.112
 9612TIP3   OH262370   5.057   7.125   1.134
 9612TIP3    H162371   4.998   7.177   1.190
 9612TIP3    H262372   5.042   7.035   1.168
 9613TIP3   OH262373   4.508   6.999   1.546
 9613TIP3    H162374   4.443   7.059   1.588
 9613TIP3    H262375   4.467   6.989   1.457
 9614TIP3   OH262376   5.119   6.565   0.306
 9614TIP3    H162377   5.176   6.596   0.380
 9614TIP3    H262378   5.165   6.605   0.228
 9615TIP3   OH262379   4.223   6.589   1.465
 9615TIP3    H162380   4.238   6.657   1.534
 9615TIP3    H262381   4.126   6.582   1.467
 9616TIP3   OH262382   4.886   7.153   0.658
 9616TIP3    H162383   4.911   7.219   0.723
 9616TIP3    H262384   4.844   7.205   0.588
 9617TIP3   OH262385   4.337   7.177   1.628
 9617TIP3    H162386   4.334   7.206   1.535
 9617TIP3    H262387   4.245   7.148   1.642
 9618TIP3   OH262388   5.514   5.691   0.310
 9618TIP3    H162389   5.417   5.696   0.295
 9618TIP3    H262390   5.541   5.775   0.271
 9619TIP3   OH262391   4.278   6.550   0.425
 9619TIP3    H162392   4.231   6.631   0.398
 9619TIP3    H262393   4.212   6.481   0.412
 9620TIP3   OH262394   5.580   7.130   0.087
 9620TIP3    H162395   5.613   7.221   0.093
 9620TIP3    H262396   5.665   7.083   0.095
 9621TIP3   OH262397   3.912   6.826   1.374
 9621TIP3    H162398   3.878   6.812   1.285
 9621TIP3    H262399   3.953   6.737   1.389
 9622TIP3   OH262400   3.878   7.094   1.043
 9622TIP3    H162401   3.959   7.044   1.058
 9622TIP3    H262402   3.906   7.181   1.074
 9623TIP3   OH262403   5.683   7.162   1.588
 9623TIP3    H162404   5.667   7.066   1.589
 9623TIP3    H262405   5.599   7.193   1.632
 9624TIP3   OH262406   4.752   7.103   1.514
 9624TIP3    H162407   4.774   7.160   1.590
 9624TIP3    H262408   4.661   7.071   1.535
 9625TIP3   OH262409   4.829   7.485   0.430
 9625TIP3    H162410   4.839   7.510   0.335
 9625TIP3    H262411   4.832   7.573   0.473
 9626TIP3   OH262412   4.200   7.361   0.649
 9626TIP3    H162413   4.220   7.332   0.741
 9626TIP3    H262414   4.112   7.324   0.632
 9627TIP3   OH262415   5.135   7.426   0.152
 9627TIP3    H162416   5.192   7.351   0.125
 9627TIP3    H262417   5.138   7.419   0.250
 9628TIP3   OH262418   5.102   7.418   0.432
 9628TIP3    H162419   5.005   7.429   0.442
 9628TIP3    H262420   5.119   7.338   0.482
 9629TIP3   OH262421   5.373   6.300   1.658
 9629TIP3    H162422   5.326   6.335   1.579
 9629TIP3    H262423   5.402   6.210   1.630
 9630TIP3   OH262424   4.135   6.963   1.444
 9630TIP3    H162425   4.150   6.925   1.532
 9630TIP3    H262426   4.048   6.924   1.419
 9631TIP3   OH262427   4.396   5.818   1.039
 9631TIP3    H162428   4.304   5.807   1.006
 9631TIP3    H262429   4.380   5.877   1.116
 9632TIP3   OH262430   4.873   5.763   1.358
 9632TIP3    H162431   4.905   5.726   1.443
 9632TIP3    H262432   4.776   5.763   1.371
 9633TIP3   OH262433   5.169   6.165   1.499
 9633TIP3    H162434   5.110   6.141   1.576
 9633TIP3    H262435   5.170   6.262   1.504
 9634TIP3   OH262436   5.247   6.664   0.095
 9634TIP3    H162437   5.254   6.656  -0.001
 9634TIP3    H262438   5.322   6.723   0.114
 9635TIP3   OH262439   4.824   6.081   0.108
 9635TIP3    H162440   4.773   6.075   0.191
 9635TIP3    H262441   4.805   5.996   0.067
 9636TIP3   OH262442   4.402   6.293   1.178
 9636TIP3    H162443   4.322   6.290   1.234
 9636TIP3    H262444   4.395   6.384   1.141
 9637TIP3   OH262445   4.401   6.281   0.647
 9637TIP3    H162446   4.304   6.279   0.637
 9637TIP3    H262447   4.431   6.277   0.553
 9638TIP3   OH262448   4.964   6.375   0.533
 9638TIP3    H162449   4.930   6.455   0.487
 9638TIP3    H262450   5.021   6.340   0.462
 9639TIP3   OH262451   4.813   6.422   1.670
 9639TIP3    H162452   4.795   6.329   1.694
 9639TIP3    H262453   4.899   6.434   1.714
 9640TIP3   OH262454   5.058   6.309   0.832
 9640TIP3    H162455   5.041   6.395   0.791
 9640TIP3    H262456   5.048   6.251   0.754
 9641TIP3   OH262457   4.153   6.301   1.295
 9641TIP3    H162458   4.183   6.340   1.379
 9641TIP3    H262459   4.116   6.215   1.325
 9642TIP3   OH262460   4.473   6.087   0.072
 9642TIP3    H162461   4.444   6.019   0.136
 9642TIP3    H262462   4.447   6.169   0.118
 9643TIP3   OH262463   3.835   6.018   0.750
 9643TIP3    H162464   3.898   6.028   0.824
 9643TIP3    H262465   3.882   6.062   0.678
 9644TIP3   OH262466   3.927   6.091   0.259
 9644TIP3    H162467   3.997   6.124   0.199
 9644TIP3    H262468   3.875   6.174   0.270
 9645TIP3   OH262469   4.960   6.460   1.255
 9645TIP3    H162470   5.014   6.390   1.210
 9645TIP3    H262471   4.905   6.406   1.316
 9646TIP3   OH262472   4.688   6.045   0.740
 9646TIP3    H162473   4.597   6.045   0.774
 9646TIP3    H262474   4.741   6.020   0.819
 9647TIP3   OH262475   4.115   6.204   0.660
 9647TIP3    H162476   4.044   6.243   0.603
 9647TIP3    H262477   4.139   6.122   0.613
 9648TIP3   OH262478   4.473   6.239   0.379
 9648TIP3    H162479   4.569   6.250   0.386
 9648TIP3    H262480   4.449   6.290   0.298
 9649TIP3   OH262481   5.086   5.975   1.076
 9649TIP3    H162482   5.014   5.968   1.142
 9649TIP3    H262483   5.048   5.930   0.999
 9650TIP3   OH262484   4.390   6.347   0.145
 9650TIP3    H162485   4.332   6.331   0.069
 9650TIP3    H262486   4.468   6.390   0.104
 9651TIP3   OH262487   5.419   7.534   1.727
 9651TIP3    H162488   5.456   7.561   1.640
 9651TIP3    H262489   5.465   7.598   1.783
 9652TIP3   OH262490   4.187   6.784   1.673
 9652TIP3    H162491   4.236   6.839   1.737
 9652TIP3    H262492   4.100   6.771   1.716
 9653TIP3   OH262493   4.724   6.315   0.893
 9653TIP3    H162494   4.820   6.297   0.896
 9653TIP3    H262495   4.689   6.255   0.961
 9654TIP3   OH262496   4.219   5.955   0.580
 9654TIP3    H162497   4.179   5.885   0.637
 9654TIP3    H262498   4.261   5.900   0.512
 9655TIP3   OH262499   4.632   6.154   1.186
 9655TIP3    H162500   4.553   6.212   1.185
 9655TIP3    H262501   4.696   6.208   1.234
 9656TIP3   OH262502   4.703   6.795   0.386
 9656TIP3    H162503   4.628   6.744   0.345
 9656TIP3    H262504   4.662   6.822   0.472
 9657TIP3   OH262505   5.438   6.737   1.244
 9657TIP3    H162506   5.489   6.798   1.185
 9657TIP3    H262507   5.353   6.733   1.195
 9658TIP3   OH262508   5.083   6.087   0.162
 9658TIP3    H162509   4.995   6.104   0.123
 9658TIP3    H262510   5.102   6.170   0.209
 9659TIP3   OH262511   4.804   6.835   1.469
 9659TIP3    H162512   4.799   6.822   1.565
 9659TIP3    H262513   4.789   6.932   1.465
 9660TIP3   OH262514   5.154   6.290   0.338
 9660TIP3    H162515   5.217   6.270   0.409
 9660TIP3    H262516   5.185   6.377   0.307
 9661TIP3   OH262517   4.204   6.748   0.898
 9661TIP3    H162518   4.259   6.739   0.817
 9661TIP3    H262519   4.238   6.677   0.954
 9662TIP3   OH262520   4.906   6.922   0.277
 9662TIP3    H162521   4.869   7.008   0.303
 9662TIP3    H262522   4.833   6.862   0.306
 9663TIP3   OH262523   3.936   6.567   1.439
 9663TIP3    H162524   3.904   6.521   1.520
 9663TIP3    H262525   3.866   6.541   1.375
 9664TIP3   OH262526   4.576   6.544   1.641
 9664TIP3    H162527   4.542   6.486   1.570
 9664TIP3    H262528   4.670   6.515   1.643
 9665TIP3   OH262529   5.098   7.061   1.503
 9665TIP3    H162530   5.030   7.091   1.441
 9665TIP3    H262531   5.068   7.109   1.584
 9666TIP3   OH262532   5.637   6.275   0.322
 9666TIP3    H162533   5.572   6.273   0.249
 9666TIP3    H262534   5.656   6.371   0.321
 9667TIP3   OH262535   5.663   6.873   1.584
 9667TIP3    H162536   5.570   6.889   1.554
 9667TIP3    H262537   5.710   6.864   1.498
 9668TIP3   OH262538   5.446   7.177   0.334
 9668TIP3    H162539   5.434   7.088   0.371
 9668TIP3    H262540   5.484   7.161   0.246
 9669TIP3   OH262541   5.189   6.652   1.047
 9669TIP3    H162542   5.096   6.627   1.035
 9669TIP3    H262543   5.232   6.580   0.997
 9670TIP3   OH262544   4.436   7.091   0.655
 9670TIP3    H162545   4.451   7.186   0.634
 9670TIP3    H262546   4.350   7.081   0.612
 9671TIP3   OH262547   4.048   6.569   0.119
 9671TIP3    H162548   4.094   6.630   0.181
 9671TIP3    H262549   3.956   6.570   0.151
 9672TIP3   OH262550   4.572   6.854   0.616
 9672TIP3    H162551   4.529   6.941   0.627
 9672TIP3    H262552   4.514   6.793   0.665
 9673TIP3   OH262553   4.636   7.269   1.312
 9673TIP3    H162554   4.702   7.336   1.284
 9673TIP3    H262555   4.684   7.226   1.386
 9674TIP3   OH262556   4.458   7.343   0.569
 9674TIP3    H162557   4.362   7.355   0.586
 9674TIP3    H262558   4.490   7.427   0.610
 9675TIP3   OH262559   4.949   6.871   1.232
 9675TIP3    H162560   4.913   6.843   1.319
 9675TIP3    H262561   5.003   6.795   1.207
 9676TIP3   OH262562   5.215   7.013   0.176
 9676TIP3    H162563   5.258   6.957   0.245
 9676TIP3    H262564   5.129   6.968   0.173
 9677TIP3   OH262565   5.293   7.310   1.451
 9677TIP3    H162566   5.200   7.283   1.457
 9677TIP3    H262567   5.291   7.381   1.383
 9678TIP3   OH262568   5.662   7.408   0.165
 9678TIP3    H162569   5.705   7.482   0.119
 9678TIP3    H262570   5.590   7.458   0.211
 9679TIP3   OH262571   4.089   6.044   1.417
 9679TIP3    H162572   4.033   6.098   1.475
 9679TIP3    H262573   4.064   5.955   1.449
 9680TIP3   OH262574   5.305   6.840   0.365
 9680TIP3    H162575   5.278   6.770   0.430
 9680TIP3    H262576   5.401   6.840   0.379
 9681TIP3   OH262577   4.045   7.236   1.246
 9681TIP3    H162578   4.106   7.162   1.258
 9681TIP3    H262579   4.071   7.296   1.317
 9682TIP3   OH262580   4.503   7.033   0.241
 9682TIP3    H162581   4.570   6.990   0.297
 9682TIP3    H262582   4.518   7.129   0.262
 9683TIP3   OH262583   4.157   6.762   0.279
 9683TIP3    H162584   4.092   6.804   0.339
 9683TIP3    H262585   4.205   6.838   0.240
 9684TIP3   OH262586   4.950   6.034   1.354
 9684TIP3    H162587   5.034   6.047   1.401
 9684TIP3    H262588   4.923   5.945   1.382
 9685TIP3   OH262589   5.013   5.989   0.442
 9685TIP3    H162590   5.058   6.036   0.371
 9685TIP3    H262591   5.053   6.026   0.524
 9686TIP3   OH262592   4.810   7.172   0.344
 9686TIP3    H162593   4.745   7.243   0.355
 9686TIP3    H262594   4.868   7.209   0.274
 9687TIP3   OH262595   4.756   6.170   0.504
 9687TIP3    H162596   4.818   6.244   0.524
 9687TIP3    H262597   4.728   6.138   0.592
 9688TIP3   OH262598   4.839   6.285   1.417
 9688TIP3    H162599   4.836   6.307   1.513
 9688TIP3    H262600   4.874   6.193   1.413
 9689TIP3   OH262601   4.811   5.846   0.555
 9689TIP3    H162602   4.780   5.912   0.621
 9689TIP3    H262603   4.890   5.896   0.518
 9690TIP3   OH262604   4.531   7.295   0.304
 9690TIP3    H162605   4.559   7.381   0.267
 9690TIP3    H262606   4.496   7.325   0.390
 9691TIP3   OH262607   4.376   5.970   0.290
 9691TIP3    H162608   4.379   6.050   0.345
 9691TIP3    H262609   4.462   5.929   0.313
 9692TIP3   OH262610   5.414   6.064   1.537
 9692TIP3    H162611   5.318   6.072   1.515
 9692TIP3    H262612   5.452   6.053   1.448
 9693TIP3   OH262613   5.295   6.418   0.907
 9693TIP3    H162614   5.222   6.353   0.905
 9693TIP3    H262615   5.365   6.369   0.954
 9694TIP3   OH262616   4.230   7.015   0.147
 9694TIP3    H162617   4.310   7.042   0.197
 9694TIP3    H262618   4.272   6.963   0.077
 9695TIP3   OH262619   4.059   6.300   0.070
 9695TIP3    H162620   4.077   6.395   0.081
 9695TIP3    H262621   3.982   6.303   0.012
 9696TIP3   OH262622   5.376   7.358   1.065
 9696TIP3    H162623   5.394   7.430   1.000
 9696TIP3    H262624   5.467   7.332   1.084
 9697TIP3   OH262625   4.137   5.767   0.974
 9697TIP3    H162626   4.132   5.750   0.877
 9697TIP3    H262627   4.108   5.680   1.010
 9698TIP3   OH262628   3.993   7.151   0.535
 9698TIP3    H162629   3.919   7.193   0.581
 9698TIP3    H262630   4.003   7.215   0.460
 9699TIP3   OH262631   3.933   7.441   1.708
 9699TIP3    H162632   4.008   7.414   1.764
 9699TIP3    H262633   3.890   7.356   1.686
 9700TIP3   OH262634   4.417   7.308   1.851
 9700TIP3    H162635   4.511   7.284   1.858
 9700TIP3    H262636   4.397   7.270   1.763
 9701TIP3   OH262637   4.903   7.276   0.098
 9701TIP3    H162638   4.841   7.219   0.047
 9701TIP3    H262639   4.974   7.291   0.032
 9702TIP3   OH262640   5.049   7.201   1.729
 9702TIP3    H162641   5.016   7.118   1.772
 9702TIP3    H262642   5.135   7.209   1.775
 9703TIP3   OH262643   5.321   7.232   0.015
 9703TIP3    H162644   5.279   7.161   0.069
 9703TIP3    H262645   5.414   7.209   0.032
 9704TIP3   OH262646   3.941   6.780   1.803
 9704TIP3    H162647   3.906   6.690   1.797
 9704TIP3    H262648   3.862   6.828   1.772
 9705TIP3   OH262649   4.412   6.817   0.022
 9705TIP3    H162650   4.476   6.808   0.094
 9705TIP3    H262651   4.457   6.767  -0.050
 9706TIP3   OH262652   4.606   6.800   1.719
 9706TIP3    H162653   4.582   6.855   1.642
 9706TIP3    H262654   4.594   6.708   1.685
 9707TIP3   OH262655   5.163   6.787   1.486
 9707TIP3    H162656   5.251   6.831   1.491
 9707TIP3    H262657   5.110   6.869   1.495
 9708TIP3   OH262658   4.032   6.510   1.777
 9708TIP3    H162659   4.114   6.520   1.727
 9708TIP3    H262660   4.051   6.559   1.860
 9709TIP3   OH262661   4.511   6.651   0.254
 9709TIP3    H162662   4.436   6.601   0.292
 9709TIP3    H262663   4.545   6.587   0.188
 9710TIP3   OH262664   4.431   6.416   1.436
 9710TIP3    H162665   4.362   6.483   1.454
 9710TIP3    H262666   4.488   6.459   1.369
 9711TIP3   OH262667   4.626   6.458   0.045
 9711TIP3    H162668   4.656   6.463  -0.048
 9711TIP3    H262669   4.714   6.466   0.091
 9712TIP3   OH262670   4.957   6.698   1.805
 9712TIP3    H162671   5.010   6.647   1.742
 9712TIP3    H262672   4.929   6.629   1.870
 9713TIP3   OH262673   5.515   6.743   8.487
 9713TIP3    H162674   5.482   6.760   8.398
 9713TIP3    H262675   5.544   6.830   8.518
 9714TIP3   OH262676   4.490   6.188   1.555
 9714TIP3    H162677   4.498   6.118   1.488
 9714TIP3    H262678   4.487   6.271   1.500
 9715TIP3   OH262679   4.532   5.989   1.364
 9715TIP3    H162680   4.588   6.040   1.301
 9715TIP3    H262681   4.447   5.988   1.315
 9716TIP3   OH262682   4.628   6.569   1.326
 9716TIP3    H162683   4.712   6.613   1.312
 9716TIP3    H262684   4.564   6.640   1.301
 9717TIP3   OH262685   5.077   6.327   1.862
 9717TIP3    H162686   5.085   6.237   1.899
 9717TIP3    H262687   5.169   6.355   1.854
 9718TIP3   OH262688   5.246   6.635   1.697
 9718TIP3    H162689   5.207   6.683   1.621
 9718TIP3    H262690   5.339   6.623   1.668
 9719TIP3   OH262691   4.325   6.254   1.762
 9719TIP3    H162692   4.240   6.212   1.737
 9719TIP3    H262693   4.382   6.228   1.687
 9720TIP3   OH262694   4.602   5.733   1.353
 9720TIP3    H162695   4.571   5.826   1.361
 9720TIP3    H262696   4.520   5.687   1.325
 9721TIP3   OH262697   4.726   6.159   1.745
 9721TIP3    H162698   4.688   6.132   1.830
 9721TIP3    H262699   4.649   6.148   1.686
 9722TIP3   OH262700   4.980   6.099   1.672
 9722TIP3    H162701   4.887   6.106   1.699
 9722TIP3    H262702   5.016   6.042   1.743
 9723TIP3   OH262703   5.121   5.947   1.855
 9723TIP3    H162704   5.121   5.849   1.845
 9723TIP3    H262705   5.112   5.959   1.951
 9724TIP3   OH262706   4.109   6.084   1.752
 9724TIP3    H162707   4.114   5.994   1.717
 9724TIP3    H262708   4.091   6.075   1.847
 9725TIP3   OH262709   4.561   5.672   1.628
 9725TIP3    H162710   4.618   5.594   1.641
 9725TIP3    H262711   4.575   5.686   1.532
 9726TIP3   OH262712   4.578   5.890   1.799
 9726TIP3    H162713   4.593   5.809   1.747
 9726TIP3    H262714   4.488   5.910   1.771
 9727TIP3   OH262715   4.580   7.539   0.197
 9727TIP3    H162716   4.669   7.578   0.208
 9727TIP3    H262717   4.582   7.525   0.101
 9728TIP3   OH262718   3.930   6.994   0.103
 9728TIP3    H162719   4.028   6.997   0.112
 9728TIP3    H262720   3.923   6.958   0.013
 9729TIP3   OH262721   3.841   7.488   0.594
 9729TIP3    H162722   3.757   7.445   0.565
 9729TIP3    H262723   3.862   7.435   0.673
 9730TIP3   OH262724   3.909   7.326   0.807
 9730TIP3    H162725   3.847   7.263   0.850
 9730TIP3    H262726   3.961   7.357   0.884
 9731TIP3   OH262727   5.660   7.390   1.056
 9731TIP3    H162728   5.695   7.425   1.140
 9731TIP3    H262729   5.693   7.455   0.991
 9732TIP3   OH262730   5.607   7.350   1.374
 9732TIP3    H162731   5.569   7.280   1.318
 9732TIP3    H262732   5.635   7.295   1.450
 9733TIP3   OH262733   5.477   6.951   1.859
 9733TIP3    H162734   5.389   6.952   1.902
 9733TIP3    H262735   5.516   7.027   1.908
 9734TIP3   OH262736   5.581   6.784   0.380
 9734TIP3    H162737   5.666   6.831   0.395
 9734TIP3    H262738   5.583   6.718   0.454
 9735TIP3   OH262739   5.618   6.590   0.576
 9735TIP3    H162740   5.538   6.554   0.624
 9735TIP3    H262741   5.679   6.602   0.651
 9736TIP3   OH262742   5.594   6.867   1.074
 9736TIP3    H162743   5.660   6.801   1.044
 9736TIP3    H262744   5.643   6.951   1.062
 9737TIP3   OH262745   5.460   7.136   1.290
 9737TIP3    H162746   5.393   7.186   1.341
 9737TIP3    H262747   5.409   7.113   1.209
 9738TIP3   OH262748   5.642   6.561   0.200
 9738TIP3    H162749   5.575   6.581   0.132
 9738TIP3    H262750   5.619   6.627   0.268
 9739TIP3   OH262751   5.434   6.279   0.098
 9739TIP3    H162752   5.499   6.322   0.039
 9739TIP3    H262753   5.451   6.185   0.074
 9740TIP3   OH262754   5.408   6.461   0.672
 9740TIP3    H162755   5.394   6.372   0.638
 9740TIP3    H262756   5.382   6.450   0.767
 9741TIP3   OH262757   3.905   6.680   1.061
 9741TIP3    H162758   3.907   6.637   0.972
 9741TIP3    H262759   3.990   6.646   1.098
 9742TIP3   OH262760   5.520   6.636   1.623
 9742TIP3    H162761   5.564   6.549   1.615
 9742TIP3    H262762   5.591   6.701   1.604
 9743TIP3   OH262763   5.620   6.378   1.613
 9743TIP3    H162764   5.530   6.364   1.651
 9743TIP3    H262765   5.667   6.300   1.651
 9744TIP3   OH262766   5.417   6.038  -0.016
 9744TIP3    H162767   5.467   5.986   0.050
 9744TIP3    H262768   5.325   6.035   0.015
 9745TIP3   OH262769   5.355   6.213   0.511
 9745TIP3    H162770   5.384   6.124   0.541
 9745TIP3    H262771   5.408   6.220   0.430
 9746TIP3   OH262772   5.466   6.260   1.051
 9746TIP3    H162773   5.564   6.266   1.060
 9746TIP3    H262774   5.441   6.272   1.145
 9747TIP3   OH262775   5.462   6.332   1.318
 9747TIP3    H162776   5.385   6.359   1.371
 9747TIP3    H262777   5.507   6.419   1.302
 9748TIP3   OH262778   3.856   6.173   1.681
 9748TIP3    H162779   3.947   6.158   1.714
 9748TIP3    H262780   3.820   6.082   1.676
 9749TIP3   OH262781   5.693   5.768   1.831
 9749TIP3    H162782   5.726   5.695   1.777
 9749TIP3    H262783   5.674   5.838   1.765
 9750TIP3   OH262784   5.439   5.937   0.517
 9750TIP3    H162785   5.479   5.892   0.595
 9750TIP3    H262786   5.396   5.863   0.470
 9751TIP3   OH262787   3.997   6.005   0.995
 9751TIP3    H162788   4.037   5.915   0.994
 9751TIP3    H262789   4.076   6.062   1.005
 9752TIP3   OH262790   3.851   6.302   1.089
 9752TIP3    H162791   3.896   6.273   1.008
 9752TIP3    H262792   3.890   6.389   1.099
 9753TIP3   OH262793   5.637   5.923   1.623
 9753TIP3    H162794   5.550   5.964   1.641
 9753TIP3    H262795   5.612   5.865   1.548
 9754TIP3   OH262796   5.614   5.943   0.150
 9754TIP3    H162797   5.656   5.881   0.088
 9754TIP3    H262798   5.693   5.991   0.182
 9755TIP3   OH262799   3.848   5.908   0.446
 9755TIP3    H162800   3.760   5.935   0.476
 9755TIP3    H262801   3.866   5.972   0.374
 9756TIP3   OH262802   5.328   7.432   0.666
 9756TIP3    H162803   5.404   7.416   0.607
 9756TIP3    H262804   5.365   7.489   0.735
 9757TIP3   OH262805   3.858   5.785   1.300
 9757TIP3    H162806   3.804   5.749   1.372
 9757TIP3    H262807   3.799   5.850   1.258
 9758TIP3   OH262808   4.093   7.095   1.717
 9758TIP3    H162809   4.032   7.144   1.660
 9758TIP3    H262810   4.030   7.047   1.773
 9759TIP3   OH262811   4.371   7.264   1.366
 9759TIP3    H162812   4.370   7.358   1.337
 9759TIP3    H262813   4.462   7.242   1.340
 9760TIP3   OH262814   4.770   7.391   1.630
 9760TIP3    H162815   4.803   7.335   1.700
 9760TIP3    H262816   4.856   7.427   1.597
 9761TIP3   OH262817   4.995   7.535   1.566
 9761TIP3    H162818   5.065   7.510   1.503
 9761TIP3    H262819   5.047   7.556   1.647
 9762TIP3   OH262820   5.510   5.740   1.479
 9762TIP3    H162821   5.446   5.786   1.424
 9762TIP3    H262822   5.507   5.649   1.443
 9763TIP3   OH262823   4.107   7.551   1.325
 9763TIP3    H162824   4.032   7.608   1.298
 9763TIP3    H262825   4.098   7.550   1.422
 9764TIP3   OH262826   4.352   7.509   1.233
 9764TIP3    H162827   4.257   7.526   1.255
 9764TIP3    H262828   4.363   7.566   1.154
 9765TIP3   OH262829   4.805   7.462   1.166
 9765TIP3    H162830   4.753   7.505   1.097
 9765TIP3    H262831   4.825   7.539   1.224
 9766TIP3   OH262832   5.030   7.353   1.315
 9766TIP3    H162833   4.967   7.399   1.257
 9766TIP3    H262834   5.111   7.399   1.284
 9767TIP3   OH262835   5.267   7.501   1.258
 9767TIP3    H162836   5.285   7.596   1.242
 9767TIP3    H262837   5.303   7.463   1.175
 9768TIP3   OH262838   4.073   7.397   1.023
 9768TIP3    H162839   4.054   7.338   1.099
 9768TIP3    H262840   4.160   7.363   0.992
 9769TIP3   OH262841   4.284   7.286   0.903
 9769TIP3    H162842   4.274   7.192   0.930
 9769TIP3    H262843   4.371   7.304   0.944
 9770TIP3   OH262844   4.520   7.282   1.023
 9770TIP3    H162845   4.545   7.188   1.011
 9770TIP3    H262846   4.545   7.295   1.116
 9771TIP3   OH262847   4.843   5.887   0.920
 9771TIP3    H162848   4.759   5.850   0.951
 9771TIP3    H262849   4.879   5.810   0.872
 9772TIP3   OH262850   5.407   5.683   0.901
 9772TIP3    H162851   5.465   5.744   0.850
 9772TIP3    H262852   5.316   5.716   0.882
 9773TIP3   OH262853   5.559   5.801   0.719
 9773TIP3    H162854   5.621   5.740   0.672
 9773TIP3    H262855   5.618   5.877   0.740
 9774TIP3   OH262856   4.119   5.727   0.697
 9774TIP3    H162857   4.036   5.715   0.646
 9774TIP3    H262858   4.160   5.639   0.685
 9775TIP3   OH262859   3.969   5.723   0.245
 9775TIP3    H162860   4.027   5.785   0.195
 9775TIP3    H262861   3.926   5.782   0.310
 9776TIP3   OH262862   4.539   5.698   0.682
 9776TIP3    H162863   4.625   5.705   0.639
 9776TIP3    H262864   4.554   5.742   0.768
 9777TIP3   OH262865   5.149   5.744   0.822
 9777TIP3    H162866   5.122   5.774   0.735
 9777TIP3    H262867   5.095   5.662   0.833
 9778TIP3   OH262868   5.264   5.730   0.355
 9778TIP3    H162869   5.184   5.783   0.355
 9778TIP3    H262870   5.231   5.649   0.402
 9779TIP3   OH262871   3.973   7.336   0.345
 9779TIP3    H162872   3.884   7.337   0.305
 9779TIP3    H262873   3.994   7.430   0.329
 9780TIP3   OH262874   4.148   5.862   0.110
 9780TIP3    H162875   4.233   5.818   0.093
 9780TIP3    H262876   4.175   5.946   0.149
 9781TIP3   OH262877   4.666   5.969   0.352
 9781TIP3    H162878   4.709   5.905   0.411
 9781TIP3    H262879   4.694   6.052   0.398
 9782TIP3   OH262880   4.869   7.525   0.172
 9782TIP3    H162881   4.956   7.541   0.130
 9782TIP3    H262882   4.869   7.428   0.156
 9783TIP3   OH262883   5.514   7.369   0.492
 9783TIP3    H162884   5.493   7.293   0.432
 9783TIP3    H262885   5.508   7.441   0.426
 9784TIP3   OH262886   4.061   5.810   1.602
 9784TIP3    H162887   4.013   5.727   1.620
 9784TIP3    H262888   4.141   5.798   1.656
 9785TIP3   OH262889   4.293   5.783   1.813
 9785TIP3    H162890   4.375   5.743   1.778
 9785TIP3    H262891   4.249   5.706   1.854
 9786TIP3   OH262892   4.171   7.434   0.060
 9786TIP3    H162893   4.100   7.474   0.112
 9786TIP3    H262894   4.184   7.349   0.105
 9787TIP3   OH262895   5.136   5.673   1.840
 9787TIP3    H162896   5.146   5.605   1.907
 9787TIP3    H262897   5.220   5.661   1.789
 9788TIP3   OH262898   5.459   7.275   1.655
 9788TIP3    H162899   5.389   7.268   1.586
 9788TIP3    H262900   5.445   7.367   1.684
 9789TIP3   OH262901   6.901   6.675   0.669
 9789TIP3    H162902   6.886   6.770   0.653
 9789TIP3    H262903   6.827   6.636   0.621
 9790TIP3   OH262904   6.788   6.539   1.006
 9790TIP3    H162905   6.775   6.501   1.095
 9790TIP3    H262906   6.714   6.503   0.954
 9791TIP3   OH262907   6.005   6.550   1.180
 9791TIP3    H162908   6.016   6.470   1.235
 9791TIP3    H262909   6.096   6.569   1.153
 9792TIP3   OH262910   7.102   6.871   0.844
 9792TIP3    H162911   7.081   6.800   0.907
 9792TIP3    H262912   7.140   6.937   0.903
 9793TIP3   OH262913   6.122   7.008   1.011
 9793TIP3    H162914   6.079   6.926   0.981
 9793TIP3    H262915   6.213   6.992   0.984
 9794TIP3   OH262916   5.779   6.339   0.561
 9794TIP3    H162917   5.744   6.428   0.575
 9794TIP3    H262918   5.723   6.307   0.488
 9795TIP3   OH262919   5.836   6.588   0.816
 9795TIP3    H162920   5.875   6.500   0.836
 9795TIP3    H262921   5.913   6.647   0.804
 9796TIP3   OH262922   6.874   7.426   0.850
 9796TIP3    H162923   6.936   7.365   0.806
 9796TIP3    H262924   6.827   7.365   0.908
 9797TIP3   OH262925   6.600   6.838   1.101
 9797TIP3    H162926   6.627   6.809   1.012
 9797TIP3    H262927   6.688   6.852   1.142
 9798TIP3   OH262928   7.455   5.985   1.093
 9798TIP3    H162929   7.464   6.043   1.171
 9798TIP3    H262930   7.543   5.999   1.054
 9799TIP3   OH262931   6.961   6.285   1.125
 9799TIP3    H162932   6.990   6.193   1.139
 9799TIP3    H262933   6.933   6.283   1.032
 9800TIP3   OH262934   6.259   6.058   0.785
 9800TIP3    H162935   6.277   6.140   0.734
 9800TIP3    H262936   6.213   6.005   0.717
 9801TIP3   OH262937   7.010   6.095   0.670
 9801TIP3    H162938   7.072   6.060   0.738
 9801TIP3    H262939   7.065   6.160   0.624
 9802TIP3   OH262940   5.901   6.330   0.884
 9802TIP3    H162941   5.957   6.277   0.943
 9802TIP3    H262942   5.925   6.290   0.798
 9803TIP3   OH262943   6.396   6.480   0.829
 9803TIP3    H162944   6.475   6.434   0.864
 9803TIP3    H262945   6.372   6.415   0.761
 9804TIP3   OH262946   7.480   6.109   1.334
 9804TIP3    H162947   7.446   6.199   1.313
 9804TIP3    H262948   7.524   6.124   1.419
 9805TIP3   OH262949   6.173   5.975   1.206
 9805TIP3    H162950   6.125   6.026   1.136
 9805TIP3    H262951   6.111   5.984   1.281
 9806TIP3   OH262952   6.842   6.906   0.555
 9806TIP3    H162953   6.830   6.913   0.458
 9806TIP3    H262954   6.797   6.987   0.588
 9807TIP3   OH262955   6.366   6.742   1.200
 9807TIP3    H162956   6.313   6.817   1.235
 9807TIP3    H262957   6.446   6.790   1.167
 9808TIP3   OH262958   7.218   6.021   0.832
 9808TIP3    H162959   7.220   5.960   0.907
 9808TIP3    H262960   7.285   6.084   0.861
 9809TIP3   OH262961   6.108   6.163   1.009
 9809TIP3    H162962   6.169   6.229   1.051
 9809TIP3    H262963   6.159   6.141   0.928
 9810TIP3   OH262964   6.255   6.961   1.310
 9810TIP3    H162965   6.222   7.025   1.244
 9810TIP3    H262966   6.169   6.939   1.355
 9811TIP3   OH262967   5.824   6.906   0.390
 9811TIP3    H162968   5.837   6.958   0.308
 9811TIP3    H262969   5.839   6.972   0.461
 9812TIP3   OH262970   7.203   7.085   1.076
 9812TIP3    H162971   7.107   7.100   1.090
 9812TIP3    H262972   7.225   7.169   1.031
 9813TIP3   OH262973   7.202   5.894   1.191
 9813TIP3    H162974   7.122   5.905   1.136
 9813TIP3    H262975   7.271   5.933   1.135
 9814TIP3   OH262976   6.509   5.726   0.945
 9814TIP3    H162977   6.483   5.634   0.931
 9814TIP3    H262978   6.421   5.763   0.974
 9815TIP3   OH262979   7.032   7.258   0.721
 9815TIP3    H162980   7.060   7.176   0.674
 9815TIP3    H262981   7.113   7.314   0.708
 9816TIP3   OH262982   7.128   7.038   0.576
 9816TIP3    H162983   7.120   6.973   0.504
 9816TIP3    H262984   7.112   6.982   0.654
 9817TIP3   OH262985   7.301   6.903   1.449
 9817TIP3    H162986   7.323   6.831   1.385
 9817TIP3    H262987   7.310   6.980   1.390
 9818TIP3   OH262988   6.759   6.589   0.411
 9818TIP3    H162989   6.692   6.659   0.392
 9818TIP3    H262990   6.841   6.625   0.372
 9819TIP3   OH262991   6.764   6.490   0.129
 9819TIP3    H162992   6.821   6.506   0.207
 9819TIP3    H262993   6.806   6.414   0.087
 9820TIP3   OH262994   7.489   6.555   1.220
 9820TIP3    H162995   7.436   6.636   1.229
 9820TIP3    H262996   7.556   6.584   1.154
 9821TIP3   OH262997   7.145   6.637   0.533
 9821TIP3    H162998   7.067   6.650   0.592
 9821TIP3    H262999   7.200   6.577   0.588
 9822TIP3   OH263000   7.112   6.429   1.445
 9822TIP3    H163001   7.086   6.513   1.486
 9822TIP3    H263002   7.061   6.435   1.363
 9823TIP3   OH263003   6.242   6.652   0.684
 9823TIP3    H163004   6.239   6.613   0.595
 9823TIP3    H263005   6.308   6.597   0.730
 9824TIP3   OH263006   6.414   7.001   0.961
 9824TIP3    H163007   6.436   6.981   0.869
 9824TIP3    H263008   6.479   6.948   1.012
 9825TIP3   OH263009   6.272   6.539   1.065
 9825TIP3    H163010   6.315   6.531   0.977
 9825TIP3    H263011   6.327   6.608   1.109
 9826TIP3   OH263012   6.943   7.107   1.139
 9826TIP3    H163013   6.894   7.160   1.203
 9826TIP3    H263014   6.933   7.016   1.174
 9827TIP3   OH263015   6.394   6.985   1.544
 9827TIP3    H163016   6.319   7.040   1.576
 9827TIP3    H263017   6.365   6.973   1.450
 9828TIP3   OH263018   6.996   6.569   0.303
 9828TIP3    H163019   7.053   6.587   0.381
 9828TIP3    H263020   7.046   6.611   0.229
 9829TIP3   OH263021   6.111   6.561   1.462
 9829TIP3    H163022   6.132   6.637   1.519
 9829TIP3    H263023   6.014   6.565   1.468
 9830TIP3   OH263024   6.763   7.145   0.660
 9830TIP3    H163025   6.808   7.206   0.719
 9830TIP3    H263026   6.728   7.203   0.592
 9831TIP3   OH263027   6.219   7.162   1.618
 9831TIP3    H163028   6.215   7.203   1.528
 9831TIP3    H263029   6.125   7.134   1.629
 9832TIP3   OH263030   7.397   5.691   0.310
 9832TIP3    H163031   7.299   5.698   0.314
 9832TIP3    H263032   7.419   5.776   0.269
 9833TIP3   OH263033   6.159   6.555   0.420
 9833TIP3    H163034   6.114   6.638   0.393
 9833TIP3    H263035   6.087   6.491   0.423
 9834TIP3   OH263036   7.468   7.118   0.090
 9834TIP3    H163037   7.497   7.211   0.094
 9834TIP3    H263038   7.555   7.073   0.099
 9835TIP3   OH263039   5.785   6.832   1.349
 9835TIP3    H163040   5.740   6.831   1.263
 9835TIP3    H263041   5.825   6.743   1.346
 9836TIP3   OH263042   5.757   7.090   1.032
 9836TIP3    H163043   5.850   7.100   1.056
 9836TIP3    H263044   5.723   7.178   1.053
 9837TIP3   OH263045   7.581   7.146   1.592
 9837TIP3    H163046   7.566   7.052   1.574
 9837TIP3    H263047   7.495   7.168   1.634
 9838TIP3   OH263048   6.637   7.107   1.510
 9838TIP3    H163049   6.653   7.187   1.563
 9838TIP3    H263050   6.541   7.087   1.521
 9839TIP3   OH263051   6.734   7.483   0.429
 9839TIP3    H163052   6.730   7.504   0.333
 9839TIP3    H263053   6.727   7.572   0.469
 9840TIP3   OH263054   6.089   7.367   0.653
 9840TIP3    H163055   6.112   7.333   0.742
 9840TIP3    H263056   6.003   7.324   0.635
 9841TIP3   OH263057   7.019   7.425   0.155
 9841TIP3    H163058   7.079   7.352   0.134
 9841TIP3    H263059   7.021   7.422   0.253
 9842TIP3   OH263060   6.996   7.414   0.436
 9842TIP3    H163061   6.899   7.431   0.445
 9842TIP3    H263062   7.006   7.331   0.486
 9843TIP3   OH263063   7.264   6.290   1.638
 9843TIP3    H163064   7.209   6.335   1.570
 9843TIP3    H263065   7.279   6.200   1.602
 9844TIP3   OH263066   6.015   6.950   1.419
 9844TIP3    H163067   6.016   6.920   1.512
 9844TIP3    H263068   5.927   6.916   1.391
 9845TIP3   OH263069   6.275   5.807   1.031
 9845TIP3    H163070   6.183   5.805   1.000
 9845TIP3    H263071   6.264   5.864   1.110
 9846TIP3   OH263072   6.768   5.763   1.352
 9846TIP3    H163073   6.794   5.723   1.437
 9846TIP3    H263074   6.670   5.770   1.356
 9847TIP3   OH263075   7.027   6.148   1.503
 9847TIP3    H163076   6.969   6.113   1.575
 9847TIP3    H263077   7.006   6.243   1.502
 9848TIP3   OH263078   7.135   6.661   0.092
 9848TIP3    H163079   7.136   6.670  -0.004
 9848TIP3    H263080   7.216   6.710   0.114
 9849TIP3   OH263081   6.712   6.078   0.109
 9849TIP3    H163082   6.658   6.075   0.190
 9849TIP3    H263083   6.686   5.995   0.065
 9850TIP3   OH263084   6.290   6.289   1.159
 9850TIP3    H163085   6.212   6.291   1.218
 9850TIP3    H263086   6.287   6.379   1.121
 9851TIP3   OH263087   6.288   6.284   0.646
 9851TIP3    H163088   6.191   6.290   0.636
 9851TIP3    H263089   6.317   6.266   0.554
 9852TIP3   OH263090   6.850   6.374   0.535
 9852TIP3    H163091   6.815   6.455   0.490
 9852TIP3    H263092   6.906   6.338   0.463
 9853TIP3   OH263093   6.713   6.413   1.656
 9853TIP3    H163094   6.689   6.323   1.688
 9853TIP3    H263095   6.783   6.434   1.719
 9854TIP3   OH263096   6.933   6.319   0.844
 9854TIP3    H163097   6.919   6.396   0.787
 9854TIP3    H263098   6.924   6.247   0.779
 9855TIP3   OH263099   6.048   6.295   1.294
 9855TIP3    H163100   6.068   6.330   1.383
 9855TIP3    H263101   6.008   6.209   1.315
 9856TIP3   OH263102   6.352   6.084   0.069
 9856TIP3    H163103   6.331   6.014   0.134
 9856TIP3    H263104   6.333   6.165   0.121
 9857TIP3   OH263105   5.715   6.019   0.744
 9857TIP3    H163106   5.789   6.033   0.806
 9857TIP3    H263107   5.761   6.009   0.660
 9858TIP3   OH263108   5.822   6.084   0.260
 9858TIP3    H163109   5.887   6.120   0.197
 9858TIP3    H263110   5.768   6.165   0.277
 9859TIP3   OH263111   6.835   6.481   1.265
 9859TIP3    H163112   6.891   6.415   1.218
 9859TIP3    H263113   6.779   6.420   1.319
 9860TIP3   OH263114   6.571   6.044   0.741
 9860TIP3    H163115   6.477   6.042   0.763
 9860TIP3    H263116   6.615   6.022   0.825
 9861TIP3   OH263117   5.998   6.206   0.659
 9861TIP3    H163118   5.926   6.241   0.602
 9861TIP3    H263119   6.025   6.124   0.614
 9862TIP3   OH263120   6.364   6.230   0.386
 9862TIP3    H163121   6.460   6.244   0.391
 9862TIP3    H263122   6.336   6.284   0.309
 9863TIP3   OH263123   6.982   5.980   1.065
 9863TIP3    H163124   6.917   5.988   1.139
 9863TIP3    H263125   6.934   5.930   0.997
 9864TIP3   OH263126   6.283   6.333   0.148
 9864TIP3    H163127   6.221   6.324   0.073
 9864TIP3    H263128   6.357   6.383   0.107
 9865TIP3   OH263129   7.286   7.516   1.739
 9865TIP3    H163130   7.327   7.557   1.660
 9865TIP3    H263131   7.349   7.541   1.807
 9866TIP3   OH263132   6.057   6.788   1.646
 9866TIP3    H163133   6.125   6.820   1.711
 9866TIP3    H263134   5.977   6.788   1.703
 9867TIP3   OH263135   6.620   6.330   0.907
 9867TIP3    H163136   6.713   6.306   0.891
 9867TIP3    H263137   6.592   6.268   0.976
 9868TIP3   OH263138   6.103   5.956   0.582
 9868TIP3    H163139   6.067   5.881   0.634
 9868TIP3    H263140   6.144   5.910   0.506
 9869TIP3   OH263141   6.519   6.154   1.181
 9869TIP3    H163142   6.440   6.213   1.177
 9869TIP3    H263143   6.584   6.209   1.228
 9870TIP3   OH263144   6.584   6.790   0.388
 9870TIP3    H163145   6.508   6.742   0.348
 9870TIP3    H263146   6.543   6.820   0.473
 9871TIP3   OH263147   7.316   6.756   1.232
 9871TIP3    H163148   7.368   6.813   1.170
 9871TIP3    H263149   7.234   6.744   1.182
 9872TIP3   OH263150   6.972   6.087   0.161
 9872TIP3    H163151   6.883   6.099   0.122
 9872TIP3    H263152   6.982   6.170   0.209
 9873TIP3   OH263153   6.699   6.844   1.466
 9873TIP3    H163154   6.686   6.805   1.553
 9873TIP3    H263155   6.666   6.936   1.479
 9874TIP3   OH263156   7.032   6.293   0.342
 9874TIP3    H163157   7.101   6.271   0.407
 9874TIP3    H263158   7.068   6.374   0.303
 9875TIP3   OH263159   6.091   6.747   0.902
 9875TIP3    H163160   6.144   6.739   0.821
 9875TIP3    H263161   6.130   6.677   0.957
 9876TIP3   OH263162   6.794   6.925   0.280
 9876TIP3    H163163   6.752   7.011   0.301
 9876TIP3    H263164   6.722   6.864   0.308
 9877TIP3   OH263165   5.803   6.557   1.460
 9877TIP3    H163166   5.773   6.502   1.535
 9877TIP3    H263167   5.745   6.524   1.388
 9878TIP3   OH263168   6.475   6.538   1.640
 9878TIP3    H163169   6.430   6.488   1.569
 9878TIP3    H263170   6.564   6.497   1.639
 9879TIP3   OH263171   6.988   7.062   1.499
 9879TIP3    H163172   6.909   7.082   1.447
 9879TIP3    H263173   6.969   7.117   1.578
 9880TIP3   OH263174   7.518   6.278   0.327
 9880TIP3    H163175   7.459   6.271   0.249
 9880TIP3    H263176   7.536   6.375   0.322
 9881TIP3   OH263177   7.547   6.861   1.580
 9881TIP3    H163178   7.456   6.882   1.549
 9881TIP3    H263179   7.595   6.848   1.494
 9882TIP3   OH263180   7.345   7.165   0.330
 9882TIP3    H163181   7.320   7.080   0.368
 9882TIP3    H263182   7.384   7.144   0.243
 9883TIP3   OH263183   7.081   6.657   1.045
 9883TIP3    H163184   6.989   6.625   1.040
 9883TIP3    H263185   7.127   6.585   0.997
 9884TIP3   OH263186   6.323   7.093   0.646
 9884TIP3    H163187   6.337   7.189   0.633
 9884TIP3    H263188   6.236   7.083   0.606
 9885TIP3   OH263189   5.932   6.562   0.124
 9885TIP3    H163190   5.968   6.633   0.181
 9885TIP3    H263191   5.836   6.567   0.140
 9886TIP3   OH263192   6.461   6.858   0.619
 9886TIP3    H163193   6.415   6.946   0.624
 9886TIP3    H263194   6.405   6.800   0.673
 9887TIP3   OH263195   6.531   7.278   1.302
 9887TIP3    H163196   6.592   7.345   1.264
 9887TIP3    H263197   6.588   7.235   1.368
 9888TIP3   OH263198   6.350   7.350   0.574
 9888TIP3    H163199   6.254   7.361   0.592
 9888TIP3    H263200   6.383   7.433   0.615
 9889TIP3   OH263201   6.842   6.860   1.235
 9889TIP3    H163202   6.804   6.839   1.323
 9889TIP3    H263203   6.874   6.773   1.206
 9890TIP3   OH263204   7.099   7.012   0.178
 9890TIP3    H163205   7.138   6.954   0.246
 9890TIP3    H263206   7.010   6.972   0.174
 9891TIP3   OH263207   7.171   7.312   1.460
 9891TIP3    H163208   7.083   7.279   1.435
 9891TIP3    H263209   7.183   7.383   1.391
 9892TIP3   OH263210   7.546   7.408   0.176
 9892TIP3    H163211   7.593   7.470   0.118
 9892TIP3    H263212   7.478   7.466   0.216
 9893TIP3   OH263213   5.979   6.032   1.412
 9893TIP3    H163214   5.929   6.089   1.473
 9893TIP3    H263215   5.956   5.944   1.447
 9894TIP3   OH263216   7.189   6.838   0.368
 9894TIP3    H163217   7.171   6.756   0.420
 9894TIP3    H263218   7.286   6.845   0.381
 9895TIP3   OH263219   5.937   7.226   1.234
 9895TIP3    H163220   6.006   7.160   1.243
 9895TIP3    H263221   5.927   7.257   1.325
 9896TIP3   OH263222   6.388   7.034   0.245
 9896TIP3    H163223   6.454   6.989   0.300
 9896TIP3    H263224   6.407   7.129   0.265
 9897TIP3   OH263225   6.037   6.762   0.282
 9897TIP3    H163226   5.971   6.807   0.340
 9897TIP3    H263227   6.088   6.836   0.245
 9898TIP3   OH263228   6.864   6.027   1.316
 9898TIP3    H163229   6.928   6.049   1.387
 9898TIP3    H263230   6.824   5.944   1.350
 9899TIP3   OH263231   6.908   5.982   0.441
 9899TIP3    H163232   6.943   6.039   0.372
 9899TIP3    H263233   6.964   6.003   0.517
 9900TIP3   OH263234   6.688   7.167   0.343
 9900TIP3    H163235   6.622   7.236   0.358
 9900TIP3    H263236   6.740   7.207   0.269
 9901TIP3   OH263237   6.644   6.171   0.496
 9901TIP3    H163238   6.705   6.244   0.516
 9901TIP3    H263239   6.621   6.133   0.583
 9902TIP3   OH263240   6.710   6.295   1.407
 9902TIP3    H163241   6.710   6.345   1.492
 9902TIP3    H263242   6.735   6.205   1.434
 9903TIP3   OH263243   6.695   5.851   0.554
 9903TIP3    H163244   6.670   5.912   0.626
 9903TIP3    H263245   6.776   5.897   0.520
 9904TIP3   OH263246   6.423   7.294   0.308
 9904TIP3    H163247   6.449   7.380   0.268
 9904TIP3    H263248   6.387   7.327   0.393
 9905TIP3   OH263249   6.261   5.971   0.298
 9905TIP3    H163250   6.268   6.056   0.345
 9905TIP3    H263251   6.347   5.932   0.322
 9906TIP3   OH263252   7.282   6.047   1.513
 9906TIP3    H163253   7.187   6.058   1.494
 9906TIP3    H263254   7.323   6.063   1.426
 9907TIP3   OH263255   7.181   6.428   0.909
 9907TIP3    H163256   7.102   6.372   0.916
 9907TIP3    H263257   7.249   6.375   0.956
 9908TIP3   OH263258   6.116   7.015   0.156
 9908TIP3    H163259   6.199   7.040   0.201
 9908TIP3    H263260   6.153   6.962   0.084
 9909TIP3   OH263261   5.949   6.290   0.066
 9909TIP3    H163262   5.968   6.382   0.090
 9909TIP3    H263263   5.867   6.300   0.017
 9910TIP3   OH263264   7.277   7.357   1.063
 9910TIP3    H163265   7.282   7.438   1.006
 9910TIP3    H263266   7.373   7.341   1.073
 9911TIP3   OH263267   6.021   5.768   0.968
 9911TIP3    H163268   6.016   5.753   0.871
 9911TIP3    H263269   5.999   5.678   0.999
 9912TIP3   OH263270   5.885   7.164   0.548
 9912TIP3    H163271   5.803   7.200   0.585
 9912TIP3    H263272   5.891   7.218   0.466
 9913TIP3   OH263273   5.824   7.446   1.696
 9913TIP3    H163274   5.910   7.426   1.737
 9913TIP3    H263275   5.786   7.357   1.682
 9914TIP3   OH263276   6.317   7.292   1.845
 9914TIP3    H163277   6.411   7.272   1.857
 9914TIP3    H263278   6.297   7.256   1.756
 9915TIP3   OH263279   6.797   7.265   0.109
 9915TIP3    H163280   6.732   7.217   0.053
 9915TIP3    H263281   6.863   7.292   0.043
 9916TIP3   OH263282   6.931   7.181   1.736
 9916TIP3    H163283   6.919   7.090   1.765
 9916TIP3    H263284   7.018   7.203   1.779
 9917TIP3   OH263285   7.210   7.226   0.034
 9917TIP3    H163286   7.159   7.155   0.078
 9917TIP3    H263287   7.300   7.197   0.061
 9918TIP3   OH263288   5.811   6.795   1.795
 9918TIP3    H163289   5.776   6.703   1.794
 9918TIP3    H263290   5.764   6.832   1.717
 9919TIP3   OH263291   6.293   6.823   0.022
 9919TIP3    H163292   6.359   6.814   0.093
 9919TIP3    H263293   6.335   6.767  -0.047
 9920TIP3   OH263294   6.491   6.799   1.710
 9920TIP3    H163295   6.460   6.858   1.638
 9920TIP3    H263296   6.494   6.710   1.667
 9921TIP3   OH263297   7.050   6.783   1.493
 9921TIP3    H163298   7.137   6.828   1.485
 9921TIP3    H263299   6.996   6.863   1.493
 9922TIP3   OH263300   5.899   6.490   1.768
 9922TIP3    H163301   5.967   6.462   1.704
 9922TIP3    H263302   5.951   6.547   1.827
 9923TIP3   OH263303   6.395   6.645   0.253
 9923TIP3    H163304   6.318   6.598   0.290
 9923TIP3    H263305   6.430   6.581   0.187
 9924TIP3   OH263306   6.353   6.400   1.423
 9924TIP3    H163307   6.273   6.456   1.432
 9924TIP3    H263308   6.407   6.455   1.361
 9925TIP3   OH263309   6.506   6.459   0.049
 9925TIP3    H163310   6.530   6.472  -0.044
 9925TIP3    H263311   6.595   6.465   0.092
 9926TIP3   OH263312   6.842   6.714   1.816
 9926TIP3    H163313   6.897   6.675   1.746
 9926TIP3    H263314   6.806   6.637   1.863
 9927TIP3   OH263315   7.402   6.741   8.485
 9927TIP3    H163316   7.366   6.752   8.395
 9927TIP3    H263317   7.428   6.831   8.509
 9928TIP3   OH263318   6.369   6.176   1.554
 9928TIP3    H163319   6.369   6.101   1.491
 9928TIP3    H263320   6.377   6.253   1.493
 9929TIP3   OH263321   6.397   5.991   1.350
 9929TIP3    H163322   6.445   6.037   1.277
 9929TIP3    H263323   6.308   5.983   1.309
 9930TIP3   OH263324   6.529   6.575   1.322
 9930TIP3    H163325   6.612   6.620   1.301
 9930TIP3    H263326   6.463   6.644   1.294
 9931TIP3   OH263327   6.991   6.288   1.838
 9931TIP3    H163328   7.057   6.222   1.812
 9931TIP3    H263329   7.049   6.364   1.851
 9932TIP3   OH263330   7.123   6.606   1.701
 9932TIP3    H163331   7.097   6.662   1.625
 9932TIP3    H263332   7.218   6.595   1.682
 9933TIP3   OH263333   6.132   6.313   1.714
 9933TIP3    H163334   6.109   6.226   1.750
 9933TIP3    H263335   6.211   6.294   1.663
 9934TIP3   OH263336   6.497   5.745   1.331
 9934TIP3    H163337   6.455   5.833   1.345
 9934TIP3    H263338   6.420   5.690   1.310
 9935TIP3   OH263339   6.585   6.172   1.743
 9935TIP3    H163340   6.529   6.193   1.819
 9935TIP3    H263341   6.517   6.155   1.674
 9936TIP3   OH263342   6.850   6.071   1.677
 9936TIP3    H163343   6.757   6.081   1.703
 9936TIP3    H263344   6.885   6.018   1.751
 9937TIP3   OH263345   7.007   5.932   1.864
 9937TIP3    H163346   7.012   5.836   1.845
 9937TIP3    H263347   7.001   5.931   1.961
 9938TIP3   OH263348   5.995   6.063   1.772
 9938TIP3    H163349   5.977   5.977   1.729
 9938TIP3    H263350   5.960   6.051   1.862
 9939TIP3   OH263351   6.498   5.730   1.619
 9939TIP3    H163352   6.565   5.659   1.621
 9939TIP3    H263353   6.488   5.744   1.524
 9940TIP3   OH263354   6.479   5.836   1.877
 9940TIP3    H163355   6.495   5.776   1.801
 9940TIP3    H263356   6.396   5.877   1.849
 9941TIP3   OH263357   6.464   7.533   0.190
 9941TIP3    H163358   6.546   7.583   0.207
 9941TIP3    H263359   6.473   7.518   0.094
 9942TIP3   OH263360   5.813   6.996   0.101
 9942TIP3    H163361   5.910   6.997   0.113
 9942TIP3    H263362   5.809   6.959   0.011
 9943TIP3   OH263363   5.712   7.504   0.608
 9943TIP3    H163364   5.637   7.449   0.574
 9943TIP3    H263365   5.746   7.445   0.678
 9944TIP3   OH263366   5.796   7.326   0.804
 9944TIP3    H163367   5.735   7.260   0.840
 9944TIP3    H263368   5.856   7.345   0.880
 9945TIP3   OH263369   7.557   7.398   1.059
 9945TIP3    H163370   7.572   7.407   1.154
 9945TIP3    H263371   7.595   7.480   1.026
 9946TIP3   OH263372   7.491   7.363   1.372
 9946TIP3    H163373   7.457   7.285   1.323
 9946TIP3    H263374   7.522   7.319   1.453
 9947TIP3   OH263375   7.393   6.945   1.872
 9947TIP3    H163376   7.305   6.966   1.909
 9947TIP3    H263377   7.433   7.034   1.866
 9948TIP3   OH263378   7.468   6.791   0.375
 9948TIP3    H163379   7.552   6.838   0.395
 9948TIP3    H263380   7.467   6.727   0.450
 9949TIP3   OH263381   7.495   6.603   0.586
 9949TIP3    H163382   7.422   6.560   0.635
 9949TIP3    H263383   7.563   6.614   0.655
 9950TIP3   OH263384   7.484   6.859   1.063
 9950TIP3    H163385   7.545   6.786   1.039
 9950TIP3    H263386   7.535   6.938   1.035
 9951TIP3   OH263387   7.352   7.135   1.306
 9951TIP3    H163388   7.285   7.178   1.361
 9951TIP3    H263389   7.300   7.113   1.224
 9952TIP3   OH263390   7.503   6.557   0.214
 9952TIP3    H163391   7.453   6.584   0.136
 9952TIP3    H263392   7.486   6.632   0.275
 9953TIP3   OH263393   7.320   6.285   0.090
 9953TIP3    H163394   7.392   6.328   0.038
 9953TIP3    H263395   7.338   6.191   0.066
 9954TIP3   OH263396   7.293   6.454   0.665
 9954TIP3    H163397   7.281   6.361   0.637
 9954TIP3    H263398   7.271   6.447   0.761
 9955TIP3   OH263399   5.788   6.666   1.077
 9955TIP3    H163400   5.800   6.639   0.983
 9955TIP3    H263401   5.875   6.637   1.114
 9956TIP3   OH263402   7.402   6.625   1.619
 9956TIP3    H163403   7.452   6.542   1.642
 9956TIP3    H263404   7.472   6.692   1.605
 9957TIP3   OH263405   7.519   6.378   1.643
 9957TIP3    H163406   7.434   6.337   1.670
 9957TIP3    H263407   7.580   6.301   1.649
 9958TIP3   OH263408   7.298   6.038  -0.020
 9958TIP3    H163409   7.353   5.991   0.047
 9958TIP3    H263410   7.207   6.033   0.013
 9959TIP3   OH263411   7.241   6.219   0.504
 9959TIP3    H163412   7.273   6.133   0.538
 9959TIP3    H263413   7.298   6.223   0.424
 9960TIP3   OH263414   7.346   6.262   1.039
 9960TIP3    H163415   7.445   6.270   1.039
 9960TIP3    H263416   7.329   6.272   1.134
 9961TIP3   OH263417   7.344   6.334   1.308
 9961TIP3    H163418   7.268   6.353   1.366
 9961TIP3    H263419   7.378   6.424   1.289
 9962TIP3   OH263420   5.737   6.156   1.700
 9962TIP3    H163421   5.830   6.145   1.727
 9962TIP3    H263422   5.711   6.064   1.676
 9963TIP3   OH263423   7.579   5.758   1.817
 9963TIP3    H163424   7.612   5.681   1.768
 9963TIP3    H263425   7.571   5.825   1.745
 9964TIP3   OH263426   7.336   5.953   0.514
 9964TIP3    H163427   7.361   5.901   0.594
 9964TIP3    H263428   7.285   5.886   0.466
 9965TIP3   OH263429   5.883   6.001   1.000
 9965TIP3    H163430   5.926   5.913   0.994
 9965TIP3    H263431   5.959   6.061   0.996
 9966TIP3   OH263432   5.728   6.300   1.081
 9966TIP3    H163433   5.772   6.275   0.997
 9966TIP3    H263434   5.777   6.381   1.101
 9967TIP3   OH263435   7.533   5.943   1.632
 9967TIP3    H163436   7.456   5.973   1.685
 9967TIP3    H263437   7.486   5.900   1.558
 9968TIP3   OH263438   7.507   5.948   0.141
 9968TIP3    H163439   7.552   5.879   0.090
 9968TIP3    H263440   7.583   6.002   0.170
 9969TIP3   OH263441   5.739   5.916   0.459
 9969TIP3    H163442   5.643   5.906   0.464
 9969TIP3    H263443   5.751   5.974   0.381
 9970TIP3   OH263444   7.226   7.437   0.689
 9970TIP3    H163445   7.290   7.419   0.618
 9970TIP3    H263446   7.271   7.502   0.746
 9971TIP3   OH263447   5.737   5.782   1.294
 9971TIP3    H163448   5.674   5.734   1.350
 9971TIP3    H263449   5.682   5.851   1.253
 9972TIP3   OH263450   5.956   7.097   1.676
 9972TIP3    H163451   5.884   7.143   1.631
 9972TIP3    H263452   5.919   7.086   1.764
 9973TIP3   OH263453   6.264   7.265   1.362
 9973TIP3    H163454   6.264   7.354   1.320
 9973TIP3    H263455   6.358   7.241   1.349
 9974TIP3   OH263456   6.662   7.370   1.612
 9974TIP3    H163457   6.682   7.347   1.705
 9974TIP3    H263458   6.747   7.413   1.588
 9975TIP3   OH263459   6.899   7.506   1.563
 9975TIP3    H163460   6.976   7.463   1.523
 9975TIP3    H263461   6.939   7.550   1.641
 9976TIP3   OH263462   7.416   5.734   1.472
 9976TIP3    H163463   7.334   5.764   1.429
 9976TIP3    H263464   7.427   5.643   1.438
 9977TIP3   OH263465   6.003   7.572   1.312
 9977TIP3    H163466   5.936   7.629   1.270
 9977TIP3    H263467   5.982   7.585   1.406
 9978TIP3   OH263468   6.254   7.510   1.236
 9978TIP3    H163469   6.160   7.527   1.262
 9978TIP3    H263470   6.260   7.565   1.156
 9979TIP3   OH263471   6.697   7.464   1.163
 9979TIP3    H163472   6.643   7.508   1.097
 9979TIP3    H263473   6.721   7.540   1.220
 9980TIP3   OH263474   6.912   7.341   1.303
 9980TIP3    H163475   6.847   7.375   1.240
 9980TIP3    H263476   6.985   7.403   1.282
 9981TIP3   OH263477   7.161   7.495   1.259
 9981TIP3    H163478   7.182   7.584   1.225
 9981TIP3    H263479   7.201   7.440   1.187
 9982TIP3   OH263480   5.964   7.392   1.018
 9982TIP3    H163481   5.938   7.340   1.097
 9982TIP3    H263482   6.051   7.353   0.997
 9983TIP3   OH263483   6.181   7.283   0.903
 9983TIP3    H163484   6.176   7.189   0.930
 9983TIP3    H263485   6.263   7.307   0.951
 9984TIP3   OH263486   6.404   7.287   1.044
 9984TIP3    H163487   6.439   7.198   1.022
 9984TIP3    H263488   6.427   7.294   1.138
 9985TIP3   OH263489   6.760   5.869   0.896
 9985TIP3    H163490   6.678   5.857   0.945
 9985TIP3    H263491   6.785   5.777   0.879
 9986TIP3   OH263492   7.295   5.681   0.901
 9986TIP3    H163493   7.349   5.741   0.845
 9986TIP3    H263494   7.204   5.716   0.889
 9987TIP3   OH263495   7.441   5.805   0.720
 9987TIP3    H163496   7.508   5.748   0.674
 9987TIP3    H263497   7.499   5.878   0.751
 9988TIP3   OH263498   5.995   5.719   0.703
 9988TIP3    H163499   5.916   5.709   0.646
 9988TIP3    H263500   6.043   5.635   0.683
 9989TIP3   OH263501   5.855   5.721   0.244
 9989TIP3    H163502   5.914   5.783   0.195
 9989TIP3    H263503   5.817   5.777   0.313
 9990TIP3   OH263504   6.420   5.705   0.671
 9990TIP3    H163505   6.505   5.730   0.633
 9990TIP3    H263506   6.421   5.752   0.755
 9991TIP3   OH263507   7.048   5.744   0.821
 9991TIP3    H163508   7.014   5.780   0.739
 9991TIP3    H263509   6.985   5.670   0.839
 9992TIP3   OH263510   7.148   5.730   0.368
 9992TIP3    H163511   7.064   5.776   0.357
 9992TIP3    H263512   7.116   5.646   0.409
 9993TIP3   OH263513   5.853   7.336   0.347
 9993TIP3    H163514   5.765   7.338   0.304
 9993TIP3    H263515   5.876   7.430   0.330
 9994TIP3   OH263516   6.031   5.863   0.110
 9994TIP3    H163517   6.116   5.816   0.100
 9994TIP3    H263518   6.060   5.951   0.138
 9995TIP3   OH263519   6.550   5.974   0.347
 9995TIP3    H163520   6.596   5.912   0.406
 9995TIP3    H263521   6.581   6.057   0.391
 9996TIP3   OH263522   6.755   7.523   0.167
 9996TIP3    H163523   6.843   7.540   0.129
 9996TIP3    H263524   6.756   7.425   0.156
 9997TIP3   OH263525   7.394   7.372   0.492
 9997TIP3    H163526   7.381   7.298   0.428
 9997TIP3    H263527   7.395   7.447   0.428
 9998TIP3   OH263528   5.951   5.809   1.609
 9998TIP3    H163529   5.906   5.725   1.628
 9998TIP3    H263530   6.033   5.800   1.662
 9999TIP3   OH263531   6.162   5.745   1.805
 9999TIP3    H163532   6.246   5.707   1.775
 9999TIP3    H263533   6.112   5.664   1.824
10000TIP3   OH263534   6.054   7.440   0.061
10000TIP3    H163535   5.978   7.476   0.109
10000TIP3    H263536   6.072   7.357   0.107
10001TIP3   OH263537   7.052   5.659   1.848
10001TIP3    H163538   7.086   5.621   1.931
10001TIP3    H263539   7.131   5.649   1.789
10002TIP3   OH263540   7.346   7.253   1.656
10002TIP3    H163541   7.276   7.254   1.587
10002TIP3    H263542   7.337   7.344   1.688
10003TIP3   OH263543   8.819   6.682   0.665
10003TIP3    H163544   8.805   6.779   0.656
10003TIP3    H263545   8.736   6.648   0.627
10004TIP3   OH263546   8.660   6.545   0.990
10004TIP3    H163547   8.681   6.513   1.079
10004TIP3    H263548   8.591   6.485   0.956
10005TIP3   OH263549   7.890   6.563   1.177
10005TIP3    H163550   7.882   6.478   1.224
10005TIP3    H263551   7.975   6.596   1.209
10006TIP3   OH263552   9.044   6.899   0.866
10006TIP3    H163553   9.049   6.826   0.928
10006TIP3    H263554   9.050   6.976   0.926
10007TIP3   OH263555   8.002   7.000   1.000
10007TIP3    H163556   7.967   6.915   0.966
10007TIP3    H263557   8.095   6.990   0.973
10008TIP3   OH263558   7.664   6.336   0.567
10008TIP3    H163559   7.630   6.425   0.578
10008TIP3    H263560   7.596   6.296   0.510
10009TIP3   OH263561   7.708   6.578   0.810
10009TIP3    H163562   7.743   6.486   0.819
10009TIP3    H263563   7.788   6.633   0.802
10010TIP3   OH263564   8.754   7.424   0.866
10010TIP3    H163565   8.809   7.360   0.813
10010TIP3    H263566   8.709   7.359   0.921
10011TIP3   OH263567   8.492   6.843   1.098
10011TIP3    H163568   8.517   6.811   1.010
10011TIP3    H263569   8.582   6.861   1.133
10012TIP3   OH263570   9.366   6.034   1.162
10012TIP3    H163571   9.377   6.131   1.169
10012TIP3    H263572   9.448   6.015   1.111
10013TIP3   OH263573   8.840   6.287   1.115
10013TIP3    H163574   8.866   6.198   1.139
10013TIP3    H263575   8.823   6.278   1.020
10014TIP3   OH263576   8.140   6.060   0.788
10014TIP3    H163577   8.150   6.141   0.734
10014TIP3    H263578   8.096   6.003   0.723
10015TIP3   OH263579   8.914   6.114   0.674
10015TIP3    H163580   8.963   6.069   0.746
10015TIP3    H263581   8.984   6.167   0.633
10016TIP3   OH263582   7.789   6.329   0.874
10016TIP3    H163583   7.847   6.287   0.940
10016TIP3    H263584   7.822   6.288   0.791
10017TIP3   OH263585   8.272   6.473   0.822
10017TIP3    H163586   8.353   6.428   0.853
10017TIP3    H263587   8.236   6.405   0.759
10018TIP3   OH263588   8.031   5.980   1.219
10018TIP3    H163589   7.991   6.035   1.148
10018TIP3    H263590   7.970   6.001   1.293
10019TIP3   OH263591   8.732   6.916   0.568
10019TIP3    H163592   8.718   6.921   0.472
10019TIP3    H263593   8.703   7.006   0.596
10020TIP3   OH263594   8.257   6.738   1.188
10020TIP3    H163595   8.202   6.807   1.230
10020TIP3    H263596   8.333   6.789   1.153
10021TIP3   OH263597   9.078   6.061   0.883
10021TIP3    H163598   9.043   5.995   0.945
10021TIP3    H263599   9.120   6.124   0.946
10022TIP3   OH263600   7.993   6.170   1.015
10022TIP3    H163601   8.056   6.233   1.059
10022TIP3    H263602   8.045   6.144   0.935
10023TIP3   OH263603   8.136   6.950   1.302
10023TIP3    H163604   8.109   7.026   1.247
10023TIP3    H263605   8.050   6.931   1.348
10024TIP3   OH263606   7.719   6.898   0.390
10024TIP3    H163607   7.723   6.950   0.307
10024TIP3    H263608   7.732   6.968   0.458
10025TIP3   OH263609   9.068   7.102   1.028
10025TIP3    H163610   8.973   7.119   1.047
10025TIP3    H263611   9.107   7.191   1.036
10026TIP3   OH263612   9.145   5.877   1.226
10026TIP3    H163613   9.076   5.894   1.159
10026TIP3    H263614   9.215   5.942   1.202
10027TIP3   OH263615   8.396   5.729   0.955
10027TIP3    H163616   8.366   5.637   0.951
10027TIP3    H263617   8.310   5.774   0.981
10028TIP3   OH263618   8.904   7.265   0.720
10028TIP3    H163619   8.944   7.179   0.695
10028TIP3    H263620   8.972   7.329   0.692
10029TIP3   OH263621   9.039   7.039   0.570
10029TIP3    H163622   9.008   6.962   0.520
10029TIP3    H263623   9.073   7.000   0.652
10030TIP3   OH263624   9.191   6.900   1.471
10030TIP3    H163625   9.180   6.839   1.394
10030TIP3    H263626   9.224   6.979   1.424
10031TIP3   OH263627   8.637   6.593   0.410
10031TIP3    H163628   8.570   6.661   0.387
10031TIP3    H263629   8.715   6.625   0.359
10032TIP3   OH263630   8.642   6.484   0.130
10032TIP3    H163631   8.718   6.511   0.187
10032TIP3    H263632   8.681   6.412   0.078
10033TIP3   OH263633   9.334   6.558   1.213
10033TIP3    H163634   9.271   6.633   1.208
10033TIP3    H263635   9.401   6.589   1.147
10034TIP3   OH263636   9.010   6.581   0.504
10034TIP3    H163637   8.944   6.623   0.564
10034TIP3    H263638   9.070   6.539   0.570
10035TIP3   OH263639   8.964   6.403   1.446
10035TIP3    H163640   8.951   6.481   1.502
10035TIP3    H263641   8.917   6.436   1.368
10036TIP3   OH263642   8.142   6.666   0.692
10036TIP3    H163643   8.125   6.621   0.606
10036TIP3    H263644   8.195   6.598   0.739
10037TIP3   OH263645   8.301   7.006   0.975
10037TIP3    H163646   8.319   6.992   0.881
10037TIP3    H263647   8.367   6.950   1.020
10038TIP3   OH263648   8.173   6.524   1.066
10038TIP3    H163649   8.209   6.523   0.974
10038TIP3    H263650   8.218   6.602   1.106
10039TIP3   OH263651   8.824   7.113   1.126
10039TIP3    H163652   8.789   7.179   1.187
10039TIP3    H263653   8.815   7.031   1.178
10040TIP3   OH263654   8.278   6.978   1.531
10040TIP3    H163655   8.210   7.042   1.564
10040TIP3    H263656   8.238   6.961   1.442
10041TIP3   OH263657   8.870   6.562   0.277
10041TIP3    H163658   8.924   6.561   0.359
10041TIP3    H263659   8.926   6.615   0.216
10042TIP3   OH263660   7.995   6.587   1.461
10042TIP3    H163661   8.006   6.639   1.542
10042TIP3    H263662   7.901   6.565   1.469
10043TIP3   OH263663   8.630   7.173   0.620
10043TIP3    H163664   8.685   7.242   0.660
10043TIP3    H263665   8.587   7.221   0.548
10044TIP3   OH263666   8.102   7.163   1.588
10044TIP3    H163667   8.087   7.196   1.496
10044TIP3    H263668   8.012   7.145   1.622
10045TIP3   OH263669   9.248   5.656   0.304
10045TIP3    H163670   9.159   5.691   0.326
10045TIP3    H263671   9.251   5.666   0.207
10046TIP3   OH263672   8.039   6.550   0.455
10046TIP3    H163673   7.995   6.632   0.426
10046TIP3    H263674   7.977   6.482   0.425
10047TIP3   OH263675   9.352   7.166   0.107
10047TIP3    H163676   9.398   7.224   0.045
10047TIP3    H263677   9.416   7.090   0.112
10048TIP3   OH263678   7.680   6.823   1.348
10048TIP3    H163679   7.636   6.813   1.263
10048TIP3    H263680   7.715   6.732   1.358
10049TIP3   OH263681   7.654   7.088   0.998
10049TIP3    H163682   7.749   7.073   1.005
10049TIP3    H263683   7.644   7.166   1.054
10050TIP3   OH263684   8.528   7.094   1.524
10050TIP3    H163685   8.539   7.189   1.548
10050TIP3    H263686   8.432   7.075   1.531
10051TIP3   OH263687   8.598   7.486   0.442
10051TIP3    H163688   8.600   7.506   0.346
10051TIP3    H263689   8.598   7.577   0.480
10052TIP3   OH263690   7.973   7.359   0.649
10052TIP3    H163691   7.996   7.321   0.737
10052TIP3    H263692   7.883   7.327   0.636
10053TIP3   OH263693   8.895   7.440   0.145
10053TIP3    H163694   8.945   7.362   0.111
10053TIP3    H263695   8.908   7.433   0.240
10054TIP3   OH263696   8.856   7.402   0.445
10054TIP3    H163697   8.760   7.416   0.462
10054TIP3    H263698   8.872   7.314   0.485
10055TIP3   OH263699   9.170   6.323   1.629
10055TIP3    H163700   9.103   6.330   1.559
10055TIP3    H263701   9.225   6.248   1.599
10056TIP3   OH263702   7.904   6.935   1.427
10056TIP3    H163703   7.914   6.899   1.518
10056TIP3    H263704   7.815   6.901   1.401
10057TIP3   OH263705   8.154   5.819   1.034
10057TIP3    H163706   8.059   5.817   1.006
10057TIP3    H263707   8.143   5.865   1.119
10058TIP3   OH263708   8.643   5.763   1.361
10058TIP3    H163709   8.659   5.724   1.449
10058TIP3    H263710   8.544   5.768   1.355
10059TIP3   OH263711   8.955   6.135   1.463
10059TIP3    H163712   8.883   6.119   1.528
10059TIP3    H263713   8.954   6.233   1.457
10060TIP3   OH263714   9.020   6.667   0.091
10060TIP3    H163715   9.056   6.614   0.018
10060TIP3    H263716   9.098   6.721   0.114
10061TIP3   OH263717   8.593   6.069   0.126
10061TIP3    H163718   8.547   6.058   0.212
10061TIP3    H263719   8.582   5.980   0.091
10062TIP3   OH263720   8.172   6.288   1.175
10062TIP3    H163721   8.110   6.293   1.250
10062TIP3    H263722   8.167   6.380   1.141
10063TIP3   OH263723   8.165   6.288   0.645
10063TIP3    H163724   8.068   6.292   0.639
10063TIP3    H263725   8.191   6.265   0.552
10064TIP3   OH263726   8.729   6.377   0.531
10064TIP3    H163727   8.691   6.455   0.484
10064TIP3    H263728   8.789   6.343   0.463
10065TIP3   OH263729   8.578   6.407   1.690
10065TIP3    H163730   8.542   6.316   1.709
10065TIP3    H263731   8.672   6.390   1.693
10066TIP3   OH263732   8.807   6.344   0.832
10066TIP3    H163733   8.792   6.425   0.780
10066TIP3    H263734   8.823   6.281   0.759
10067TIP3   OH263735   7.913   6.296   1.297
10067TIP3    H163736   7.944   6.324   1.384
10067TIP3    H263737   7.880   6.207   1.318
10068TIP3   OH263738   8.264   6.096   0.066
10068TIP3    H163739   8.247   6.035   0.139
10068TIP3    H263740   8.226   6.180   0.102
10069TIP3   OH263741   7.602   6.030   0.752
10069TIP3    H163742   7.672   6.040   0.820
10069TIP3    H263743   7.648   6.050   0.669
10070TIP3   OH263744   7.705   6.092   0.263
10070TIP3    H163745   7.767   6.129   0.199
10070TIP3    H263746   7.654   6.172   0.286
10071TIP3   OH263747   8.744   6.503   1.247
10071TIP3    H163748   8.790   6.424   1.209
10071TIP3    H263749   8.691   6.461   1.316
10072TIP3   OH263750   8.457   6.039   0.736
10072TIP3    H163751   8.366   6.046   0.770
10072TIP3    H263752   8.510   6.018   0.816
10073TIP3   OH263753   7.885   6.201   0.656
10073TIP3    H163754   7.812   6.239   0.601
10073TIP3    H263755   7.905   6.115   0.613
10074TIP3   OH263756   8.230   6.235   0.390
10074TIP3    H163757   8.325   6.256   0.394
10074TIP3    H263758   8.204   6.278   0.306
10075TIP3   OH263759   8.926   5.925   1.064
10075TIP3    H163760   8.848   5.953   1.115
10075TIP3    H263761   8.884   5.878   0.988
10076TIP3   OH263762   8.169   6.329   0.144
10076TIP3    H163763   8.098   6.326   0.078
10076TIP3    H263764   8.239   6.380   0.097
10077TIP3   OH263765   9.138   7.528   1.719
10077TIP3    H163766   9.165   7.563   1.631
10077TIP3    H263767   9.200   7.575   1.775
10078TIP3   OH263768   7.932   6.812   1.673
10078TIP3    H163769   7.990   6.802   1.752
10078TIP3    H263770   7.849   6.776   1.709
10079TIP3   OH263771   8.512   6.310   0.914
10079TIP3    H163772   8.606   6.295   0.898
10079TIP3    H263773   8.484   6.231   0.963
10080TIP3   OH263774   7.991   5.951   0.576
10080TIP3    H163775   7.943   5.881   0.626
10080TIP3    H263776   8.036   5.898   0.508
10081TIP3   OH263777   8.398   6.149   1.180
10081TIP3    H163778   8.318   6.207   1.174
10081TIP3    H263779   8.463   6.208   1.221
10082TIP3   OH263780   8.465   6.795   0.378
10082TIP3    H163781   8.389   6.743   0.342
10082TIP3    H263782   8.425   6.827   0.463
10083TIP3   OH263783   9.173   6.777   1.238
10083TIP3    H163784   9.234   6.825   1.177
10083TIP3    H263785   9.102   6.749   1.177
10084TIP3   OH263786   8.851   6.093   0.193
10084TIP3    H163787   8.756   6.093   0.171
10084TIP3    H263788   8.866   6.187   0.214
10085TIP3   OH263789   8.596   6.832   1.514
10085TIP3    H163790   8.528   6.807   1.578
10085TIP3    H263791   8.577   6.928   1.508
10086TIP3   OH263792   8.941   6.300   0.350
10086TIP3    H163793   9.011   6.272   0.411
10086TIP3    H263794   8.971   6.389   0.328
10087TIP3   OH263795   7.980   6.740   0.906
10087TIP3    H163796   8.042   6.731   0.831
10087TIP3    H263797   8.010   6.671   0.968
10088TIP3   OH263798   8.682   6.934   0.285
10088TIP3    H163799   8.632   7.015   0.308
10088TIP3    H263800   8.615   6.865   0.302
10089TIP3   OH263801   7.699   6.557   1.428
10089TIP3    H163802   7.678   6.525   1.518
10089TIP3    H263803   7.631   6.511   1.376
10090TIP3   OH263804   8.342   6.536   1.641
10090TIP3    H163805   8.330   6.521   1.545
10090TIP3    H263806   8.425   6.488   1.658
10091TIP3   OH263807   8.873   7.047   1.490
10091TIP3    H163808   8.777   7.060   1.482
10091TIP3    H263809   8.889   7.099   1.571
10092TIP3   OH263810   9.267   7.100   0.348
10092TIP3    H163811   9.173   7.078   0.350
10092TIP3    H263812   9.281   7.124   0.253
10093TIP3   OH263813   8.982   6.658   1.049
10093TIP3    H163814   8.886   6.650   1.042
10093TIP3    H263815   9.013   6.593   0.983
10094TIP3   OH263816   8.193   7.092   0.703
10094TIP3    H163817   8.225   7.182   0.685
10094TIP3    H263818   8.119   7.085   0.640
10095TIP3   OH263819   7.802   6.570   0.129
10095TIP3    H163820   7.850   6.641   0.177
10095TIP3    H263821   7.709   6.589   0.150
10096TIP3   OH263822   8.336   6.870   0.608
10096TIP3    H163823   8.294   6.954   0.634
10096TIP3    H263824   8.292   6.805   0.666
10097TIP3   OH263825   8.402   7.275   1.312
10097TIP3    H163826   8.470   7.339   1.285
10097TIP3    H263827   8.453   7.226   1.379
10098TIP3   OH263828   8.236   7.346   0.570
10098TIP3    H163829   8.139   7.351   0.585
10098TIP3    H263830   8.263   7.430   0.614
10099TIP3   OH263831   8.726   6.865   1.230
10099TIP3    H163832   8.701   6.861   1.324
10099TIP3    H263833   8.766   6.777   1.217
10100TIP3   OH263834   8.984   7.015   0.182
10100TIP3    H163835   9.014   6.957   0.256
10100TIP3    H263836   8.903   6.966   0.160
10101TIP3   OH263837   9.002   7.321   1.482
10101TIP3    H163838   8.935   7.264   1.439
10101TIP3    H263839   9.044   7.370   1.407
10102TIP3   OH263840   7.859   6.046   1.420
10102TIP3    H163841   7.796   6.088   1.483
10102TIP3    H263842   7.839   5.953   1.439
10103TIP3   OH263843   9.064   6.811   0.366
10103TIP3    H163844   9.035   6.728   0.411
10103TIP3    H263845   9.161   6.798   0.363
10104TIP3   OH263846   7.810   7.214   1.244
10104TIP3    H163847   7.871   7.139   1.251
10104TIP3    H263848   7.821   7.255   1.331
10105TIP3   OH263849   8.270   7.035   0.239
10105TIP3    H163850   8.336   6.997   0.300
10105TIP3    H263851   8.279   7.132   0.254
10106TIP3   OH263852   7.924   6.761   0.282
10106TIP3    H163853   7.858   6.806   0.340
10106TIP3    H263854   7.984   6.834   0.256
10107TIP3   OH263855   8.721   6.045   1.349
10107TIP3    H163856   8.814   6.057   1.375
10107TIP3    H263857   8.696   5.961   1.391
10108TIP3   OH263858   8.782   6.008   0.466
10108TIP3    H163859   8.823   6.058   0.393
10108TIP3    H263860   8.818   6.057   0.543
10109TIP3   OH263861   8.563   7.177   0.336
10109TIP3    H163862   8.485   7.234   0.326
10109TIP3    H263863   8.621   7.211   0.264
10110TIP3   OH263864   8.532   6.178   0.512
10110TIP3    H163865   8.593   6.254   0.524
10110TIP3    H263866   8.510   6.149   0.603
10111TIP3   OH263867   8.610   6.301   1.410
10111TIP3    H163868   8.565   6.312   1.495
10111TIP3    H263869   8.653   6.212   1.415
10112TIP3   OH263870   8.586   5.852   0.568
10112TIP3    H163871   8.538   5.911   0.630
10112TIP3    H263872   8.659   5.912   0.538
10113TIP3   OH263873   8.283   7.297   0.301
10113TIP3    H163874   8.314   7.383   0.267
10113TIP3    H263875   8.254   7.324   0.390
10114TIP3   OH263876   8.152   5.978   0.293
10114TIP3    H163877   8.154   6.062   0.343
10114TIP3    H263878   8.235   5.938   0.325
10115TIP3   OH263879   9.204   6.046   1.525
10115TIP3    H163880   9.109   6.060   1.505
10115TIP3    H263881   9.247   6.089   1.450
10116TIP3   OH263882   9.060   6.439   0.880
10116TIP3    H163883   8.967   6.411   0.888
10116TIP3    H263884   9.102   6.383   0.948
10117TIP3   OH263885   7.992   7.032   0.144
10117TIP3    H163886   8.069   7.060   0.196
10117TIP3    H263887   8.037   6.970   0.084
10118TIP3   OH263888   7.826   6.303   0.077
10118TIP3    H163889   7.833   6.397   0.101
10118TIP3    H263890   7.749   6.304   0.018
10119TIP3   OH263891   9.202   7.341   1.063
10119TIP3    H163892   9.169   7.407   0.998
10119TIP3    H263893   9.297   7.358   1.059
10120TIP3   OH263894   7.894   5.768   0.974
10120TIP3    H163895   7.888   5.751   0.877
10120TIP3    H263896   7.866   5.681   1.010
10121TIP3   OH263897   7.753   7.139   0.536
10121TIP3    H163898   7.682   7.187   0.581
10121TIP3    H263899   7.776   7.205   0.467
10122TIP3   OH263900   7.707   7.426   1.705
10122TIP3    H163901   7.804   7.416   1.699
10122TIP3    H263902   7.678   7.333   1.702
10123TIP3   OH263903   8.087   7.372   1.789
10123TIP3    H163904   8.161   7.362   1.851
10123TIP3    H263905   8.109   7.313   1.715
10124TIP3   OH263906   8.677   7.276   0.093
10124TIP3    H163907   8.618   7.217   0.041
10124TIP3    H263908   8.730   7.316   0.022
10125TIP3   OH263909   8.812   7.190   1.734
10125TIP3    H163910   8.781   7.106   1.774
10125TIP3    H263911   8.898   7.202   1.780
10126TIP3   OH263912   9.068   7.265   0.022
10126TIP3    H163913   9.060   7.180   0.070
10126TIP3    H263914   9.162   7.285   0.033
10127TIP3   OH263915   7.687   6.780   1.791
10127TIP3    H163916   7.619   6.726   1.837
10127TIP3    H263917   7.633   6.819   1.718
10128TIP3   OH263918   8.171   6.834   0.033
10128TIP3    H163919   8.233   6.810   0.104
10128TIP3    H263920   8.207   6.784  -0.042
10129TIP3   OH263921   8.372   6.799   1.707
10129TIP3    H163922   8.334   6.857   1.636
10129TIP3    H263923   8.341   6.708   1.683
10130TIP3   OH263924   8.935   6.779   1.498
10130TIP3    H163925   9.019   6.830   1.507
10130TIP3    H263926   8.874   6.854   1.491
10131TIP3   OH263927   7.812   6.541   1.723
10131TIP3    H163928   7.836   6.463   1.776
10131TIP3    H263929   7.806   6.607   1.793
10132TIP3   OH263930   8.277   6.654   0.251
10132TIP3    H163931   8.206   6.599   0.289
10132TIP3    H263932   8.319   6.592   0.188
10133TIP3   OH263933   8.182   6.403   1.419
10133TIP3    H163934   8.118   6.472   1.445
10133TIP3    H263935   8.250   6.458   1.375
10134TIP3   OH263936   8.387   6.472   0.047
10134TIP3    H163937   8.409   6.476  -0.048
10134TIP3    H263938   8.477   6.473   0.089
10135TIP3   OH263939   8.713   6.725   1.797
10135TIP3    H163940   8.801   6.699   1.763
10135TIP3    H263941   8.658   6.700   1.721
10136TIP3   OH263942   9.302   6.652   8.484
10136TIP3    H163943   9.300   6.659   8.387
10136TIP3    H263944   9.360   6.725   8.510
10137TIP3   OH263945   8.259   6.182   1.553
10137TIP3    H163946   8.271   6.107   1.490
10137TIP3    H263947   8.227   6.255   1.497
10138TIP3   OH263948   8.261   5.991   1.354
10138TIP3    H163949   8.312   6.037   1.283
10138TIP3    H263950   8.171   5.993   1.315
10139TIP3   OH263951   8.387   6.577   1.359
10139TIP3    H163952   8.479   6.592   1.334
10139TIP3    H263953   8.339   6.642   1.302
10140TIP3   OH263954   8.978   6.618   1.710
10140TIP3    H163955   8.976   6.671   1.628
10140TIP3    H263956   9.067   6.580   1.704
10141TIP3   OH263957   8.090   6.254   1.768
10141TIP3    H163958   8.010   6.201   1.748
10141TIP3    H263959   8.151   6.226   1.696
10142TIP3   OH263960   8.378   5.747   1.331
10142TIP3    H163961   8.338   5.837   1.343
10142TIP3    H263962   8.300   5.695   1.306
10143TIP3   OH263963   8.468   6.177   1.740
10143TIP3    H163964   8.434   6.127   1.816
10143TIP3    H263965   8.402   6.159   1.671
10144TIP3   OH263966   8.771   6.076   1.653
10144TIP3    H163967   8.693   6.068   1.709
10144TIP3    H263968   8.834   6.020   1.703
10145TIP3   OH263969   8.931   5.935   1.829
10145TIP3    H163970   8.902   5.841   1.823
10145TIP3    H263971   8.916   5.953   1.922
10146TIP3   OH263972   7.888   6.074   1.752
10146TIP3    H163973   7.881   5.987   1.708
10146TIP3    H263974   7.838   6.063   1.835
10147TIP3   OH263975   8.392   5.779   1.616
10147TIP3    H163976   8.448   5.703   1.637
10147TIP3    H263977   8.379   5.765   1.521
10148TIP3   OH263978   8.383   5.865   1.892
10148TIP3    H163979   8.385   5.827   1.802
10148TIP3    H263980   8.302   5.920   1.886
10149TIP3   OH263981   8.354   7.546   0.188
10149TIP3    H163982   8.440   7.590   0.202
10149TIP3    H263983   8.363   7.522   0.094
10150TIP3   OH263984   7.714   6.977   0.114
10150TIP3    H163985   7.810   6.995   0.125
10150TIP3    H263986   7.713   6.951   0.021
10151TIP3   OH263987   7.613   7.492   0.597
10151TIP3    H163988   7.530   7.445   0.570
10151TIP3    H263989   7.638   7.439   0.675
10152TIP3   OH263990   7.683   7.331   0.801
10152TIP3    H163991   7.628   7.260   0.840
10152TIP3    H263992   7.736   7.356   0.879
10153TIP3   OH263993   9.370   7.373   1.401
10153TIP3    H163994   9.316   7.299   1.367
10153TIP3    H263995   9.422   7.327   1.470
10154TIP3   OH263996   9.252   6.939   1.922
10154TIP3    H163997   9.167   6.950   1.970
10154TIP3    H263998   9.275   7.032   1.901
10155TIP3   OH263999   9.328   6.755   0.356
10155TIP3    H164000   9.394   6.822   0.386
10155TIP3    H264001   9.308   6.707   0.438
10156TIP3   OH264002   0.030   6.889   1.110
10156TIP3    H164003   0.086   6.819   1.070
10156TIP3    H264004   0.049   6.966   1.053
10157TIP3   OH264005   9.236   7.136   1.314
10157TIP3    H164006   9.154   7.187   1.309
10157TIP3    H264007   9.248   7.104   1.222
10158TIP3   OH264008   9.351   6.274   0.055
10158TIP3    H164009   9.302   6.337   0.001
10158TIP3    H264010   9.298   6.192   0.040
10159TIP3   OH264011   9.173   6.426   0.635
10159TIP3    H164012   9.172   6.335   0.600
10159TIP3    H264013   9.144   6.417   0.729
10160TIP3   OH264014   7.675   6.670   1.067
10160TIP3    H164015   7.683   6.636   0.975
10160TIP3    H264016   7.765   6.649   1.101
10161TIP3   OH264017   9.269   6.613   1.646
10161TIP3    H164018   9.291   6.519   1.636
10161TIP3    H264019   9.310   6.659   1.571
10162TIP3   OH264020   9.185   6.060  -0.016
10162TIP3    H164021   9.242   5.988   0.014
10162TIP3    H264022   9.096   6.028   0.005
10163TIP3   OH264023   9.145   6.200   0.486
10163TIP3    H164024   9.159   6.107   0.515
10163TIP3    H264025   9.189   6.197   0.400
10164TIP3   OH264026   9.182   6.246   1.045
10164TIP3    H164027   9.279   6.249   1.029
10164TIP3    H264028   9.184   6.262   1.141
10165TIP3   OH264029   9.228   6.328   1.306
10165TIP3    H164030   9.148   6.372   1.340
10165TIP3    H264031   9.285   6.404   1.281
10166TIP3   OH264032   7.676   6.163   1.618
10166TIP3    H164033   7.744   6.165   1.689
10166TIP3    H264034   7.626   6.081   1.639
10167TIP3   OH264035   9.173   5.937   0.517
10167TIP3    H164036   9.208   5.906   0.604
10167TIP3    H264037   9.125   5.857   0.487
10168TIP3   OH264038   7.769   6.006   1.004
10168TIP3    H164039   7.808   5.916   0.997
10168TIP3    H264040   7.848   6.064   1.004
10169TIP3   OH264041   7.609   6.305   1.065
10169TIP3    H164042   7.656   6.294   0.981
10169TIP3    H264043   7.666   6.370   1.109
10170TIP3   OH264044   7.621   5.918   0.451
10170TIP3    H164045   7.527   5.931   0.467
10170TIP3    H264046   7.637   5.976   0.374
10171TIP3   OH264047   9.100   7.431   0.667
10171TIP3    H164048   9.167   7.395   0.605
10171TIP3    H264049   9.156   7.460   0.742
10172TIP3   OH264050   7.615   5.787   1.295
10172TIP3    H164051   7.556   5.762   1.369
10172TIP3    H264052   7.564   5.857   1.251
10173TIP3   OH264053   7.860   7.111   1.718
10173TIP3    H164054   7.774   7.109   1.672
10173TIP3    H264055   7.879   7.019   1.739
10174TIP3   OH264056   8.133   7.257   1.343
10174TIP3    H164057   8.129   7.353   1.321
10174TIP3    H264058   8.228   7.242   1.325
10175TIP3   OH264059   8.580   7.350   1.588
10175TIP3    H164060   8.581   7.340   1.685
10175TIP3    H264061   8.667   7.396   1.578
10176TIP3   OH264062   8.806   7.503   1.559
10176TIP3    H164063   8.882   7.445   1.541
10176TIP3    H264064   8.830   7.539   1.646
10177TIP3   OH264065   9.269   5.740   1.492
10177TIP3    H164066   9.202   5.801   1.456
10177TIP3    H264067   9.262   5.664   1.432
10178TIP3   OH264068   7.863   7.558   1.322
10178TIP3    H164069   7.797   7.616   1.277
10178TIP3    H264070   7.846   7.580   1.414
10179TIP3   OH264071   8.115   7.507   1.245
10179TIP3    H164072   8.022   7.526   1.273
10179TIP3    H264073   8.118   7.558   1.161
10180TIP3   OH264074   8.606   7.469   1.147
10180TIP3    H164075   8.550   7.511   1.079
10180TIP3    H264076   8.621   7.544   1.209
10181TIP3   OH264077   8.780   7.327   1.300
10181TIP3    H164078   8.723   7.373   1.235
10181TIP3    H264079   8.856   7.388   1.298
10182TIP3   OH264080   9.096   7.470   1.275
10182TIP3    H164081   9.103   7.567   1.262
10182TIP3    H264082   9.141   7.440   1.193
10183TIP3   OH264083   7.847   7.395   1.024
10183TIP3    H164084   7.827   7.333   1.098
10183TIP3    H264085   7.935   7.360   0.995
10184TIP3   OH264086   8.064   7.288   0.905
10184TIP3    H164087   8.061   7.192   0.923
10184TIP3    H264088   8.149   7.309   0.949
10185TIP3   OH264089   8.293   7.293   1.037
10185TIP3    H164090   8.329   7.204   1.020
10185TIP3    H264091   8.297   7.297   1.134
10186TIP3   OH264092   8.630   5.879   0.911
10186TIP3    H164093   8.551   5.839   0.952
10186TIP3    H264094   8.659   5.807   0.854
10187TIP3   OH264095   9.145   5.665   0.896
10187TIP3    H164096   9.204   5.728   0.847
10187TIP3    H264097   9.058   5.708   0.881
10188TIP3   OH264098   9.288   5.816   0.727
10188TIP3    H164099   9.353   5.771   0.668
10188TIP3    H264100   9.344   5.894   0.754
10189TIP3   OH264101   7.876   5.724   0.703
10189TIP3    H164102   7.794   5.708   0.654
10189TIP3    H264103   7.926   5.641   0.684
10190TIP3   OH264104   7.737   5.721   0.259
10190TIP3    H164105   7.799   5.778   0.207
10190TIP3    H264106   7.705   5.782   0.328
10191TIP3   OH264107   8.311   5.707   0.679
10191TIP3    H164108   8.398   5.711   0.638
10191TIP3    H264109   8.323   5.756   0.762
10192TIP3   OH264110   8.900   5.767   0.819
10192TIP3    H164111   8.894   5.773   0.723
10192TIP3    H264112   8.846   5.686   0.840
10193TIP3   OH264113   9.011   5.727   0.389
10193TIP3    H164114   8.942   5.794   0.399
10193TIP3    H264115   8.964   5.644   0.417
10194TIP3   OH264116   7.751   7.337   0.349
10194TIP3    H164117   7.662   7.335   0.308
10194TIP3    H264118   7.768   7.433   0.335
10195TIP3   OH264119   7.916   5.857   0.117
10195TIP3    H164120   8.003   5.815   0.106
10195TIP3    H264121   7.941   5.946   0.147
10196TIP3   OH264122   8.439   5.976   0.361
10196TIP3    H164123   8.481   5.914   0.423
10196TIP3    H264124   8.469   6.060   0.403
10197TIP3   OH264125   8.633   7.526   0.177
10197TIP3    H164126   8.722   7.538   0.139
10197TIP3    H264127   8.630   7.428   0.165
10198TIP3   OH264128   9.279   7.338   0.492
10198TIP3    H164129   9.269   7.254   0.441
10198TIP3    H264130   9.267   7.407   0.422
10199TIP3   OH264131   7.869   5.805   1.640
10199TIP3    H164132   7.808   5.730   1.650
10199TIP3    H264133   7.936   5.786   1.708
10200TIP3   OH264134   8.062   5.747   1.841
10200TIP3    H164135   8.138   5.711   1.792
10200TIP3    H264136   8.026   5.662   1.874
10201TIP3   OH264137   7.938   7.432   0.056
10201TIP3    H164138   7.865   7.474   0.103
10201TIP3    H264139   7.954   7.351   0.106
10202TIP3   OH264140   8.927   5.641   1.849
10202TIP3    H164141   8.930   5.552   1.888
10202TIP3    H264142   9.009   5.637   1.793
10203TIP3   OH264143   9.207   7.271   1.658
10203TIP3    H164144   9.136   7.240   1.600
10203TIP3    H264145   9.186   7.367   1.668
10204TIP3   OH264146   1.260   8.567   0.662
10204TIP3    H164147   1.244   8.663   0.668
10204TIP3    H264148   1.181   8.539   0.613
10205TIP3   OH264149   1.133   8.438   1.007
10205TIP3    H164150   1.147   8.385   1.088
10205TIP3    H264151   1.073   8.382   0.953
10206TIP3   OH264152   0.400   8.451   1.166
10206TIP3    H164153   0.375   8.386   1.235
10206TIP3    H264154   0.475   8.496   1.209
10207TIP3   OH264155   1.473   8.771   0.881
10207TIP3    H164156   1.465   8.691   0.936
10207TIP3    H264157   1.480   8.841   0.950
10208TIP3   OH264158   0.424   8.886   0.988
10208TIP3    H164159   0.421   8.793   0.956
10208TIP3    H264160   0.516   8.888   1.018
10209TIP3   OH264161   0.148   8.217   0.542
10209TIP3    H164162   0.136   8.313   0.534
10209TIP3    H264163   0.076   8.193   0.601
10210TIP3   OH264164   0.162   8.422   0.805
10210TIP3    H164165   0.222   8.347   0.824
10210TIP3    H264166   0.218   8.480   0.752
10211TIP3   OH264167   1.207   9.252   0.935
10211TIP3    H164168   1.279   9.219   0.875
10211TIP3    H264169   1.182   9.168   0.977
10212TIP3   OH264170   0.982   8.674   1.091
10212TIP3    H164171   1.022   8.616   1.023
10212TIP3    H264172   1.062   8.723   1.120
10213TIP3   OH264173   1.814   7.861   1.091
10213TIP3    H164174   1.815   7.913   1.175
10213TIP3    H264175   1.900   7.887   1.053
10214TIP3   OH264176   1.316   8.171   1.112
10214TIP3    H164177   1.324   8.076   1.131
10214TIP3    H264178   1.308   8.165   1.014
10215TIP3   OH264179   0.603   7.951   0.812
10215TIP3    H164180   0.619   8.030   0.755
10215TIP3    H264181   0.573   7.888   0.742
10216TIP3   OH264182   1.351   7.990   0.672
10216TIP3    H164183   1.414   7.944   0.732
10216TIP3    H264184   1.411   8.046   0.621
10217TIP3   OH264185   0.295   8.200   0.874
10217TIP3    H164186   0.358   8.160   0.936
10217TIP3    H264187   0.316   8.147   0.794
10218TIP3   OH264188   0.751   8.358   0.815
10218TIP3    H164189   0.828   8.307   0.850
10218TIP3    H264190   0.710   8.290   0.757
10219TIP3   OH264191   1.834   7.986   1.334
10219TIP3    H164192   1.797   8.076   1.314
10219TIP3    H264193   1.906   8.009   1.394
10220TIP3   OH264194   0.519   7.865   1.216
10220TIP3    H164195   0.477   7.913   1.142
10220TIP3    H264196   0.452   7.883   1.286
10221TIP3   OH264197   1.184   8.808   0.559
10221TIP3    H164198   1.173   8.796   0.463
10221TIP3    H264199   1.163   8.902   0.569
10222TIP3   OH264200   0.738   8.632   1.189
10222TIP3    H164201   0.686   8.713   1.212
10222TIP3    H264202   0.819   8.672   1.148
10223TIP3   OH264203   1.562   7.892   0.816
10223TIP3    H164204   1.554   7.862   0.908
10223TIP3    H264205   1.645   7.941   0.819
10224TIP3   OH264206   0.457   8.046   1.013
10224TIP3    H164207   0.525   8.103   1.059
10224TIP3    H264208   0.513   8.004   0.943
10225TIP3   OH264209   0.604   8.841   1.281
10225TIP3    H164210   0.603   8.938   1.271
10225TIP3    H264211   0.511   8.824   1.308
10226TIP3   OH264212   0.172   8.824   0.413
10226TIP3    H164213   0.182   8.896   0.348
10226TIP3    H264214   0.214   8.862   0.493
10227TIP3   OH264215   1.534   8.959   1.073
10227TIP3    H164216   1.440   8.977   1.096
10227TIP3    H264217   1.559   9.045   1.034
10228TIP3   OH264218   1.547   7.791   1.194
10228TIP3    H164219   1.466   7.815   1.145
10228TIP3    H264220   1.618   7.829   1.139
10229TIP3   OH264221   0.835   7.589   0.950
10229TIP3    H164222   0.804   7.498   0.955
10229TIP3    H264223   0.754   7.637   0.982
10230TIP3   OH264224   1.378   9.147   0.760
10230TIP3    H164225   1.401   9.064   0.714
10230TIP3    H264226   1.443   9.208   0.720
10231TIP3   OH264227   1.492   8.904   0.582
10231TIP3    H164228   1.474   8.843   0.509
10231TIP3    H264229   1.489   8.845   0.660
10232TIP3   OH264230   1.653   8.804   1.462
10232TIP3    H164231   1.647   8.744   1.385
10232TIP3    H264232   1.669   8.887   1.412
10233TIP3   OH264233   1.093   8.474   0.411
10233TIP3    H164234   1.031   8.546   0.386
10233TIP3    H264235   1.177   8.507   0.373
10234TIP3   OH264236   1.096   8.391   0.137
10234TIP3    H164237   1.161   8.407   0.209
10234TIP3    H264238   1.133   8.313   0.094
10235TIP3   OH264239   1.850   8.439   1.249
10235TIP3    H164240   1.783   8.509   1.240
10235TIP3    H264241   1.910   8.465   1.176
10236TIP3   OH264242   1.488   8.484   0.525
10236TIP3    H164243   1.417   8.517   0.585
10236TIP3    H264244   1.544   8.431   0.585
10237TIP3   OH264245   1.477   8.306   1.445
10237TIP3    H164246   1.474   8.390   1.494
10237TIP3    H264247   1.420   8.326   1.369
10238TIP3   OH264248   0.621   8.552   0.691
10238TIP3    H164249   0.577   8.503   0.618
10238TIP3    H264250   0.676   8.481   0.731
10239TIP3   OH264251   0.745   8.895   0.958
10239TIP3    H164252   0.746   8.913   0.861
10239TIP3    H264253   0.823   8.841   0.972
10240TIP3   OH264254   0.668   8.405   1.064
10240TIP3    H164255   0.692   8.418   0.970
10240TIP3    H264256   0.702   8.487   1.106
10241TIP3   OH264257   1.264   8.986   1.130
10241TIP3    H164258   1.230   9.053   1.192
10241TIP3    H264259   1.254   8.903   1.183
10242TIP3   OH264260   0.732   8.863   1.534
10242TIP3    H164261   0.668   8.925   1.575
10242TIP3    H264262   0.684   8.836   1.452
10243TIP3   OH264263   1.336   8.460   0.305
10243TIP3    H164264   1.399   8.479   0.378
10243TIP3    H264265   1.386   8.492   0.226
10244TIP3   OH264266   0.442   8.491   1.451
10244TIP3    H164267   0.443   8.562   1.517
10244TIP3    H264268   0.348   8.465   1.453
10245TIP3   OH264269   1.134   9.146   0.576
10245TIP3    H164270   1.174   9.150   0.664
10245TIP3    H264271   1.044   9.181   0.587
10246TIP3   OH264272   0.553   9.048   1.609
10246TIP3    H164273   0.537   9.051   1.513
10246TIP3    H264274   0.462   9.024   1.639
10247TIP3   OH264275   1.749   7.573   0.317
10247TIP3    H164276   1.652   7.585   0.324
10247TIP3    H264277   1.775   7.654   0.268
10248TIP3   OH264278   0.470   8.447   0.487
10248TIP3    H164279   0.449   8.526   0.433
10248TIP3    H264280   0.432   8.378   0.432
10249TIP3   OH264281   1.803   8.986   0.093
10249TIP3    H164282   1.828   9.079   0.110
10249TIP3    H264283   1.892   8.945   0.090
10250TIP3   OH264284   0.139   8.689   1.378
10250TIP3    H164285   0.085   8.706   1.298
10250TIP3    H264286   0.141   8.591   1.384
10251TIP3   OH264287   0.145   8.969   0.992
10251TIP3    H164288   0.229   8.927   0.965
10251TIP3    H264289   0.173   9.016   1.072
10252TIP3   OH264290   1.891   9.056   1.620
10252TIP3    H164291   1.882   8.958   1.629
10252TIP3    H264292   1.806   9.088   1.656
10253TIP3   OH264293   0.982   8.969   1.466
10253TIP3    H164294   1.002   9.054   1.508
10253TIP3    H264295   0.889   8.948   1.492
10254TIP3   OH264296   0.466   9.223   0.647
10254TIP3    H164297   0.463   9.196   0.742
10254TIP3    H264298   0.404   9.157   0.609
10255TIP3   OH264299   1.365   9.286   0.173
10255TIP3    H164300   1.430   9.221   0.141
10255TIP3    H264301   1.358   9.262   0.269
10256TIP3   OH264302   1.328   9.263   0.434
10256TIP3    H164303   1.234   9.270   0.456
10256TIP3    H264304   1.351   9.184   0.485
10257TIP3   OH264305   1.618   8.169   1.653
10257TIP3    H164306   1.554   8.199   1.585
10257TIP3    H264307   1.591   8.076   1.668
10258TIP3   OH264308   0.364   8.831   1.407
10258TIP3    H164309   0.366   8.821   1.503
10258TIP3    H264310   0.285   8.774   1.389
10259TIP3   OH264311   0.625   7.706   1.041
10259TIP3    H164312   0.540   7.698   0.992
10259TIP3    H264313   0.595   7.757   1.118
10260TIP3   OH264314   1.088   7.649   1.377
10260TIP3    H164315   1.122   7.600   1.456
10260TIP3    H264316   0.991   7.641   1.385
10261TIP3   OH264317   1.385   8.046   1.503
10261TIP3    H164318   1.326   8.014   1.575
10261TIP3    H264319   1.350   8.134   1.482
10262TIP3   OH264320   1.479   8.547   0.094
10262TIP3    H164321   1.474   8.567  -0.001
10262TIP3    H264322   1.566   8.586   0.113
10263TIP3   OH264323   1.058   7.948   0.124
10263TIP3    H164324   1.005   7.939   0.205
10263TIP3    H264325   1.036   7.865   0.080
10264TIP3   OH264326   0.636   8.165   1.155
10264TIP3    H164327   0.596   8.197   1.239
10264TIP3    H264328   0.648   8.254   1.112
10265TIP3   OH264329   0.628   8.168   0.659
10265TIP3    H164330   0.532   8.164   0.641
10265TIP3    H264331   0.666   8.145   0.571
10266TIP3   OH264332   1.191   8.248   0.528
10266TIP3    H164333   1.157   8.332   0.487
10266TIP3    H264334   1.243   8.212   0.453
10267TIP3   OH264335   1.049   8.286   1.704
10267TIP3    H164336   1.011   8.195   1.717
10267TIP3    H264337   1.137   8.276   1.746
10268TIP3   OH264338   1.277   8.216   0.839
10268TIP3    H164339   1.265   8.300   0.789
10268TIP3    H264340   1.268   8.150   0.768
10269TIP3   OH264341   0.346   8.201   1.318
10269TIP3    H164342   0.423   8.217   1.374
10269TIP3    H264343   0.343   8.104   1.313
10270TIP3   OH264344   0.728   7.963   0.065
10270TIP3    H164345   0.679   7.923   0.141
10270TIP3    H264346   0.706   8.057   0.063
10271TIP3   OH264347   0.110   7.911   0.756
10271TIP3    H164348   0.193   7.901   0.804
10271TIP3    H264349   0.136   7.919   0.663
10272TIP3   OH264350   0.152   8.003   0.251
10272TIP3    H164351   0.216   7.999   0.179
10272TIP3    H264352   0.121   8.095   0.247
10273TIP3   OH264353   1.185   8.349   1.280
10273TIP3    H164354   1.244   8.289   1.228
10273TIP3    H264355   1.136   8.286   1.337
10274TIP3   OH264356   0.914   7.936   0.763
10274TIP3    H164357   0.825   7.948   0.800
10274TIP3    H264358   0.958   7.885   0.834
10275TIP3   OH264359   0.357   8.065   0.646
10275TIP3    H164360   0.294   8.096   0.577
10275TIP3    H264361   0.400   7.985   0.608
10276TIP3   OH264362   0.689   8.111   0.394
10276TIP3    H164363   0.784   8.122   0.414
10276TIP3    H264364   0.672   8.168   0.316
10277TIP3   OH264365   1.329   7.872   1.057
10277TIP3    H164366   1.268   7.863   1.134
10277TIP3    H264367   1.300   7.803   0.996
10278TIP3   OH264368   0.613   8.220   0.153
10278TIP3    H164369   0.550   8.213   0.078
10278TIP3    H264370   0.688   8.270   0.115
10279TIP3   OH264371   0.430   8.736   1.672
10279TIP3    H164372   0.497   8.730   1.744
10279TIP3    H264373   0.351   8.705   1.720
10280TIP3   OH264374   0.972   8.212   0.900
10280TIP3    H164375   1.065   8.182   0.895
10280TIP3    H264376   0.932   8.147   0.960
10281TIP3   OH264377   0.487   7.827   0.603
10281TIP3    H164378   0.433   7.752   0.640
10281TIP3    H264379   0.517   7.791   0.519
10282TIP3   OH264380   0.870   8.043   1.177
10282TIP3    H164381   0.782   8.087   1.171
10282TIP3    H264382   0.922   8.105   1.229
10283TIP3   OH264383   0.932   8.679   0.370
10283TIP3    H164384   0.854   8.637   0.329
10283TIP3    H264385   0.893   8.710   0.456
10284TIP3   OH264386   1.660   8.647   1.248
10284TIP3    H164387   1.704   8.686   1.168
10284TIP3    H264388   1.574   8.623   1.210
10285TIP3   OH264389   1.318   7.967   0.177
10285TIP3    H164390   1.221   7.966   0.160
10285TIP3    H264391   1.330   8.058   0.209
10286TIP3   OH264392   1.068   8.702   1.463
10286TIP3    H164393   1.036   8.643   1.532
10286TIP3    H264394   1.034   8.789   1.492
10287TIP3   OH264395   1.383   8.186   0.321
10287TIP3    H164396   1.437   8.156   0.397
10287TIP3    H264397   1.404   8.280   0.319
10288TIP3   OH264398   0.451   8.629   0.907
10288TIP3    H164399   0.497   8.604   0.825
10288TIP3    H264400   0.471   8.555   0.967
10289TIP3   OH264401   1.140   8.821   0.280
10289TIP3    H164402   1.090   8.906   0.281
10289TIP3    H264403   1.068   8.760   0.306
10290TIP3   OH264404   0.168   8.438   1.463
10290TIP3    H164405   0.166   8.393   1.549
10290TIP3    H264406   0.130   8.370   1.406
10291TIP3   OH264407   0.801   8.410   1.646
10291TIP3    H164408   0.779   8.369   1.562
10291TIP3    H264409   0.891   8.376   1.663
10292TIP3   OH264410   1.329   8.969   1.481
10292TIP3    H164411   1.249   8.956   1.428
10292TIP3    H264412   1.290   8.999   1.565
10293TIP3   OH264413   1.857   8.163   0.321
10293TIP3    H164414   1.797   8.157   0.244
10293TIP3    H264415   1.880   8.258   0.314
10294TIP3   OH264416   1.884   8.786   1.584
10294TIP3    H164417   1.797   8.786   1.538
10294TIP3    H264418   1.944   8.777   1.507
10295TIP3   OH264419   1.690   9.050   0.350
10295TIP3    H164420   1.636   8.980   0.389
10295TIP3    H264421   1.717   9.013   0.264
10296TIP3   OH264422   1.417   8.545   1.057
10296TIP3    H164423   1.330   8.521   1.021
10296TIP3    H264424   1.475   8.482   1.011
10297TIP3   OH264425   0.684   8.964   0.698
10297TIP3    H164426   0.712   9.044   0.648
10297TIP3    H264427   0.591   8.957   0.671
10298TIP3   OH264428   0.243   8.442   0.195
10298TIP3    H164429   0.324   8.498   0.199
10298TIP3    H264430   0.177   8.500   0.154
10299TIP3   OH264431   0.825   8.750   0.607
10299TIP3    H164432   0.774   8.829   0.631
10299TIP3    H264433   0.788   8.683   0.667
10300TIP3   OH264434   0.842   9.185   1.298
10300TIP3    H164435   0.862   9.277   1.330
10300TIP3    H264436   0.915   9.132   1.335
10301TIP3   OH264437   0.724   9.203   0.577
10301TIP3    H164438   0.629   9.221   0.591
10301TIP3    H264439   0.758   9.284   0.620
10302TIP3   OH264440   1.215   8.738   1.234
10302TIP3    H164441   1.164   8.710   1.314
10302TIP3    H264442   1.267   8.660   1.213
10303TIP3   OH264443   1.455   8.895   0.186
10303TIP3    H164444   1.487   8.831   0.253
10303TIP3    H264445   1.361   8.868   0.181
10304TIP3   OH264446   1.503   9.230   1.449
10304TIP3    H164447   1.434   9.165   1.427
10304TIP3    H264448   1.489   9.303   1.387
10305TIP3   OH264449   1.875   9.241   0.152
10305TIP3    H164450   1.918   9.289   0.080
10305TIP3    H264451   1.825   9.312   0.199
10306TIP3   OH264452   0.323   7.918   1.398
10306TIP3    H164453   0.264   7.968   1.457
10306TIP3    H264454   0.291   7.827   1.412
10307TIP3   OH264455   1.539   8.710   0.376
10307TIP3    H164456   1.520   8.623   0.417
10307TIP3    H264457   1.636   8.711   0.386
10308TIP3   OH264458   0.270   9.104   1.236
10308TIP3    H164459   0.324   9.024   1.251
10308TIP3    H264460   0.276   9.148   1.321
10309TIP3   OH264461   0.736   8.921   0.233
10309TIP3    H164462   0.803   8.862   0.272
10309TIP3    H264463   0.766   9.009   0.262
10310TIP3   OH264464   0.384   8.643   0.296
10310TIP3    H164465   0.294   8.677   0.314
10310TIP3    H264466   0.422   8.713   0.240
10311TIP3   OH264467   1.226   7.887   1.321
10311TIP3    H164468   1.287   7.922   1.389
10311TIP3    H264469   1.176   7.818   1.367
10312TIP3   OH264470   1.242   7.888   0.451
10312TIP3    H164471   1.302   7.909   0.378
10312TIP3    H264472   1.280   7.936   0.528
10313TIP3   OH264473   1.016   9.061   0.289
10313TIP3    H164474   0.942   9.124   0.290
10313TIP3    H264475   1.073   9.101   0.219
10314TIP3   OH264476   0.945   8.074   0.519
10314TIP3    H164477   1.021   8.132   0.537
10314TIP3    H264478   0.933   8.023   0.602
10315TIP3   OH264479   1.064   8.158   1.442
10315TIP3    H164480   1.075   8.193   1.533
10315TIP3    H264481   1.080   8.062   1.456
10316TIP3   OH264482   1.045   7.737   0.552
10316TIP3    H164483   1.019   7.793   0.627
10316TIP3    H264484   1.125   7.787   0.521
10317TIP3   OH264485   0.771   9.227   0.276
10317TIP3    H164486   0.774   9.320   0.253
10317TIP3    H264487   0.729   9.223   0.364
10318TIP3   OH264488   0.618   7.863   0.290
10318TIP3    H164489   0.609   7.947   0.339
10318TIP3    H264490   0.710   7.840   0.316
10319TIP3   OH264491   1.629   7.926   1.526
10319TIP3    H164492   1.537   7.951   1.503
10319TIP3    H264493   1.676   7.961   1.449
10320TIP3   OH264494   1.534   8.312   0.884
10320TIP3    H164495   1.455   8.258   0.905
10320TIP3    H264496   1.600   8.270   0.943
10321TIP3   OH264497   0.459   8.889   0.149
10321TIP3    H164498   0.528   8.931   0.203
10321TIP3    H264499   0.517   8.844   0.084
10322TIP3   OH264500   0.307   8.201   0.039
10322TIP3    H164501   0.319   8.281   0.093
10322TIP3    H264502   0.217   8.177   0.063
10323TIP3   OH264503   1.582   9.223   1.083
10323TIP3    H164504   1.582   9.292   1.014
10323TIP3    H264505   1.675   9.234   1.114
10324TIP3   OH264506   0.377   7.657   0.959
10324TIP3    H164507   0.364   7.635   0.864
10324TIP3    H264508   0.341   7.573   0.998
10325TIP3   OH264509   0.285   9.037   0.581
10325TIP3    H164510   0.210   9.072   0.633
10325TIP3    H264511   0.264   9.081   0.495
10326TIP3   OH264512   0.190   9.297   1.740
10326TIP3    H164513   0.247   9.276   1.817
10326TIP3    H264514   0.189   9.214   1.691
10327TIP3   OH264515   0.639   9.145   1.843
10327TIP3    H164516   0.733   9.156   1.822
10327TIP3    H264517   0.605   9.118   1.755
10328TIP3   OH264518   1.138   9.157   0.072
10328TIP3    H164519   1.084   9.109   0.007
10328TIP3    H264520   1.207   9.198   0.018
10329TIP3   OH264521   1.282   9.051   1.736
10329TIP3    H164522   1.258   8.966   1.780
10329TIP3    H264523   1.378   9.051   1.745
10330TIP3   OH264524   1.552   9.130   0.024
10330TIP3    H164525   1.546   9.044   0.072
10330TIP3    H264526   1.649   9.138   0.015
10331TIP3   OH264527   0.166   8.697   1.734
10331TIP3    H164528   0.172   8.607   1.770
10331TIP3    H264529   0.076   8.694   1.696
10332TIP3   OH264530   0.612   8.707   0.019
10332TIP3    H164531   0.646   8.663   0.099
10332TIP3    H264532   0.657   8.655  -0.050
10333TIP3   OH264533   0.852   8.667   1.684
10333TIP3    H164534   0.813   8.724   1.614
10333TIP3    H264535   0.835   8.575   1.652
10334TIP3   OH264536   1.423   8.660   1.500
10334TIP3    H164537   1.506   8.713   1.504
10334TIP3    H264538   1.356   8.731   1.502
10335TIP3   OH264539   0.234   8.377   1.774
10335TIP3    H164540   0.309   8.315   1.760
10335TIP3    H264541   0.220   8.370   1.870
10336TIP3   OH264542   0.730   8.536   0.243
10336TIP3    H164543   0.675   8.477   0.297
10336TIP3    H264544   0.770   8.472   0.180
10337TIP3   OH264545   0.610   8.298   1.380
10337TIP3    H164546   0.552   8.366   1.420
10337TIP3    H264547   0.687   8.352   1.353
10338TIP3   OH264548   0.834   8.355   0.059
10338TIP3    H164549   0.862   8.352  -0.034
10338TIP3    H264550   0.923   8.359   0.104
10339TIP3   OH264551   1.211   8.576   1.834
10339TIP3    H164552   1.259   8.532   1.762
10339TIP3    H264553   1.152   8.508   1.867
10340TIP3   OH264554   1.745   8.635   8.486
10340TIP3    H164555   1.707   8.631   8.397
10340TIP3    H264556   1.789   8.721   8.489
10341TIP3   OH264557   0.704   8.091   1.536
10341TIP3    H164558   0.711   8.006   1.489
10341TIP3    H264559   0.708   8.156   1.464
10342TIP3   OH264560   0.769   7.872   1.344
10342TIP3    H164561   0.827   7.920   1.280
10342TIP3    H264562   0.685   7.876   1.294
10343TIP3   OH264563   0.866   8.463   1.358
10343TIP3    H164564   0.954   8.481   1.322
10343TIP3    H264565   0.815   8.527   1.305
10344TIP3   OH264566   1.309   8.191   1.848
10344TIP3    H164567   1.313   8.131   1.924
10344TIP3    H264568   1.381   8.252   1.868
10345TIP3   OH264569   1.461   8.480   1.702
10345TIP3    H164570   1.442   8.543   1.628
10345TIP3    H264571   1.557   8.472   1.695
10346TIP3   OH264572   0.455   8.203   1.709
10346TIP3    H164573   0.428   8.109   1.721
10346TIP3    H264574   0.543   8.192   1.670
10347TIP3   OH264575   0.826   7.612   1.358
10347TIP3    H164576   0.799   7.706   1.353
10347TIP3    H264577   0.752   7.570   1.313
10348TIP3   OH264578   0.923   8.059   1.742
10348TIP3    H164579   0.877   8.023   1.823
10348TIP3    H264580   0.854   8.039   1.676
10349TIP3   OH264581   1.185   7.950   1.653
10349TIP3    H164582   1.100   7.965   1.697
10349TIP3    H264583   1.227   7.898   1.725
10350TIP3   OH264584   1.342   7.824   1.856
10350TIP3    H164585   1.334   7.725   1.857
10350TIP3    H264586   1.336   7.849   1.950
10351TIP3   OH264587   0.347   7.956   1.760
10351TIP3    H164588   0.339   7.875   1.706
10351TIP3    H264589   0.357   7.920   1.852
10352TIP3   OH264590   0.831   7.582   1.653
10352TIP3    H164591   0.904   7.517   1.646
10352TIP3    H264592   0.828   7.613   1.561
10353TIP3   OH264593   0.757   7.702   1.877
10353TIP3    H164594   0.797   7.641   1.811
10353TIP3    H264595   0.829   7.767   1.884
10354TIP3   OH264596   0.198   8.870   0.092
10354TIP3    H164597   0.292   8.874   0.120
10354TIP3    H264598   0.209   8.863  -0.006
10355TIP3   OH264599   0.150   9.212   0.815
10355TIP3    H164600   0.103   9.140   0.862
10355TIP3    H264601   0.188   9.260   0.890
10356TIP3   OH264602   1.831   9.305   1.123
10356TIP3    H164603   1.893   9.313   1.199
10356TIP3    H264604   1.848   9.386   1.074
10357TIP3   OH264605   1.875   9.225   1.379
10357TIP3    H164606   1.827   9.152   1.336
10357TIP3    H264607   1.928   9.178   1.446
10358TIP3   OH264608   1.810   8.658   0.393
10358TIP3    H164609   1.894   8.708   0.402
10358TIP3    H264610   1.812   8.604   0.475
10359TIP3   OH264611   1.850   8.484   0.595
10359TIP3    H164612   1.775   8.431   0.628
10359TIP3    H264613   1.908   8.490   0.673
10360TIP3   OH264614   1.813   8.728   1.049
10360TIP3    H164615   1.891   8.668   1.045
10360TIP3    H264616   1.853   8.814   1.025
10361TIP3   OH264617   1.706   9.011   1.302
10361TIP3    H164618   1.640   9.075   1.332
10361TIP3    H264619   1.665   8.978   1.218
10362TIP3   OH264620   1.832   8.430   0.228
10362TIP3    H164621   1.778   8.451   0.151
10362TIP3    H264622   1.815   8.506   0.288
10363TIP3   OH264623   1.652   8.173   0.077
10363TIP3    H164624   1.720   8.215   0.023
10363TIP3    H264625   1.665   8.081   0.047
10364TIP3   OH264626   1.666   8.301   0.652
10364TIP3    H164627   1.633   8.214   0.621
10364TIP3    H264628   1.622   8.308   0.740
10365TIP3   OH264629   0.175   8.540   1.053
10365TIP3    H164630   0.170   8.509   0.960
10365TIP3    H264631   0.267   8.513   1.079
10366TIP3   OH264632   1.763   8.508   1.622
10366TIP3    H164633   1.796   8.414   1.631
10366TIP3    H264634   1.829   8.549   1.563
10367TIP3   OH264635   1.862   8.261   1.622
10367TIP3    H164636   1.777   8.210   1.623
10367TIP3    H264637   1.928   8.194   1.650
10368TIP3   OH264638   1.645   7.921  -0.024
10368TIP3    H164639   1.698   7.868   0.041
10368TIP3    H264640   1.554   7.915   0.008
10369TIP3   OH264641   1.567   8.095   0.505
10369TIP3    H164642   1.605   8.007   0.529
10369TIP3    H264643   1.622   8.110   0.425
10370TIP3   OH264644   1.688   8.154   1.043
10370TIP3    H164645   1.787   8.164   1.048
10370TIP3    H264646   1.668   8.157   1.138
10371TIP3   OH264647   1.702   8.212   1.317
10371TIP3    H164648   1.628   8.230   1.379
10371TIP3    H264649   1.738   8.302   1.301
10372TIP3   OH264650   0.104   8.055   1.683
10372TIP3    H164651   0.197   8.043   1.711
10372TIP3    H264652   0.066   7.968   1.697
10373TIP3   OH264653   1.912   7.620   1.838
10373TIP3    H164654   1.954   7.557   1.776
10373TIP3    H264655   1.895   7.696   1.777
10374TIP3   OH264656   1.662   7.841   0.514
10374TIP3    H164657   1.696   7.785   0.587
10374TIP3    H264658   1.617   7.776   0.458
10375TIP3   OH264659   0.250   7.884   1.039
10375TIP3    H164660   0.291   7.799   1.012
10375TIP3    H264661   0.322   7.950   1.035
10376TIP3   OH264662   0.099   8.172   1.076
10376TIP3    H164663   0.156   8.146   1.001
10376TIP3    H264664   0.130   8.263   1.091
10377TIP3   OH264665   1.850   7.831   1.689
10377TIP3    H164666   1.773   7.885   1.717
10377TIP3    H264667   1.817   7.798   1.603
10378TIP3   OH264668   1.842   7.826   0.148
10378TIP3    H164669   1.896   7.780   0.082
10378TIP3    H264670   1.906   7.894   0.179
10379TIP3   OH264671   0.095   7.821   0.453
10379TIP3    H164672  -0.002   7.820   0.447
10379TIP3    H264673   0.118   7.862   0.368
10380TIP3   OH264674   1.533   9.315   0.638
10380TIP3    H164675   1.625   9.284   0.618
10380TIP3    H264676   1.552   9.380   0.708
10381TIP3   OH264677   0.101   7.671   1.293
10381TIP3    H164678   0.047   7.670   1.373
10381TIP3    H264679   0.056   7.737   1.238
10382TIP3   OH264680   0.296   8.997   1.669
10382TIP3    H164681   0.264   8.905   1.672
10382TIP3    H264682   0.312   9.020   1.762
10383TIP3   OH264683   0.593   9.096   1.340
10383TIP3    H164684   0.552   9.181   1.323
10383TIP3    H264685   0.689   9.120   1.341
10384TIP3   OH264686   1.053   9.222   1.584
10384TIP3    H164687   1.030   9.214   1.678
10384TIP3    H264688   1.147   9.241   1.589
10385TIP3   OH264689   1.748   7.611   1.491
10385TIP3    H164690   1.671   7.660   1.458
10385TIP3    H264691   1.732   7.523   1.453
10386TIP3   OH264692   1.250   9.216   1.295
10386TIP3    H164693   1.195   9.287   1.259
10386TIP3    H264694   1.333   9.234   1.249
10387TIP3   OH264695   0.298   9.290   1.027
10387TIP3    H164696   0.253   9.254   1.105
10387TIP3    H264697   0.360   9.218   1.002
10388TIP3   OH264698   0.480   9.139   0.905
10388TIP3    H164699   0.464   9.044   0.923
10388TIP3    H264700   0.562   9.154   0.958
10389TIP3   OH264701   0.698   9.156   1.058
10389TIP3    H164702   0.709   9.059   1.054
10389TIP3    H264703   0.745   9.178   1.140
10390TIP3   OH264704   1.032   7.754   0.930
10390TIP3    H164705   0.952   7.697   0.946
10390TIP3    H264706   1.095   7.692   0.894
10391TIP3   OH264707   1.634   7.573   0.905
10391TIP3    H164708   1.692   7.629   0.849
10391TIP3    H264709   1.545   7.613   0.888
10392TIP3   OH264710   1.788   7.685   0.704
10392TIP3    H164711   1.858   7.630   0.662
10392TIP3    H264712   1.839   7.768   0.723
10393TIP3   OH264713   0.353   7.615   0.690
10393TIP3    H164714   0.273   7.604   0.634
10393TIP3    H264715   0.398   7.528   0.678
10394TIP3   OH264716   0.241   7.574   0.258
10394TIP3    H164717   0.263   7.642   0.192
10394TIP3    H264718   0.183   7.621   0.320
10395TIP3   OH264719   0.773   7.587   0.676
10395TIP3    H164720   0.858   7.592   0.629
10395TIP3    H264721   0.799   7.610   0.767
10396TIP3   OH264722   1.375   7.626   0.825
10396TIP3    H164723   1.351   7.642   0.732
10396TIP3    H264724   1.317   7.550   0.847
10397TIP3   OH264725   1.498   7.619   0.365
10397TIP3    H164726   1.434   7.626   0.292
10397TIP3    H264727   1.455   7.551   0.422
10398TIP3   OH264728   0.216   9.188   0.368
10398TIP3    H164729   0.122   9.201   0.390
10398TIP3    H264730   0.234   9.275   0.327
10399TIP3   OH264731   0.390   7.756   0.108
10399TIP3    H164732   0.467   7.707   0.074
10399TIP3    H264733   0.433   7.824   0.161
10400TIP3   OH264734   0.890   7.855   0.358
10400TIP3    H164735   0.930   7.792   0.421
10400TIP3    H264736   0.918   7.939   0.403
10401TIP3   OH264737   1.127   9.400   0.206
10401TIP3    H164738   1.220   9.371   0.200
10401TIP3    H264739   1.087   9.324   0.160
10402TIP3   OH264740   1.759   9.246   0.525
10402TIP3    H164741   1.738   9.176   0.459
10402TIP3    H264742   1.760   9.322   0.463
10403TIP3   OH264743   0.289   7.683   1.617
10403TIP3    H164744   0.241   7.599   1.627
10403TIP3    H264745   0.374   7.661   1.662
10404TIP3   OH264746   0.502   7.631   1.796
10404TIP3    H164747   0.591   7.667   1.817
10404TIP3    H264748   0.528   7.539   1.777
10405TIP3   OH264749   0.456   9.322   0.081
10405TIP3    H164750   0.401   9.354   0.156
10405TIP3    H264751   0.451   9.226   0.088
10406TIP3   OH264752   1.341   7.556   1.846
10406TIP3    H164753   1.339   7.537   1.942
10406TIP3    H264754   1.431   7.526   1.823
10407TIP3   OH264755   1.658   9.179   1.678
10407TIP3    H164756   1.617   9.192   1.590
10407TIP3    H264757   1.714   9.258   1.685
10408TIP3   OH264758   3.156   8.565   0.675
10408TIP3    H164759   3.150   8.660   0.695
10408TIP3    H264760   3.071   8.550   0.629
10409TIP3   OH264761   3.010   8.425   0.996
10409TIP3    H164762   3.025   8.377   1.081
10409TIP3    H264763   2.941   8.373   0.951
10410TIP3   OH264764   2.211   8.417   1.157
10410TIP3    H164765   2.219   8.339   1.215
10410TIP3    H264766   2.278   8.475   1.198
10411TIP3   OH264767   3.342   8.761   0.892
10411TIP3    H164768   3.350   8.681   0.947
10411TIP3    H264769   3.360   8.832   0.956
10412TIP3   OH264770   2.327   8.906   0.972
10412TIP3    H164771   2.297   8.814   0.957
10412TIP3    H264772   2.422   8.884   0.979
10413TIP3   OH264773   2.022   8.213   0.549
10413TIP3    H164774   1.995   8.302   0.576
10413TIP3    H264775   1.937   8.177   0.515
10414TIP3   OH264776   2.048   8.459   0.806
10414TIP3    H164777   2.083   8.367   0.818
10414TIP3    H264778   2.128   8.513   0.791
10415TIP3   OH264779   3.088   9.242   0.927
10415TIP3    H164780   3.159   9.217   0.865
10415TIP3    H264781   3.075   9.158   0.973
10416TIP3   OH264782   2.863   8.695   1.053
10416TIP3    H164783   2.903   8.623   1.001
10416TIP3    H264784   2.941   8.728   1.102
10417TIP3   OH264785   3.700   7.885   1.089
10417TIP3    H164786   3.707   7.930   1.176
10417TIP3    H264787   3.792   7.891   1.060
10418TIP3   OH264788   3.198   8.162   1.117
10418TIP3    H164789   3.218   8.068   1.134
10418TIP3    H264790   3.180   8.157   1.021
10419TIP3   OH264791   2.493   7.941   0.788
10419TIP3    H164792   2.501   8.025   0.738
10419TIP3    H264793   2.440   7.889   0.724
10420TIP3   OH264794   3.239   8.000   0.680
10420TIP3    H164795   3.306   7.951   0.735
10420TIP3    H264796   3.298   8.056   0.627
10421TIP3   OH264797   2.137   8.208   0.874
10421TIP3    H164798   2.200   8.174   0.941
10421TIP3    H264799   2.170   8.163   0.793
10422TIP3   OH264800   2.611   8.356   0.824
10422TIP3    H164801   2.689   8.306   0.856
10422TIP3    H264802   2.576   8.291   0.759
10423TIP3   OH264803   3.723   8.003   1.339
10423TIP3    H164804   3.686   8.087   1.302
10423TIP3    H264805   3.740   8.032   1.430
10424TIP3   OH264806   2.403   7.852   1.210
10424TIP3    H164807   2.351   7.903   1.144
10424TIP3    H264808   2.351   7.869   1.290
10425TIP3   OH264809   3.069   8.808   0.559
10425TIP3    H164810   3.064   8.791   0.463
10425TIP3    H264811   3.052   8.904   0.562
10426TIP3   OH264812   2.620   8.634   1.187
10426TIP3    H164813   2.570   8.716   1.211
10426TIP3    H264814   2.690   8.672   1.130
10427TIP3   OH264815   3.446   7.911   0.822
10427TIP3    H164816   3.445   7.857   0.903
10427TIP3    H264817   3.520   7.969   0.845
10428TIP3   OH264818   2.333   8.049   1.007
10428TIP3    H164819   2.396   8.111   1.052
10428TIP3    H264820   2.386   8.021   0.930
10429TIP3   OH264821   2.487   8.850   1.291
10429TIP3    H164822   2.479   8.948   1.294
10429TIP3    H264823   2.398   8.824   1.327
10430TIP3   OH264824   2.068   8.780   0.398
10430TIP3    H164825   2.070   8.836   0.319
10430TIP3    H264826   2.072   8.847   0.470
10431TIP3   OH264827   3.421   8.961   1.063
10431TIP3    H164828   3.328   8.977   1.090
10431TIP3    H264829   3.442   9.048   1.023
10432TIP3   OH264830   3.431   7.788   1.182
10432TIP3    H164831   3.351   7.808   1.130
10432TIP3    H264832   3.500   7.826   1.124
10433TIP3   OH264833   2.734   7.607   0.950
10433TIP3    H164834   2.708   7.515   0.936
10433TIP3    H264835   2.646   7.643   0.981
10434TIP3   OH264836   3.266   9.140   0.756
10434TIP3    H164837   3.278   9.055   0.709
10434TIP3    H264838   3.329   9.197   0.707
10435TIP3   OH264839   3.379   8.903   0.582
10435TIP3    H164840   3.356   8.846   0.506
10435TIP3    H264841   3.369   8.840   0.656
10436TIP3   OH264842   3.551   8.814   1.452
10436TIP3    H164843   3.540   8.743   1.384
10436TIP3    H264844   3.568   8.889   1.392
10437TIP3   OH264845   2.986   8.472   0.410
10437TIP3    H164846   2.922   8.544   0.387
10437TIP3    H264847   3.070   8.505   0.370
10438TIP3   OH264848   2.986   8.383   0.135
10438TIP3    H164849   3.044   8.402   0.211
10438TIP3    H264850   3.033   8.310   0.093
10439TIP3   OH264851   3.741   8.445   1.247
10439TIP3    H164852   3.672   8.514   1.252
10439TIP3    H264853   3.798   8.484   1.177
10440TIP3   OH264854   3.375   8.492   0.524
10440TIP3    H164855   3.303   8.521   0.585
10440TIP3    H264856   3.432   8.440   0.585
10441TIP3   OH264857   3.353   8.305   1.435
10441TIP3    H164858   3.336   8.385   1.487
10441TIP3    H264859   3.287   8.314   1.364
10442TIP3   OH264860   2.484   8.544   0.685
10442TIP3    H164861   2.471   8.499   0.599
10442TIP3    H264862   2.540   8.479   0.732
10443TIP3   OH264863   2.637   8.894   0.966
10443TIP3    H164864   2.649   8.902   0.870
10443TIP3    H264865   2.712   8.838   0.993
10444TIP3   OH264866   2.504   8.424   1.065
10444TIP3    H164867   2.541   8.424   0.974
10444TIP3    H264868   2.557   8.495   1.108
10445TIP3   OH264869   3.152   8.980   1.131
10445TIP3    H164870   3.124   9.054   1.189
10445TIP3    H264871   3.136   8.899   1.185
10446TIP3   OH264872   2.630   8.868   1.551
10446TIP3    H164873   2.569   8.939   1.581
10446TIP3    H264874   2.592   8.844   1.464
10447TIP3   OH264875   3.224   8.458   0.306
10447TIP3    H164876   3.284   8.470   0.384
10447TIP3    H264877   3.276   8.494   0.231
10448TIP3   OH264878   2.323   8.496   1.407
10448TIP3    H164879   2.338   8.585   1.441
10448TIP3    H264880   2.249   8.465   1.463
10449TIP3   OH264881   3.024   9.121   0.603
10449TIP3    H164882   3.062   9.144   0.689
10449TIP3    H264883   2.945   9.175   0.595
10450TIP3   OH264884   2.436   9.054   1.598
10450TIP3    H164885   2.422   9.065   1.502
10450TIP3    H264886   2.347   9.025   1.629
10451TIP3   OH264887   3.629   7.576   0.315
10451TIP3    H164888   3.531   7.578   0.321
10451TIP3    H264889   3.645   7.661   0.273
10452TIP3   OH264890   2.378   8.437   0.450
10452TIP3    H164891   2.334   8.520   0.423
10452TIP3    H264892   2.311   8.371   0.426
10453TIP3   OH264893   3.690   8.977   0.092
10453TIP3    H164894   3.712   9.073   0.099
10453TIP3    H264895   3.782   8.942   0.087
10454TIP3   OH264896   2.029   8.713   1.369
10454TIP3    H164897   1.979   8.701   1.286
10454TIP3    H264898   2.052   8.618   1.385
10455TIP3   OH264899   2.004   8.968   1.023
10455TIP3    H164900   2.096   8.961   0.995
10455TIP3    H264901   2.007   9.043   1.083
10456TIP3   OH264902   3.770   9.059   1.627
10456TIP3    H164903   3.759   8.964   1.645
10456TIP3    H264904   3.691   9.094   1.675
10457TIP3   OH264905   2.896   8.979   1.454
10457TIP3    H164906   2.905   9.070   1.487
10457TIP3    H264907   2.805   8.956   1.481
10458TIP3   OH264908   2.326   9.210   0.648
10458TIP3    H164909   2.355   9.196   0.742
10458TIP3    H264910   2.244   9.157   0.650
10459TIP3   OH264911   3.260   9.279   0.171
10459TIP3    H164912   3.330   9.220   0.138
10459TIP3    H264913   3.258   9.256   0.266
10460TIP3   OH264914   3.210   9.261   0.435
10460TIP3    H164915   3.116   9.281   0.444
10460TIP3    H264916   3.217   9.177   0.483
10461TIP3   OH264917   3.497   8.177   1.650
10461TIP3    H164918   3.450   8.212   1.572
10461TIP3    H264919   3.480   8.081   1.646
10462TIP3   OH264920   2.263   8.831   1.436
10462TIP3    H164921   2.268   8.793   1.526
10462TIP3    H264922   2.171   8.804   1.411
10463TIP3   OH264923   2.499   7.682   1.039
10463TIP3    H164924   2.407   7.691   1.006
10463TIP3    H264925   2.493   7.741   1.117
10464TIP3   OH264926   2.991   7.650   1.350
10464TIP3    H164927   3.031   7.614   1.432
10464TIP3    H264928   2.895   7.650   1.369
10465TIP3   OH264929   3.260   8.040   1.504
10465TIP3    H164930   3.186   8.017   1.565
10465TIP3    H264931   3.264   8.137   1.504
10466TIP3   OH264932   3.361   8.549   0.093
10466TIP3    H164933   3.366   8.560  -0.002
10466TIP3    H264934   3.433   8.609   0.119
10467TIP3   OH264935   2.943   7.956   0.110
10467TIP3    H164936   2.893   7.952   0.194
10467TIP3    H264937   2.911   7.878   0.065
10468TIP3   OH264938   2.513   8.171   1.158
10468TIP3    H164939   2.446   8.182   1.228
10468TIP3    H264940   2.514   8.263   1.123
10469TIP3   OH264941   2.503   8.169   0.647
10469TIP3    H164942   2.407   8.162   0.632
10469TIP3    H264943   2.540   8.146   0.559
10470TIP3   OH264944   3.079   8.255   0.534
10470TIP3    H164945   3.043   8.336   0.490
10470TIP3    H264946   3.132   8.219   0.461
10471TIP3   OH264947   2.953   8.290   1.704
10471TIP3    H164948   2.900   8.207   1.717
10471TIP3    H264949   3.038   8.264   1.746
10472TIP3   OH264950   3.146   8.207   0.849
10472TIP3    H164951   3.139   8.286   0.793
10472TIP3    H264952   3.157   8.137   0.782
10473TIP3   OH264953   2.257   8.169   1.290
10473TIP3    H164954   2.298   8.209   1.368
10473TIP3    H264955   2.233   8.081   1.325
10474TIP3   OH264956   2.595   7.968   0.067
10474TIP3    H164957   2.562   7.908   0.137
10474TIP3    H264958   2.566   8.057   0.098
10475TIP3   OH264959   1.943   7.907   0.740
10475TIP3    H164960   2.010   7.915   0.809
10475TIP3    H264961   1.985   7.948   0.664
10476TIP3   OH264962   2.046   7.979   0.250
10476TIP3    H164963   2.110   8.019   0.188
10476TIP3    H264964   1.995   8.058   0.277
10477TIP3   OH264965   3.068   8.349   1.262
10477TIP3    H164966   3.124   8.283   1.216
10477TIP3    H264967   3.015   8.292   1.322
10478TIP3   OH264968   2.802   7.924   0.738
10478TIP3    H164969   2.709   7.927   0.768
10478TIP3    H264970   2.850   7.899   0.819
10479TIP3   OH264971   2.230   8.083   0.654
10479TIP3    H164972   2.164   8.127   0.595
10479TIP3    H264973   2.247   7.997   0.607
10480TIP3   OH264974   2.583   8.119   0.391
10480TIP3    H164975   2.680   8.134   0.398
10480TIP3    H264976   2.557   8.168   0.310
10481TIP3   OH264977   3.213   7.863   1.056
10481TIP3    H164978   3.152   7.865   1.133
10481TIP3    H264979   3.169   7.806   0.991
10482TIP3   OH264980   2.512   8.214   0.149
10482TIP3    H164981   2.447   8.209   0.076
10482TIP3    H264982   2.583   8.269   0.110
10483TIP3   OH264983   2.279   8.672   1.662
10483TIP3    H164984   2.366   8.673   1.705
10483TIP3    H264985   2.220   8.645   1.734
10484TIP3   OH264986   2.846   8.208   0.897
10484TIP3    H164987   2.940   8.183   0.887
10484TIP3    H264988   2.815   8.147   0.966
10485TIP3   OH264989   2.342   7.837   0.589
10485TIP3    H164990   2.297   7.760   0.632
10485TIP3    H264991   2.387   7.795   0.513
10486TIP3   OH264992   2.757   8.041   1.175
10486TIP3    H164993   2.677   8.095   1.159
10486TIP3    H264994   2.807   8.094   1.238
10487TIP3   OH264995   2.820   8.674   0.382
10487TIP3    H164996   2.746   8.617   0.351
10487TIP3    H264997   2.780   8.706   0.468
10488TIP3   OH264998   3.534   8.640   1.253
10488TIP3    H164999   3.585   8.671   1.175
10488TIP3    H265000   3.450   8.617   1.212
10489TIP3   OH265001   3.200   7.967   0.165
10489TIP3    H165002   3.115   7.984   0.120
10489TIP3    H265003   3.220   8.054   0.204
10490TIP3   OH265004   2.966   8.695   1.514
10490TIP3    H165005   2.915   8.658   1.588
10490TIP3    H265006   2.935   8.787   1.512
10491TIP3   OH265007   3.268   8.185   0.320
10491TIP3    H165008   3.333   8.162   0.389
10491TIP3    H265009   3.296   8.276   0.298
10492TIP3   OH265010   2.330   8.635   0.923
10492TIP3    H165011   2.383   8.615   0.844
10492TIP3    H265012   2.346   8.558   0.980
10493TIP3   OH265013   3.022   8.823   0.286
10493TIP3    H165014   2.983   8.912   0.298
10493TIP3    H265015   2.947   8.764   0.309
10494TIP3   OH265016   2.036   8.455   1.463
10494TIP3    H165017   2.024   8.403   1.545
10494TIP3    H265018   1.972   8.411   1.404
10495TIP3   OH265019   2.692   8.436   1.628
10495TIP3    H165020   2.687   8.375   1.553
10495TIP3    H265021   2.780   8.417   1.663
10496TIP3   OH265022   3.218   8.940   1.462
10496TIP3    H165023   3.150   8.943   1.394
10496TIP3    H265024   3.170   8.980   1.536
10497TIP3   OH265025   3.745   8.164   0.323
10497TIP3    H165026   3.684   8.156   0.247
10497TIP3    H265027   3.766   8.260   0.315
10498TIP3   OH265028   3.774   8.741   1.583
10498TIP3    H165029   3.692   8.780   1.544
10498TIP3    H265030   3.830   8.736   1.504
10499TIP3   OH265031   3.558   9.058   0.343
10499TIP3    H165032   3.523   8.983   0.394
10499TIP3    H265033   3.595   9.015   0.263
10500TIP3   OH265034   3.307   8.523   1.041
10500TIP3    H165035   3.212   8.505   1.030
10500TIP3    H265036   3.343   8.454   0.981
10501TIP3   OH265037   2.557   8.964   0.693
10501TIP3    H165038   2.596   9.053   0.688
10501TIP3    H265039   2.482   8.973   0.633
10502TIP3   OH265040   2.129   8.429   0.140
10502TIP3    H165041   2.187   8.495   0.181
10502TIP3    H265042   2.039   8.458   0.164
10503TIP3   OH265043   2.685   8.741   0.607
10503TIP3    H165044   2.643   8.827   0.630
10503TIP3    H265045   2.649   8.682   0.676
10504TIP3   OH265046   2.740   9.194   1.261
10504TIP3    H165047   2.756   9.288   1.289
10504TIP3    H265048   2.807   9.145   1.310
10505TIP3   OH265049   2.597   9.211   0.572
10505TIP3    H165050   2.500   9.223   0.586
10505TIP3    H265051   2.626   9.294   0.616
10506TIP3   OH265052   3.073   8.733   1.246
10506TIP3    H165053   3.033   8.714   1.333
10506TIP3    H265054   3.123   8.652   1.230
10507TIP3   OH265055   3.339   8.889   0.175
10507TIP3    H165056   3.373   8.829   0.245
10507TIP3    H265057   3.245   8.867   0.176
10508TIP3   OH265058   3.408   9.220   1.434
10508TIP3    H165059   3.330   9.161   1.434
10508TIP3    H265060   3.377   9.304   1.396
10509TIP3   OH265061   3.747   9.233   0.139
10509TIP3    H165062   3.805   9.286   0.081
10509TIP3    H265063   3.697   9.303   0.188
10510TIP3   OH265064   2.230   7.937   1.444
10510TIP3    H165065   2.154   7.972   1.496
10510TIP3    H265066   2.245   7.855   1.493
10511TIP3   OH265067   3.424   8.712   0.363
10511TIP3    H165068   3.402   8.625   0.402
10511TIP3    H265069   3.520   8.715   0.384
10512TIP3   OH265070   2.163   9.103   1.260
10512TIP3    H165071   2.221   9.026   1.253
10512TIP3    H265072   2.197   9.149   1.338
10513TIP3   OH265073   2.631   8.924   0.239
10513TIP3    H165074   2.690   8.857   0.279
10513TIP3    H265075   2.667   9.007   0.273
10514TIP3   OH265076   2.269   8.640   0.278
10514TIP3    H165077   2.196   8.683   0.328
10514TIP3    H265078   2.323   8.717   0.252
10515TIP3   OH265079   3.094   7.896   1.307
10515TIP3    H165080   3.147   7.922   1.384
10515TIP3    H265081   3.052   7.812   1.338
10516TIP3   OH265082   3.129   7.887   0.463
10516TIP3    H165083   3.167   7.927   0.384
10516TIP3    H265084   3.166   7.939   0.538
10517TIP3   OH265085   2.920   9.088   0.304
10517TIP3    H165086   2.835   9.134   0.301
10517TIP3    H265087   2.965   9.122   0.223
10518TIP3   OH265088   2.858   8.077   0.508
10518TIP3    H165089   2.933   8.138   0.526
10518TIP3    H265090   2.846   8.032   0.594
10519TIP3   OH265091   2.946   8.171   1.444
10519TIP3    H165092   2.943   8.195   1.539
10519TIP3    H265093   2.964   8.076   1.444
10520TIP3   OH265094   2.933   7.735   0.559
10520TIP3    H165095   2.893   7.796   0.625
10520TIP3    H265096   3.010   7.791   0.529
10521TIP3   OH265097   2.646   9.241   0.300
10521TIP3    H165098   2.657   9.336   0.294
10521TIP3    H265099   2.615   9.226   0.392
10522TIP3   OH265100   2.488   7.858   0.294
10522TIP3    H165101   2.493   7.946   0.340
10522TIP3    H265102   2.573   7.820   0.322
10523TIP3   OH265103   3.507   7.928   1.524
10523TIP3    H165104   3.414   7.958   1.510
10523TIP3    H265105   3.544   7.932   1.434
10524TIP3   OH265106   3.409   8.303   0.887
10524TIP3    H165107   3.336   8.243   0.910
10524TIP3    H265108   3.480   8.268   0.946
10525TIP3   OH265109   2.334   8.889   0.141
10525TIP3    H165110   2.399   8.937   0.194
10525TIP3    H265111   2.394   8.837   0.084
10526TIP3   OH265112   2.179   8.175   0.058
10526TIP3    H165113   2.186   8.267   0.090
10526TIP3    H265114   2.095   8.179   0.011
10527TIP3   OH265115   3.457   9.229   1.085
10527TIP3    H165116   3.460   9.295   1.013
10527TIP3    H265117   3.550   9.234   1.115
10528TIP3   OH265118   2.245   7.655   0.966
10528TIP3    H165119   2.242   7.638   0.870
10528TIP3    H265120   2.225   7.565   1.001
10529TIP3   OH265121   2.118   9.015   0.538
10529TIP3    H165122   2.044   9.062   0.579
10529TIP3    H265123   2.125   9.074   0.459
10530TIP3   OH265124   2.022   9.278   1.692
10530TIP3    H165125   2.084   9.250   1.763
10530TIP3    H265126   1.990   9.190   1.660
10531TIP3   OH265127   2.555   9.176   1.831
10531TIP3    H165128   2.639   9.216   1.809
10531TIP3    H265129   2.518   9.151   1.744
10532TIP3   OH265130   3.020   9.160   0.074
10532TIP3    H165131   2.964   9.116   0.006
10532TIP3    H265132   3.099   9.186   0.024
10533TIP3   OH265133   3.166   9.065   1.737
10533TIP3    H165134   3.139   8.975   1.766
10533TIP3    H265135   3.263   9.059   1.742
10534TIP3   OH265136   3.444   9.127   0.015
10534TIP3    H165137   3.438   9.044   0.068
10534TIP3    H265138   3.541   9.135   0.005
10535TIP3   OH265139   2.005   8.685   1.788
10535TIP3    H165140   2.006   8.589   1.776
10535TIP3    H265141   1.954   8.716   1.708
10536TIP3   OH265142   2.513   8.704   0.035
10536TIP3    H165143   2.546   8.656   0.114
10536TIP3    H265144   2.565   8.663  -0.037
10537TIP3   OH265145   2.748   8.686   1.746
10537TIP3    H165146   2.702   8.744   1.682
10537TIP3    H265147   2.706   8.599   1.730
10538TIP3   OH265148   3.284   8.665   1.481
10538TIP3    H165149   3.365   8.719   1.483
10538TIP3    H265150   3.220   8.737   1.496
10539TIP3   OH265151   2.161   8.397   1.770
10539TIP3    H165152   2.203   8.316   1.806
10539TIP3    H265153   2.168   8.454   1.849
10540TIP3   OH265154   2.623   8.538   0.252
10540TIP3    H165155   2.556   8.485   0.298
10540TIP3    H265156   2.666   8.472   0.193
10541TIP3   OH265157   2.509   8.300   1.405
10541TIP3    H165158   2.452   8.369   1.441
10541TIP3    H265159   2.581   8.355   1.368
10542TIP3   OH265160   2.726   8.358   0.060
10542TIP3    H165161   2.754   8.361  -0.033
10542TIP3    H265162   2.814   8.355   0.104
10543TIP3   OH265163   3.067   8.550   1.836
10543TIP3    H165164   3.098   8.515   1.751
10543TIP3    H265165   3.011   8.478   1.872
10544TIP3   OH265166   3.631   8.645   8.475
10544TIP3    H165167   3.579   8.659   8.394
10544TIP3    H265168   3.653   8.735   8.502
10545TIP3   OH265169   2.612   8.076   1.538
10545TIP3    H165170   2.625   7.999   1.479
10545TIP3    H265171   2.598   8.150   1.476
10546TIP3   OH265172   2.642   7.877   1.351
10546TIP3    H165173   2.686   7.924   1.277
10546TIP3    H265174   2.553   7.864   1.313
10547TIP3   OH265175   2.739   8.452   1.347
10547TIP3    H165176   2.829   8.483   1.328
10547TIP3    H265177   2.687   8.523   1.304
10548TIP3   OH265178   3.223   8.178   1.817
10548TIP3    H165179   3.253   8.089   1.796
10548TIP3    H265180   3.306   8.227   1.806
10549TIP3   OH265181   3.354   8.498   1.690
10549TIP3    H165182   3.329   8.557   1.616
10549TIP3    H265183   3.450   8.488   1.674
10550TIP3   OH265184   2.435   8.103   1.750
10550TIP3    H165185   2.350   8.058   1.729
10550TIP3    H265186   2.493   8.089   1.673
10551TIP3   OH265187   2.719   7.622   1.349
10551TIP3    H165188   2.686   7.715   1.350
10551TIP3    H265189   2.640   7.574   1.320
10552TIP3   OH265190   2.820   8.062   1.752
10552TIP3    H165191   2.786   8.033   1.839
10552TIP3    H265192   2.749   8.028   1.696
10553TIP3   OH265193   3.068   7.969   1.671
10553TIP3    H165194   2.979   7.992   1.705
10553TIP3    H265195   3.094   7.904   1.739
10554TIP3   OH265196   3.275   7.821   1.826
10554TIP3    H165197   3.250   7.726   1.829
10554TIP3    H265198   3.249   7.847   1.917
10555TIP3   OH265199   2.223   7.927   1.777
10555TIP3    H165200   2.197   7.841   1.739
10555TIP3    H265201   2.222   7.913   1.874
10556TIP3   OH265202   2.655   7.546   1.608
10556TIP3    H165203   2.731   7.496   1.641
10556TIP3    H265204   2.684   7.563   1.516
10557TIP3   OH265205   2.772   7.773   1.794
10557TIP3    H165206   2.742   7.683   1.810
10557TIP3    H265207   2.709   7.826   1.844
10558TIP3   OH265208   2.055   8.870   0.094
10558TIP3    H165209   2.150   8.868   0.120
10558TIP3    H265210   2.064   8.865  -0.003
10559TIP3   OH265211   2.044   9.222   0.803
10559TIP3    H165212   1.958   9.206   0.843
10559TIP3    H265213   2.095   9.255   0.879
10560TIP3   OH265214   3.717   9.296   1.120
10560TIP3    H165215   3.780   9.309   1.193
10560TIP3    H265216   3.733   9.374   1.066
10561TIP3   OH265217   3.743   9.216   1.382
10561TIP3    H165218   3.705   9.147   1.326
10561TIP3    H265219   3.764   9.165   1.462
10562TIP3   OH265220   3.601   8.829   1.848
10562TIP3    H165221   3.516   8.825   1.895
10562TIP3    H265222   3.654   8.892   1.902
10563TIP3   OH265223   3.695   8.660   0.386
10563TIP3    H165224   3.779   8.711   0.395
10563TIP3    H265225   3.700   8.599   0.463
10564TIP3   OH265226   3.737   8.480   0.586
10564TIP3    H165227   3.662   8.431   0.627
10564TIP3    H265228   3.795   8.493   0.664
10565TIP3   OH265229   3.698   8.717   1.054
10565TIP3    H165230   3.777   8.661   1.041
10565TIP3    H265231   3.733   8.805   1.030
10566TIP3   OH265232   3.587   9.013   1.277
10566TIP3    H165233   3.523   9.075   1.315
10566TIP3    H265234   3.542   8.985   1.194
10567TIP3   OH265235   3.724   8.431   0.225
10567TIP3    H165236   3.661   8.445   0.152
10567TIP3    H265237   3.706   8.507   0.283
10568TIP3   OH265238   3.544   8.169   0.087
10568TIP3    H165239   3.611   8.210   0.030
10568TIP3    H265240   3.555   8.076   0.056
10569TIP3   OH265241   3.546   8.306   0.656
10569TIP3    H165242   3.520   8.220   0.621
10569TIP3    H265243   3.505   8.306   0.745
10570TIP3   OH265244   2.017   8.556   1.062
10570TIP3    H165245   2.013   8.518   0.971
10570TIP3    H265246   2.106   8.521   1.087
10571TIP3   OH265247   3.617   8.511   1.612
10571TIP3    H165248   3.678   8.435   1.623
10571TIP3    H265249   3.675   8.585   1.583
10572TIP3   OH265250   3.743   8.278   1.642
10572TIP3    H165251   3.653   8.236   1.647
10572TIP3    H265252   3.801   8.199   1.651
10573TIP3   OH265253   3.532   7.921  -0.020
10573TIP3    H165254   3.589   7.873   0.044
10573TIP3    H265255   3.441   7.911   0.016
10574TIP3   OH265256   3.464   8.099   0.495
10574TIP3    H165257   3.492   8.011   0.528
10574TIP3    H265258   3.522   8.103   0.417
10575TIP3   OH265259   3.572   8.168   1.054
10575TIP3    H165260   3.670   8.163   1.044
10575TIP3    H265261   3.568   8.185   1.149
10576TIP3   OH265262   3.586   8.228   1.321
10576TIP3    H165263   3.499   8.255   1.359
10576TIP3    H265264   3.629   8.316   1.310
10577TIP3   OH265265   2.021   8.034   1.635
10577TIP3    H165266   2.088   8.041   1.707
10577TIP3    H265267   1.972   7.955   1.665
10578TIP3   OH265268   3.548   7.825   0.514
10578TIP3    H165269   3.588   7.778   0.591
10578TIP3    H265270   3.505   7.751   0.468
10579TIP3   OH265271   2.105   7.890   1.001
10579TIP3    H165272   2.141   7.799   0.990
10579TIP3    H265273   2.186   7.945   1.002
10580TIP3   OH265274   1.947   8.204   1.064
10580TIP3    H165275   2.004   8.175   0.991
10580TIP3    H265276   2.006   8.270   1.103
10581TIP3   OH265277   3.703   7.833   1.685
10581TIP3    H165278   3.630   7.879   1.637
10581TIP3    H265279   3.725   7.767   1.617
10582TIP3   OH265280   3.734   7.836   0.145
10582TIP3    H165281   3.786   7.774   0.092
10582TIP3    H265282   3.805   7.898   0.175
10583TIP3   OH265283   1.965   7.808   0.448
10583TIP3    H165284   1.870   7.815   0.463
10583TIP3    H265285   1.977   7.852   0.362
10584TIP3   OH265286   3.421   9.310   0.631
10584TIP3    H165287   3.513   9.284   0.611
10584TIP3    H265288   3.434   9.371   0.706
10585TIP3   OH265289   1.950   7.667   1.277
10585TIP3    H165290   1.887   7.640   1.347
10585TIP3    H265291   1.902   7.736   1.228
10586TIP3   OH265292   2.208   8.973   1.710
10586TIP3    H165293   2.134   8.923   1.673
10586TIP3    H265294   2.171   9.010   1.792
10587TIP3   OH265295   2.485   9.123   1.343
10587TIP3    H165296   2.467   9.218   1.354
10587TIP3    H265297   2.576   9.130   1.307
10588TIP3   OH265298   2.927   9.233   1.576
10588TIP3    H165299   2.903   9.212   1.669
10588TIP3    H265300   3.022   9.246   1.585
10589TIP3   OH265301   3.641   7.609   1.485
10589TIP3    H165302   3.558   7.643   1.448
10589TIP3    H265303   3.651   7.525   1.435
10590TIP3   OH265304   3.138   9.217   1.295
10590TIP3    H165305   3.080   9.286   1.259
10590TIP3    H265306   3.220   9.241   1.250
10591TIP3   OH265307   2.183   9.274   1.050
10591TIP3    H165308   2.167   9.228   1.136
10591TIP3    H265309   2.259   9.221   1.014
10592TIP3   OH265310   2.372   9.161   0.901
10592TIP3    H165311   2.361   9.064   0.912
10592TIP3    H265312   2.458   9.175   0.947
10593TIP3   OH265313   2.602   9.159   1.030
10593TIP3    H165314   2.617   9.061   1.021
10593TIP3    H265315   2.648   9.179   1.114
10594TIP3   OH265316   2.960   7.762   0.920
10594TIP3    H165317   2.883   7.723   0.964
10594TIP3    H265318   2.984   7.694   0.856
10595TIP3   OH265319   3.518   7.590   0.903
10595TIP3    H165320   3.583   7.639   0.848
10595TIP3    H265321   3.431   7.615   0.862
10596TIP3   OH265322   3.679   7.688   0.717
10596TIP3    H165323   3.749   7.634   0.674
10596TIP3    H265324   3.731   7.770   0.738
10597TIP3   OH265325   2.226   7.613   0.693
10597TIP3    H165326   2.144   7.600   0.642
10597TIP3    H265327   2.271   7.528   0.676
10598TIP3   OH265328   2.086   7.607   0.247
10598TIP3    H165329   2.149   7.666   0.199
10598TIP3    H265330   2.049   7.665   0.317
10599TIP3   OH265331   2.647   7.587   0.677
10599TIP3    H165332   2.734   7.594   0.637
10599TIP3    H265333   2.656   7.638   0.759
10600TIP3   OH265334   3.267   7.623   0.801
10600TIP3    H165335   3.232   7.652   0.716
10600TIP3    H265336   3.208   7.548   0.825
10601TIP3   OH265337   3.382   7.613   0.369
10601TIP3    H165338   3.302   7.666   0.361
10601TIP3    H265339   3.344   7.531   0.410
10602TIP3   OH265340   2.056   9.204   0.366
10602TIP3    H165341   1.971   9.202   0.319
10602TIP3    H265342   2.096   9.280   0.320
10603TIP3   OH265343   2.267   7.740   0.107
10603TIP3    H165344   2.355   7.703   0.095
10603TIP3    H265345   2.287   7.827   0.146
10604TIP3   OH265346   2.781   7.863   0.356
10604TIP3    H165347   2.824   7.797   0.414
10604TIP3    H265348   2.809   7.945   0.403
10605TIP3   OH265349   3.024   9.407   0.198
10605TIP3    H165350   3.116   9.375   0.196
10605TIP3    H265351   2.985   9.333   0.148
10606TIP3   OH265352   3.651   9.243   0.520
10606TIP3    H165353   3.621   9.177   0.453
10606TIP3    H265354   3.645   9.324   0.465
10607TIP3   OH265355   2.198   7.686   1.639
10607TIP3    H165356   2.141   7.609   1.653
10607TIP3    H265357   2.276   7.667   1.695
10608TIP3   OH265358   2.410   7.627   1.811
10608TIP3    H165359   2.485   7.658   1.758
10608TIP3    H265360   2.444   7.538   1.832
10609TIP3   OH265361   2.322   9.314   0.057
10609TIP3    H165362   2.250   9.344   0.115
10609TIP3    H265363   2.334   9.222   0.082
10610TIP3   OH265364   3.210   7.558   1.837
10610TIP3    H165365   3.212   7.514   1.927
10610TIP3    H265366   3.293   7.525   1.799
10611TIP3   OH265367   3.526   9.170   1.677
10611TIP3    H165368   3.494   9.171   1.584
10611TIP3    H265369   3.577   9.254   1.678
10612TIP3   OH265370   5.041   8.570   0.672
10612TIP3    H165371   5.031   8.667   0.684
10612TIP3    H265372   4.956   8.549   0.630
10613TIP3   OH265373   4.893   8.423   1.006
10613TIP3    H165374   4.899   8.378   1.093
10613TIP3    H265375   4.826   8.371   0.957
10614TIP3   OH265376   4.107   8.429   1.154
10614TIP3    H165377   4.117   8.367   1.227
10614TIP3    H265378   4.181   8.489   1.168
10615TIP3   OH265379   5.239   8.770   0.886
10615TIP3    H165380   5.243   8.688   0.938
10615TIP3    H265381   5.253   8.839   0.953
10616TIP3   OH265382   4.220   8.902   0.978
10616TIP3    H165383   4.186   8.812   0.964
10616TIP3    H265384   4.314   8.883   0.961
10617TIP3   OH265385   3.902   8.212   0.558
10617TIP3    H165386   3.871   8.303   0.571
10617TIP3    H265387   3.829   8.176   0.504
10618TIP3   OH265388   3.930   8.460   0.811
10618TIP3    H165389   3.963   8.367   0.815
10618TIP3    H265390   4.012   8.512   0.802
10619TIP3   OH265391   4.978   9.256   0.934
10619TIP3    H165392   5.047   9.229   0.868
10619TIP3    H265393   4.967   9.172   0.981
10620TIP3   OH265394   4.747   8.706   1.067
10620TIP3    H165395   4.782   8.635   1.011
10620TIP3    H265396   4.828   8.736   1.113
10621TIP3   OH265397   5.583   7.850   1.093
10621TIP3    H165398   5.604   7.910   1.167
10621TIP3    H265399   5.659   7.863   1.034
10622TIP3   OH265400   5.087   8.165   1.115
10622TIP3    H165401   5.099   8.070   1.137
10622TIP3    H265402   5.082   8.157   1.017
10623TIP3   OH265403   4.388   7.940   0.779
10623TIP3    H165404   4.389   8.027   0.733
10623TIP3    H265405   4.331   7.890   0.716
10624TIP3   OH265406   5.127   7.991   0.672
10624TIP3    H165407   5.188   7.946   0.735
10624TIP3    H265408   5.187   8.050   0.626
10625TIP3   OH265409   4.018   8.208   0.874
10625TIP3    H165410   4.078   8.166   0.938
10625TIP3    H265411   4.052   8.169   0.790
10626TIP3   OH265412   4.498   8.355   0.829
10626TIP3    H165413   4.579   8.303   0.850
10626TIP3    H265414   4.454   8.293   0.767
10627TIP3   OH265415   5.609   7.998   1.327
10627TIP3    H165416   5.567   8.078   1.287
10627TIP3    H265417   5.657   8.040   1.400
10628TIP3   OH265418   4.292   7.862   1.213
10628TIP3    H165419   4.239   7.907   1.143
10628TIP3    H265420   4.234   7.877   1.290
10629TIP3   OH265421   4.951   8.811   0.557
10629TIP3    H165422   4.945   8.797   0.461
10629TIP3    H265423   4.929   8.906   0.564
10630TIP3   OH265424   4.502   8.628   1.195
10630TIP3    H165425   4.452   8.706   1.230
10630TIP3    H265426   4.572   8.672   1.143
10631TIP3   OH265427   5.322   7.908   0.829
10631TIP3    H165428   5.330   7.853   0.909
10631TIP3    H265429   5.395   7.969   0.846
10632TIP3   OH265430   4.223   8.046   0.998
10632TIP3    H165431   4.284   8.109   1.042
10632TIP3    H265432   4.276   8.020   0.919
10633TIP3   OH265433   4.376   8.841   1.308
10633TIP3    H165434   4.372   8.938   1.293
10633TIP3    H265435   4.281   8.826   1.330
10634TIP3   OH265436   3.946   8.780   0.393
10634TIP3    H165437   3.954   8.834   0.312
10634TIP3    H265438   3.956   8.849   0.463
10635TIP3   OH265439   5.313   8.955   1.076
10635TIP3    H165440   5.217   8.967   1.088
10635TIP3    H265441   5.337   9.048   1.056
10636TIP3   OH265442   5.317   7.785   1.192
10636TIP3    H165443   5.233   7.808   1.144
10636TIP3    H265444   5.385   7.821   1.133
10637TIP3   OH265445   4.622   7.603   0.954
10637TIP3    H165446   4.595   7.512   0.937
10637TIP3    H265447   4.534   7.641   0.978
10638TIP3   OH265448   5.142   9.153   0.757
10638TIP3    H165449   5.155   9.069   0.711
10638TIP3    H265450   5.200   9.215   0.706
10639TIP3   OH265451   5.272   8.904   0.576
10639TIP3    H165452   5.245   8.844   0.504
10639TIP3    H265453   5.259   8.848   0.654
10640TIP3   OH265454   5.433   8.816   1.459
10640TIP3    H165455   5.436   8.743   1.393
10640TIP3    H265456   5.455   8.892   1.400
10641TIP3   OH265457   4.870   8.472   0.410
10641TIP3    H165458   4.807   8.545   0.391
10641TIP3    H265459   4.953   8.506   0.370
10642TIP3   OH265460   4.867   8.381   0.138
10642TIP3    H165461   4.925   8.400   0.214
10642TIP3    H265462   4.916   8.310   0.094
10643TIP3   OH265463   5.619   8.433   1.230
10643TIP3    H165464   5.564   8.512   1.248
10643TIP3    H265465   5.676   8.468   1.159
10644TIP3   OH265466   5.257   8.489   0.527
10644TIP3    H165467   5.185   8.517   0.587
10644TIP3    H265468   5.318   8.441   0.587
10645TIP3   OH265469   5.233   8.312   1.440
10645TIP3    H165470   5.213   8.401   1.474
10645TIP3    H265471   5.177   8.312   1.361
10646TIP3   OH265472   4.376   8.549   0.691
10646TIP3    H165473   4.360   8.507   0.604
10646TIP3    H265474   4.430   8.482   0.736
10647TIP3   OH265475   4.522   8.891   0.968
10647TIP3    H165476   4.536   8.901   0.872
10647TIP3    H265477   4.601   8.841   0.996
10648TIP3   OH265478   4.388   8.426   1.068
10648TIP3    H165479   4.430   8.420   0.980
10648TIP3    H265480   4.445   8.492   1.113
10649TIP3   OH265481   5.042   8.986   1.122
10649TIP3    H165482   5.013   9.064   1.174
10649TIP3    H265483   5.020   8.910   1.180
10650TIP3   OH265484   4.520   8.848   1.558
10650TIP3    H165485   4.462   8.922   1.586
10650TIP3    H265486   4.481   8.829   1.469
10651TIP3   OH265487   5.109   8.457   0.302
10651TIP3    H165488   5.167   8.472   0.380
10651TIP3    H265489   5.162   8.495   0.228
10652TIP3   OH265490   4.216   8.501   1.427
10652TIP3    H165491   4.217   8.589   1.468
10652TIP3    H265492   4.129   8.469   1.457
10653TIP3   OH265493   4.903   9.112   0.621
10653TIP3    H165494   4.933   9.140   0.709
10653TIP3    H265495   4.830   9.171   0.600
10654TIP3   OH265496   4.356   9.047   1.617
10654TIP3    H165497   4.338   9.063   1.522
10654TIP3    H265498   4.267   9.025   1.650
10655TIP3   OH265499   5.518   7.576   0.310
10655TIP3    H165500   5.420   7.579   0.321
10655TIP3    H265501   5.533   7.661   0.266
10656TIP3   OH265502   4.264   8.438   0.459
10656TIP3    H165503   4.221   8.520   0.427
10656TIP3    H265504   4.204   8.371   0.426
10657TIP3   OH265505   5.576   8.984   0.089
10657TIP3    H165506   5.602   9.078   0.105
10657TIP3    H265507   5.665   8.943   0.092
10658TIP3   OH265508   3.929   8.718   1.352
10658TIP3    H165509   3.876   8.715   1.272
10658TIP3    H265510   3.952   8.623   1.363
10659TIP3   OH265511   3.874   8.974   1.060
10659TIP3    H165512   3.967   8.992   1.041
10659TIP3    H265513   3.845   9.053   1.108
10660TIP3   OH265514   5.663   9.058   1.644
10660TIP3    H165515   5.648   8.961   1.651
10660TIP3    H265516   5.572   9.090   1.666
10661TIP3   OH265517   4.775   8.943   1.510
10661TIP3    H165518   4.782   9.037   1.538
10661TIP3    H265519   4.680   8.924   1.524
10662TIP3   OH265520   4.218   9.221   0.643
10662TIP3    H165521   4.243   9.207   0.738
10662TIP3    H265522   4.137   9.169   0.640
10663TIP3   OH265523   5.140   9.286   0.170
10663TIP3    H165524   5.209   9.227   0.137
10663TIP3    H265525   5.142   9.264   0.265
10664TIP3   OH265526   5.098   9.254   0.432
10664TIP3    H165527   5.005   9.271   0.451
10664TIP3    H265528   5.119   9.181   0.491
10665TIP3   OH265529   5.385   8.184   1.637
10665TIP3    H165530   5.330   8.222   1.568
10665TIP3    H265531   5.378   8.087   1.623
10666TIP3   OH265532   4.143   8.851   1.434
10666TIP3    H165533   4.149   8.815   1.526
10666TIP3    H265534   4.056   8.813   1.405
10667TIP3   OH265535   4.389   7.701   1.024
10667TIP3    H165536   4.296   7.702   0.994
10667TIP3    H265537   4.382   7.758   1.102
10668TIP3   OH265538   4.856   7.641   1.366
10668TIP3    H165539   4.894   7.604   1.449
10668TIP3    H265540   4.760   7.641   1.384
10669TIP3   OH265541   5.167   8.048   1.481
10669TIP3    H165542   5.099   8.031   1.550
10669TIP3    H265543   5.179   8.144   1.487
10670TIP3   OH265544   5.251   8.546   0.094
10670TIP3    H165545   5.246   8.561  -0.001
10670TIP3    H265546   5.334   8.594   0.114
10671TIP3   OH265547   4.826   7.956   0.110
10671TIP3    H165548   4.778   7.957   0.194
10671TIP3    H265549   4.804   7.867   0.077
10672TIP3   OH265550   4.397   8.174   1.160
10672TIP3    H165551   4.319   8.161   1.218
10672TIP3    H265552   4.385   8.269   1.135
10673TIP3   OH265553   4.387   8.170   0.648
10673TIP3    H165554   4.291   8.165   0.631
10673TIP3    H265555   4.426   8.152   0.560
10674TIP3   OH265556   4.960   8.251   0.528
10674TIP3    H165557   4.926   8.335   0.487
10674TIP3    H265558   5.014   8.216   0.455
10675TIP3   OH265559   4.813   8.293   1.688
10675TIP3    H165560   4.794   8.199   1.710
10675TIP3    H265561   4.905   8.301   1.719
10676TIP3   OH265562   5.055   8.210   0.835
10676TIP3    H165563   5.029   8.293   0.790
10676TIP3    H265564   5.042   8.146   0.763
10677TIP3   OH265565   4.155   8.167   1.284
10677TIP3    H165566   4.181   8.217   1.363
10677TIP3    H265567   4.124   8.084   1.324
10678TIP3   OH265568   4.487   7.968   0.065
10678TIP3    H165569   4.450   7.908   0.133
10678TIP3    H265570   4.456   8.056   0.096
10679TIP3   OH265571   3.840   7.913   0.752
10679TIP3    H165572   3.909   7.921   0.820
10679TIP3    H265573   3.877   7.962   0.677
10680TIP3   OH265574   3.932   7.981   0.257
10680TIP3    H165575   3.996   8.017   0.193
10680TIP3    H265576   3.881   8.061   0.276
10681TIP3   OH265577   4.943   8.336   1.261
10681TIP3    H165578   5.007   8.276   1.216
10681TIP3    H265579   4.900   8.275   1.325
10682TIP3   OH265580   4.688   7.924   0.739
10682TIP3    H165581   4.594   7.924   0.768
10682TIP3    H265582   4.736   7.905   0.822
10683TIP3   OH265583   4.117   8.086   0.653
10683TIP3    H165584   4.046   8.125   0.596
10683TIP3    H265585   4.136   8.000   0.609
10684TIP3   OH265586   4.463   8.124   0.387
10684TIP3    H165587   4.559   8.134   0.397
10684TIP3    H265588   4.443   8.172   0.304
10685TIP3   OH265589   5.094   7.865   1.065
10685TIP3    H165590   5.025   7.867   1.135
10685TIP3    H265591   5.056   7.810   0.995
10686TIP3   OH265592   4.399   8.214   0.146
10686TIP3    H165593   4.332   8.208   0.075
10686TIP3    H265594   4.469   8.269   0.104
10687TIP3   OH265595   4.175   8.699   1.670
10687TIP3    H165596   4.255   8.688   1.725
10687TIP3    H265597   4.107   8.666   1.732
10688TIP3   OH265598   4.732   8.204   0.893
10688TIP3    H165599   4.826   8.180   0.888
10688TIP3    H265600   4.697   8.143   0.960
10689TIP3   OH265601   4.220   7.839   0.583
10689TIP3    H165602   4.174   7.766   0.631
10689TIP3    H265603   4.263   7.788   0.512
10690TIP3   OH265604   4.638   8.038   1.174
10690TIP3    H165605   4.556   8.092   1.161
10690TIP3    H265606   4.691   8.094   1.232
10691TIP3   OH265607   4.702   8.674   0.382
10691TIP3    H165608   4.629   8.617   0.349
10691TIP3    H265609   4.662   8.706   0.467
10692TIP3   OH265610   5.438   8.641   1.252
10692TIP3    H165611   5.481   8.685   1.175
10692TIP3    H265612   5.349   8.628   1.215
10693TIP3   OH265613   5.083   7.966   0.176
10693TIP3    H165614   5.004   7.986   0.123
10693TIP3    H265615   5.105   8.054   0.211
10694TIP3   OH265616   4.881   8.696   1.542
10694TIP3    H165617   4.809   8.632   1.539
10694TIP3    H265618   4.832   8.781   1.534
10695TIP3   OH265619   5.155   8.186   0.325
10695TIP3    H165620   5.211   8.166   0.402
10695TIP3    H265621   5.180   8.277   0.303
10696TIP3   OH265622   4.213   8.632   0.910
10696TIP3    H165623   4.268   8.615   0.830
10696TIP3    H265624   4.237   8.558   0.968
10697TIP3   OH265625   4.903   8.824   0.284
10697TIP3    H165626   4.863   8.913   0.297
10697TIP3    H265627   4.829   8.766   0.311
10698TIP3   OH265628   3.933   8.458   1.455
10698TIP3    H165629   3.912   8.407   1.537
10698TIP3    H265630   3.866   8.422   1.394
10699TIP3   OH265631   4.563   8.399   1.661
10699TIP3    H165632   4.516   8.358   1.587
10699TIP3    H265633   4.644   8.343   1.663
10700TIP3   OH265634   5.094   9.006   1.458
10700TIP3    H165635   5.025   8.974   1.399
10700TIP3    H265636   5.053   9.000   1.545
10701TIP3   OH265637   5.630   8.165   0.325
10701TIP3    H165638   5.571   8.154   0.248
10701TIP3    H265639   5.651   8.260   0.316
10702TIP3   OH265640   5.656   8.783   1.606
10702TIP3    H165641   5.563   8.794   1.574
10702TIP3    H265642   5.703   8.772   1.520
10703TIP3   OH265643   5.455   9.050   0.349
10703TIP3    H165644   5.409   8.978   0.394
10703TIP3    H265645   5.486   9.008   0.266
10704TIP3   OH265646   5.193   8.544   1.052
10704TIP3    H165647   5.106   8.517   1.018
10704TIP3    H265648   5.250   8.477   1.010
10705TIP3   OH265649   4.438   8.962   0.695
10705TIP3    H165650   4.471   9.054   0.698
10705TIP3    H265651   4.366   8.970   0.631
10706TIP3   OH265652   4.020   8.431   0.135
10706TIP3    H165653   4.078   8.493   0.183
10706TIP3    H265654   3.930   8.460   0.159
10707TIP3   OH265655   4.573   8.741   0.611
10707TIP3    H165656   4.530   8.828   0.628
10707TIP3    H265657   4.534   8.686   0.680
10708TIP3   OH265658   4.647   9.197   1.274
10708TIP3    H165659   4.652   9.295   1.282
10708TIP3    H265660   4.715   9.168   1.337
10709TIP3   OH265661   4.483   9.210   0.563
10709TIP3    H165662   4.386   9.222   0.579
10709TIP3    H265663   4.513   9.291   0.609
10710TIP3   OH265664   4.963   8.737   1.243
10710TIP3    H165665   4.926   8.714   1.331
10710TIP3    H265666   5.028   8.666   1.229
10711TIP3   OH265667   5.223   8.895   0.185
10711TIP3    H165668   5.256   8.829   0.250
10711TIP3    H265669   5.130   8.866   0.179
10712TIP3   OH265670   5.254   9.235   1.466
10712TIP3    H165671   5.188   9.164   1.449
10712TIP3    H265672   5.234   9.306   1.404
10713TIP3   OH265673   5.641   9.239   0.149
10713TIP3    H165674   5.691   9.286   0.080
10713TIP3    H265675   5.587   9.311   0.189
10714TIP3   OH265676   4.104   7.945   1.432
10714TIP3    H165677   4.017   7.983   1.449
10714TIP3    H265678   4.104   7.871   1.494
10715TIP3   OH265679   5.312   8.709   0.367
10715TIP3    H165680   5.289   8.626   0.415
10715TIP3    H265681   5.409   8.711   0.381
10716TIP3   OH265682   4.072   9.125   1.264
10716TIP3    H165683   4.114   9.038   1.260
10716TIP3    H265684   4.101   9.160   1.349
10717TIP3   OH265685   4.516   8.922   0.229
10717TIP3    H165686   4.576   8.860   0.275
10717TIP3    H265687   4.537   9.007   0.269
10718TIP3   OH265688   4.146   8.637   0.283
10718TIP3    H165689   4.077   8.680   0.339
10718TIP3    H265690   4.192   8.714   0.246
10719TIP3   OH265691   4.975   7.898   1.321
10719TIP3    H165692   5.045   7.928   1.380
10719TIP3    H265693   4.941   7.817   1.365
10720TIP3   OH265694   5.008   7.888   0.462
10720TIP3    H165695   5.050   7.926   0.384
10720TIP3    H265696   5.054   7.933   0.537
10721TIP3   OH265697   4.807   9.079   0.308
10721TIP3    H165698   4.719   9.118   0.303
10721TIP3    H265699   4.853   9.122   0.233
10722TIP3   OH265700   4.743   8.077   0.506
10722TIP3    H165701   4.821   8.135   0.523
10722TIP3    H265702   4.729   8.034   0.593
10723TIP3   OH265703   4.832   8.154   1.433
10723TIP3    H165704   4.817   8.185   1.525
10723TIP3    H265705   4.855   8.060   1.445
10724TIP3   OH265706   4.814   7.734   0.556
10724TIP3    H165707   4.775   7.797   0.621
10724TIP3    H265708   4.891   7.790   0.524
10725TIP3   OH265709   4.519   9.227   0.284
10725TIP3    H165710   4.569   9.310   0.279
10725TIP3    H265711   4.490   9.219   0.377
10726TIP3   OH265712   4.378   7.858   0.292
10726TIP3    H165713   4.380   7.942   0.342
10726TIP3    H265714   4.464   7.819   0.319
10727TIP3   OH265715   5.413   7.933   1.523
10727TIP3    H165716   5.319   7.952   1.502
10727TIP3    H265717   5.452   7.937   1.434
10728TIP3   OH265718   5.303   8.316   0.891
10728TIP3    H165719   5.224   8.260   0.896
10728TIP3    H265720   5.366   8.264   0.946
10729TIP3   OH265721   4.221   8.894   0.139
10729TIP3    H165722   4.289   8.938   0.192
10729TIP3    H265723   4.277   8.836   0.084
10730TIP3   OH265724   4.070   8.175   0.062
10730TIP3    H165725   4.074   8.267   0.094
10730TIP3    H265726   3.987   8.180   0.012
10731TIP3   OH265727   5.370   9.215   1.083
10731TIP3    H165728   5.370   9.271   1.004
10731TIP3    H265729   5.462   9.228   1.110
10732TIP3   OH265730   4.133   7.654   0.975
10732TIP3    H165731   4.126   7.634   0.879
10732TIP3    H265732   4.104   7.568   1.013
10733TIP3   OH265733   4.004   9.014   0.529
10733TIP3    H165734   3.932   9.063   0.572
10733TIP3    H265735   4.011   9.071   0.449
10734TIP3   OH265736   3.943   9.272   1.685
10734TIP3    H165737   4.030   9.234   1.706
10734TIP3    H265738   3.894   9.191   1.658
10735TIP3   OH265739   4.388   9.204   1.841
10735TIP3    H165740   4.444   9.164   1.908
10735TIP3    H265741   4.403   9.147   1.763
10736TIP3   OH265742   4.901   9.159   0.071
10736TIP3    H165743   4.844   9.115   0.004
10736TIP3    H265744   4.974   9.193   0.017
10737TIP3   OH265745   5.074   9.059   1.737
10737TIP3    H165746   5.026   8.979   1.768
10737TIP3    H265747   5.168   9.034   1.748
10738TIP3   OH265748   5.325   9.131   0.012
10738TIP3    H165749   5.306   9.050   0.065
10738TIP3    H265750   5.423   9.127   0.006
10739TIP3   OH265751   3.933   8.688   1.820
10739TIP3    H165752   3.886   8.609   1.788
10739TIP3    H265753   3.887   8.758   1.770
10740TIP3   OH265754   4.393   8.696   0.032
10740TIP3    H165755   4.427   8.642   0.106
10740TIP3    H265756   4.446   8.662  -0.043
10741TIP3   OH265757   4.607   8.656   1.727
10741TIP3    H165758   4.570   8.716   1.658
10741TIP3    H265759   4.584   8.566   1.692
10742TIP3   OH265760   5.175   8.672   1.486
10742TIP3    H165761   5.251   8.733   1.490
10742TIP3    H265762   5.101   8.729   1.511
10743TIP3   OH265763   4.042   8.401   1.763
10743TIP3    H165764   4.121   8.349   1.786
10743TIP3    H265765   3.985   8.394   1.841
10744TIP3   OH265766   4.509   8.537   0.254
10744TIP3    H165767   4.440   8.482   0.296
10744TIP3    H265768   4.550   8.473   0.192
10745TIP3   OH265769   4.413   8.314   1.431
10745TIP3    H165770   4.355   8.392   1.443
10745TIP3    H265771   4.488   8.354   1.383
10746TIP3   OH265772   4.610   8.356   0.051
10746TIP3    H165773   4.642   8.356  -0.041
10746TIP3    H265774   4.697   8.356   0.099
10747TIP3   OH265775   5.515   8.640   8.471
10747TIP3    H165776   5.468   8.635   8.386
10747TIP3    H265777   5.550   8.730   8.471
10748TIP3   OH265778   4.478   8.077   1.532
10748TIP3    H165779   4.512   8.011   1.467
10748TIP3    H265780   4.468   8.158   1.477
10749TIP3   OH265781   4.531   7.878   1.352
10749TIP3    H165782   4.579   7.918   1.275
10749TIP3    H265783   4.442   7.871   1.313
10750TIP3   OH265784   4.637   8.467   1.369
10750TIP3    H165785   4.724   8.477   1.327
10750TIP3    H265786   4.581   8.524   1.313
10751TIP3   OH265787   5.079   8.192   1.834
10751TIP3    H165788   5.122   8.107   1.853
10751TIP3    H265789   5.152   8.254   1.844
10752TIP3   OH265790   5.260   8.491   1.686
10752TIP3    H165791   5.230   8.551   1.615
10752TIP3    H265792   5.354   8.475   1.663
10753TIP3   OH265793   4.312   8.124   1.752
10753TIP3    H165794   4.233   8.069   1.733
10753TIP3    H265795   4.373   8.101   1.678
10754TIP3   OH265796   4.589   7.619   1.368
10754TIP3    H165797   4.564   7.714   1.359
10754TIP3    H265798   4.519   7.577   1.316
10755TIP3   OH265799   4.712   8.059   1.759
10755TIP3    H165800   4.720   8.009   1.844
10755TIP3    H265801   4.638   8.016   1.714
10756TIP3   OH265802   4.991   7.950   1.668
10756TIP3    H165803   4.926   7.982   1.732
10756TIP3    H265804   5.049   7.899   1.730
10757TIP3   OH265805   5.148   7.826   1.857
10757TIP3    H165806   5.151   7.731   1.830
10757TIP3    H265807   5.129   7.821   1.953
10758TIP3   OH265808   4.098   7.936   1.776
10758TIP3    H165809   4.077   7.851   1.733
10758TIP3    H265810   4.096   7.915   1.872
10759TIP3   OH265811   4.583   7.610   1.637
10759TIP3    H165812   4.647   7.536   1.642
10759TIP3    H265813   4.589   7.629   1.540
10760TIP3   OH265814   4.593   7.717   1.918
10760TIP3    H165815   4.584   7.681   1.827
10760TIP3    H265816   4.521   7.784   1.918
10761TIP3   OH265817   3.936   8.867   0.092
10761TIP3    H165818   4.030   8.881   0.115
10761TIP3    H265819   3.945   8.845  -0.002
10762TIP3   OH265820   3.916   9.219   0.808
10762TIP3    H165821   3.831   9.206   0.853
10762TIP3    H265822   3.971   9.254   0.881
10763TIP3   OH265823   5.638   9.291   1.116
10763TIP3    H165824   5.661   9.280   1.210
10763TIP3    H265825   5.707   9.354   1.094
10764TIP3   OH265826   5.633   9.219   1.371
10764TIP3    H165827   5.592   9.142   1.327
10764TIP3    H265828   5.649   9.181   1.459
10765TIP3   OH265829   5.455   8.843   1.862
10765TIP3    H165830   5.372   8.843   1.914
10765TIP3    H265831   5.501   8.918   1.903
10766TIP3   OH265832   5.583   8.663   0.387
10766TIP3    H165833   5.665   8.715   0.400
10766TIP3    H265834   5.587   8.600   0.463
10767TIP3   OH265835   5.626   8.479   0.582
10767TIP3    H165836   5.549   8.432   0.620
10767TIP3    H265837   5.681   8.494   0.661
10768TIP3   OH265838   5.583   8.727   1.050
10768TIP3    H165839   5.662   8.669   1.047
10768TIP3    H265840   5.622   8.814   1.026
10769TIP3   OH265841   5.473   9.018   1.289
10769TIP3    H165842   5.404   9.078   1.321
10769TIP3    H265843   5.430   8.982   1.208
10770TIP3   OH265844   5.608   8.432   0.226
10770TIP3    H165845   5.553   8.451   0.149
10770TIP3    H265846   5.591   8.508   0.285
10771TIP3   OH265847   5.425   8.175   0.077
10771TIP3    H165848   5.497   8.218   0.027
10771TIP3    H265849   5.437   8.085   0.042
10772TIP3   OH265850   5.435   8.309   0.659
10772TIP3    H165851   5.408   8.222   0.625
10772TIP3    H265852   5.389   8.314   0.746
10773TIP3   OH265853   3.906   8.553   1.061
10773TIP3    H165854   3.905   8.518   0.969
10773TIP3    H265855   3.994   8.519   1.090
10774TIP3   OH265856   5.532   8.518   1.616
10774TIP3    H165857   5.576   8.440   1.658
10774TIP3    H265858   5.591   8.594   1.631
10775TIP3   OH265859   5.625   8.290   1.704
10775TIP3    H165860   5.536   8.247   1.696
10775TIP3    H265861   5.685   8.218   1.680
10776TIP3   OH265862   5.415   7.921  -0.022
10776TIP3    H165863   5.473   7.873   0.042
10776TIP3    H265864   5.326   7.911   0.015
10777TIP3   OH265865   5.347   8.098   0.503
10777TIP3    H165866   5.377   8.008   0.529
10777TIP3    H265867   5.399   8.105   0.421
10778TIP3   OH265868   5.452   8.144   1.040
10778TIP3    H165869   5.550   8.154   1.044
10778TIP3    H265870   5.432   8.154   1.134
10779TIP3   OH265871   5.458   8.214   1.310
10779TIP3    H165872   5.386   8.231   1.374
10779TIP3    H265873   5.498   8.304   1.302
10780TIP3   OH265874   3.886   8.058   1.664
10780TIP3    H165875   3.970   8.050   1.714
10780TIP3    H265876   3.835   7.988   1.709
10781TIP3   OH265877   5.728   7.613   1.884
10781TIP3    H165878   5.755   7.561   1.806
10781TIP3    H265879   5.689   7.689   1.839
10782TIP3   OH265880   5.426   7.831   0.514
10782TIP3    H165881   5.466   7.785   0.591
10782TIP3    H265882   5.387   7.757   0.465
10783TIP3   OH265883   3.996   7.887   1.003
10783TIP3    H165884   4.033   7.797   0.992
10783TIP3    H265885   4.075   7.944   1.003
10784TIP3   OH265886   3.837   8.195   1.072
10784TIP3    H165887   3.886   8.167   0.993
10784TIP3    H265888   3.887   8.274   1.094
10785TIP3   OH265889   5.574   7.779   1.688
10785TIP3    H165890   5.515   7.844   1.642
10785TIP3    H265891   5.611   7.735   1.609
10786TIP3   OH265892   5.618   7.836   0.144
10786TIP3    H165893   5.663   7.775   0.084
10786TIP3    H265894   5.693   7.893   0.171
10787TIP3   OH265895   3.854   7.809   0.455
10787TIP3    H165896   3.760   7.821   0.474
10787TIP3    H265897   3.868   7.862   0.374
10788TIP3   OH265898   5.299   9.322   0.630
10788TIP3    H165899   5.389   9.289   0.609
10788TIP3    H265900   5.320   9.379   0.707
10789TIP3   OH265901   3.853   7.676   1.291
10789TIP3    H165902   3.794   7.634   1.356
10789TIP3    H265903   3.800   7.750   1.259
10790TIP3   OH265904   4.092   9.001   1.734
10790TIP3    H165905   4.027   8.961   1.675
10790TIP3    H265906   4.061   8.976   1.822
10791TIP3   OH265907   4.385   9.108   1.346
10791TIP3    H165908   4.356   9.200   1.352
10791TIP3    H265909   4.473   9.121   1.306
10792TIP3   OH265910   4.792   9.208   1.601
10792TIP3    H165911   4.779   9.196   1.699
10792TIP3    H265912   4.885   9.234   1.601
10793TIP3   OH265913   5.553   7.597   1.481
10793TIP3    H165914   5.485   7.645   1.432
10793TIP3    H265915   5.549   7.507   1.440
10794TIP3   OH265916   5.001   9.213   1.264
10794TIP3    H165917   4.940   9.288   1.256
10794TIP3    H265918   5.085   9.256   1.243
10795TIP3   OH265919   4.065   9.275   1.044
10795TIP3    H165920   4.051   9.231   1.131
10795TIP3    H265921   4.139   9.221   1.005
10796TIP3   OH265922   4.263   9.163   0.901
10796TIP3    H165923   4.256   9.065   0.913
10796TIP3    H265924   4.345   9.178   0.953
10797TIP3   OH265925   4.483   9.151   1.047
10797TIP3    H165926   4.503   9.054   1.045
10797TIP3    H265927   4.535   9.179   1.124
10798TIP3   OH265928   4.844   7.757   0.916
10798TIP3    H165929   4.763   7.714   0.951
10798TIP3    H265930   4.870   7.698   0.845
10799TIP3   OH265931   5.405   7.568   0.899
10799TIP3    H165932   5.459   7.630   0.845
10799TIP3    H265933   5.313   7.599   0.880
10800TIP3   OH265934   5.553   7.696   0.716
10800TIP3    H165935   5.621   7.637   0.674
10800TIP3    H265936   5.608   7.776   0.732
10801TIP3   OH265937   4.108   7.615   0.697
10801TIP3    H165938   4.025   7.602   0.649
10801TIP3    H265939   4.153   7.530   0.678
10802TIP3   OH265940   3.970   7.609   0.251
10802TIP3    H165941   4.028   7.669   0.200
10802TIP3    H265942   3.934   7.666   0.321
10803TIP3   OH265943   4.530   7.588   0.664
10803TIP3    H165944   4.625   7.585   0.644
10803TIP3    H265945   4.523   7.655   0.733
10804TIP3   OH265946   5.155   7.620   0.810
10804TIP3    H165947   5.118   7.652   0.727
10804TIP3    H265948   5.093   7.547   0.833
10805TIP3   OH265949   5.274   7.605   0.374
10805TIP3    H165950   5.198   7.662   0.368
10805TIP3    H265951   5.230   7.525   0.412
10806TIP3   OH265952   3.944   9.203   0.356
10806TIP3    H165953   3.856   9.208   0.316
10806TIP3    H265954   3.986   9.279   0.311
10807TIP3   OH265955   4.147   7.743   0.108
10807TIP3    H165956   4.233   7.697   0.105
10807TIP3    H265957   4.172   7.830   0.142
10808TIP3   OH265958   4.661   7.862   0.358
10808TIP3    H165959   4.699   7.796   0.419
10808TIP3    H265960   4.694   7.944   0.401
10809TIP3   OH265961   4.901   9.406   0.196
10809TIP3    H165962   4.994   9.375   0.200
10809TIP3    H265963   4.867   9.330   0.144
10810TIP3   OH265964   5.530   9.248   0.512
10810TIP3    H165965   5.509   9.178   0.446
10810TIP3    H265966   5.531   9.326   0.452
10811TIP3   OH265967   4.058   7.689   1.639
10811TIP3    H165968   4.011   7.603   1.644
10811TIP3    H265969   4.132   7.676   1.702
10812TIP3   OH265970   4.268   7.656   1.809
10812TIP3    H165971   4.344   7.674   1.749
10812TIP3    H265972   4.265   7.559   1.804
10813TIP3   OH265973   4.194   9.317   0.048
10813TIP3    H165974   4.133   9.344   0.118
10813TIP3    H265975   4.219   9.228   0.073
10814TIP3   OH265976   5.161   7.569   1.779
10814TIP3    H165977   5.131   7.520   1.859
10814TIP3    H265978   5.250   7.528   1.769
10815TIP3   OH265979   5.421   9.177   1.682
10815TIP3    H165980   5.372   9.199   1.599
10815TIP3    H265981   5.468   9.259   1.702
10816TIP3   OH265982   6.923   8.567   0.667
10816TIP3    H165983   6.909   8.664   0.671
10816TIP3    H265984   6.843   8.539   0.620
10817TIP3   OH265985   6.800   8.425   1.004
10817TIP3    H165986   6.798   8.391   1.097
10817TIP3    H265987   6.720   8.386   0.963
10818TIP3   OH265988   5.991   8.427   1.157
10818TIP3    H165989   5.983   8.359   1.225
10818TIP3    H265990   6.056   8.486   1.200
10819TIP3   OH265991   7.137   8.751   0.883
10819TIP3    H165992   7.122   8.679   0.947
10819TIP3    H265993   7.138   8.829   0.941
10820TIP3   OH265994   6.109   8.904   0.939
10820TIP3    H165995   6.070   8.815   0.958
10820TIP3    H265996   6.202   8.874   0.938
10821TIP3   OH265997   5.788   8.219   0.553
10821TIP3    H165998   5.758   8.309   0.573
10821TIP3    H265999   5.708   8.181   0.512
10822TIP3   OH266000   5.823   8.465   0.809
10822TIP3    H166001   5.857   8.373   0.824
10822TIP3    H266002   5.905   8.515   0.796
10823TIP3   OH266003   6.857   9.246   0.916
10823TIP3    H166004   6.934   9.214   0.861
10823TIP3    H266005   6.843   9.166   0.968
10824TIP3   OH266006   6.628   8.708   1.071
10824TIP3    H166007   6.671   8.650   1.007
10824TIP3    H266008   6.706   8.746   1.117
10825TIP3   OH266009   7.481   7.865   1.108
10825TIP3    H166010   7.487   7.917   1.190
10825TIP3    H266011   7.562   7.893   1.062
10826TIP3   OH266012   6.965   8.170   1.124
10826TIP3    H166013   6.995   8.079   1.137
10826TIP3    H266014   6.955   8.171   1.027
10827TIP3   OH266015   6.267   7.941   0.780
10827TIP3    H166016   6.274   8.025   0.729
10827TIP3    H266017   6.211   7.890   0.718
10828TIP3   OH266018   7.009   7.979   0.661
10828TIP3    H166019   7.065   7.950   0.737
10828TIP3    H266020   7.066   8.048   0.623
10829TIP3   OH266021   5.901   8.216   0.885
10829TIP3    H166022   5.966   8.182   0.949
10829TIP3    H266023   5.928   8.169   0.803
10830TIP3   OH266024   6.380   8.363   0.827
10830TIP3    H166025   6.461   8.321   0.861
10830TIP3    H266026   6.351   8.295   0.763
10831TIP3   OH266027   7.486   8.002   1.357
10831TIP3    H166028   7.452   8.087   1.319
10831TIP3    H266029   7.512   8.033   1.445
10832TIP3   OH266030   6.173   7.863   1.214
10832TIP3    H166031   6.124   7.908   1.142
10832TIP3    H266032   6.115   7.879   1.291
10833TIP3   OH266033   6.845   8.812   0.564
10833TIP3    H166034   6.834   8.799   0.468
10833TIP3    H266035   6.825   8.906   0.575
10834TIP3   OH266036   6.375   8.628   1.202
10834TIP3    H166037   6.325   8.702   1.242
10834TIP3    H266038   6.446   8.675   1.154
10835TIP3   OH266039   7.178   7.931   0.860
10835TIP3    H166040   7.142   7.898   0.943
10835TIP3    H266041   7.269   7.955   0.884
10836TIP3   OH266042   6.110   8.055   1.002
10836TIP3    H166043   6.171   8.120   1.043
10836TIP3    H266044   6.161   8.025   0.924
10837TIP3   OH266045   6.255   8.855   1.319
10837TIP3    H166046   6.241   8.949   1.296
10837TIP3    H266047   6.164   8.829   1.349
10838TIP3   OH266048   5.842   8.775   0.393
10838TIP3    H166049   5.840   8.831   0.313
10838TIP3    H266050   5.847   8.844   0.463
10839TIP3   OH266051   7.193   8.976   1.099
10839TIP3    H166052   7.096   8.979   1.104
10839TIP3    H266053   7.209   9.068   1.071
10840TIP3   OH266054   7.201   7.788   1.201
10840TIP3    H166055   7.116   7.816   1.160
10840TIP3    H266056   7.268   7.829   1.143
10841TIP3   OH266057   6.496   7.595   0.954
10841TIP3    H166058   6.461   7.505   0.964
10841TIP3    H266059   6.413   7.644   0.979
10842TIP3   OH266060   7.040   9.142   0.753
10842TIP3    H166061   7.058   9.057   0.708
10842TIP3    H266062   7.106   9.202   0.710
10843TIP3   OH266063   7.156   8.902   0.590
10843TIP3    H166064   7.128   8.849   0.513
10843TIP3    H266065   7.147   8.838   0.663
10844TIP3   OH266066   7.308   8.784   1.460
10844TIP3    H166067   7.327   8.712   1.396
10844TIP3    H266068   7.320   8.861   1.400
10845TIP3   OH266069   6.760   8.470   0.411
10845TIP3    H166070   6.698   8.545   0.392
10845TIP3    H266071   6.843   8.499   0.369
10846TIP3   OH266072   6.756   8.380   0.142
10846TIP3    H166073   6.813   8.398   0.219
10846TIP3    H266074   6.804   8.307   0.100
10847TIP3   OH266075   7.509   8.432   1.244
10847TIP3    H166076   7.455   8.513   1.252
10847TIP3    H266077   7.563   8.457   1.166
10848TIP3   OH266078   7.151   8.502   0.528
10848TIP3    H166079   7.076   8.526   0.587
10848TIP3    H266080   7.205   8.445   0.587
10849TIP3   OH266081   7.108   8.320   1.455
10849TIP3    H166082   7.119   8.409   1.492
10849TIP3    H266083   7.048   8.338   1.380
10850TIP3   OH266084   6.257   8.552   0.692
10850TIP3    H166085   6.249   8.511   0.604
10850TIP3    H266086   6.310   8.485   0.739
10851TIP3   OH266087   6.405   8.874   0.966
10851TIP3    H166088   6.426   8.897   0.875
10851TIP3    H266089   6.486   8.830   0.997
10852TIP3   OH266090   6.281   8.413   1.067
10852TIP3    H166091   6.311   8.422   0.974
10852TIP3    H266092   6.332   8.483   1.113
10853TIP3   OH266093   6.917   8.988   1.133
10853TIP3    H166094   6.884   9.060   1.188
10853TIP3    H266095   6.892   8.908   1.185
10854TIP3   OH266096   6.403   8.876   1.567
10854TIP3    H166097   6.338   8.942   1.596
10854TIP3    H266098   6.372   8.860   1.475
10855TIP3   OH266099   6.995   8.448   0.308
10855TIP3    H166100   7.052   8.470   0.385
10855TIP3    H266101   7.044   8.490   0.233
10856TIP3   OH266102   6.094   8.516   1.391
10856TIP3    H166103   6.118   8.600   1.433
10856TIP3    H266104   6.033   8.480   1.458
10857TIP3   OH266105   6.768   9.104   0.643
10857TIP3    H166106   6.821   9.145   0.712
10857TIP3    H266107   6.716   9.175   0.604
10858TIP3   OH266108   6.203   9.055   1.625
10858TIP3    H166109   6.203   9.065   1.528
10858TIP3    H266110   6.110   9.027   1.642
10859TIP3   OH266111   7.403   7.579   0.319
10859TIP3    H166112   7.305   7.582   0.307
10859TIP3    H266113   7.429   7.662   0.277
10860TIP3   OH266114   6.161   8.442   0.423
10860TIP3    H166115   6.114   8.524   0.397
10860TIP3    H266116   6.089   8.377   0.423
10861TIP3   OH266117   7.465   8.982   0.093
10861TIP3    H166118   7.492   9.076   0.109
10861TIP3    H266119   7.552   8.939   0.093
10862TIP3   OH266120   5.784   8.707   1.378
10862TIP3    H166121   5.723   8.701   1.304
10862TIP3    H266122   5.828   8.620   1.370
10863TIP3   OH266123   5.768   8.976   1.058
10863TIP3    H166124   5.854   8.982   1.016
10863TIP3    H266125   5.764   9.060   1.107
10864TIP3   OH266126   7.566   9.064   1.633
10864TIP3    H166127   7.552   8.967   1.632
10864TIP3    H266128   7.475   9.097   1.654
10865TIP3   OH266129   6.676   9.001   1.446
10865TIP3    H166130   6.683   9.077   1.508
10865TIP3    H266131   6.596   8.956   1.478
10866TIP3   OH266132   6.094   9.211   0.648
10866TIP3    H166133   6.120   9.194   0.742
10866TIP3    H266134   6.009   9.163   0.645
10867TIP3   OH266135   7.034   9.280   0.168
10867TIP3    H166136   7.103   9.220   0.135
10867TIP3    H266137   7.031   9.257   0.263
10868TIP3   OH266138   6.974   9.263   0.433
10868TIP3    H166139   6.881   9.280   0.450
10868TIP3    H266140   6.995   9.188   0.490
10869TIP3   OH266141   7.278   8.189   1.644
10869TIP3    H166142   7.212   8.232   1.584
10869TIP3    H266143   7.269   8.096   1.611
10870TIP3   OH266144   6.022   8.821   1.444
10870TIP3    H166145   6.015   8.792   1.537
10870TIP3    H266146   5.931   8.799   1.413
10871TIP3   OH266147   6.274   7.705   1.031
10871TIP3    H166148   6.181   7.693   1.001
10871TIP3    H266149   6.257   7.758   1.112
10872TIP3   OH266150   6.773   7.645   1.358
10872TIP3    H166151   6.807   7.596   1.435
10872TIP3    H266152   6.676   7.648   1.374
10873TIP3   OH266153   7.034   8.064   1.455
10873TIP3    H166154   6.991   8.032   1.538
10873TIP3    H266155   7.008   8.158   1.454
10874TIP3   OH266156   7.127   8.554   0.100
10874TIP3    H166157   7.127   8.558   0.003
10874TIP3    H266158   7.213   8.597   0.117
10875TIP3   OH266159   6.712   7.959   0.104
10875TIP3    H166160   6.664   7.955   0.188
10875TIP3    H266161   6.685   7.878   0.059
10876TIP3   OH266162   6.291   8.169   1.167
10876TIP3    H166163   6.208   8.169   1.219
10876TIP3    H266164   6.285   8.260   1.130
10877TIP3   OH266165   6.274   8.170   0.642
10877TIP3    H166166   6.178   8.163   0.628
10877TIP3    H266167   6.311   8.145   0.555
10878TIP3   OH266168   6.847   8.256   0.540
10878TIP3    H166169   6.814   8.338   0.495
10878TIP3    H266170   6.903   8.218   0.469
10879TIP3   OH266171   6.727   8.244   1.671
10879TIP3    H166172   6.676   8.171   1.714
10879TIP3    H266173   6.819   8.219   1.686
10880TIP3   OH266174   6.947   8.204   0.848
10880TIP3    H166175   6.927   8.290   0.807
10880TIP3    H266176   6.928   8.146   0.772
10881TIP3   OH266177   6.041   8.175   1.288
10881TIP3    H166178   6.079   8.221   1.365
10881TIP3    H266179   6.005   8.095   1.330
10882TIP3   OH266180   6.367   7.969   0.068
10882TIP3    H166181   6.334   7.907   0.136
10882TIP3    H266182   6.337   8.055   0.105
10883TIP3   OH266183   5.718   7.908   0.746
10883TIP3    H166184   5.788   7.917   0.814
10883TIP3    H266185   5.760   7.944   0.666
10884TIP3   OH266186   5.817   7.979   0.257
10884TIP3    H166187   5.877   8.014   0.190
10884TIP3    H266188   5.764   8.060   0.276
10885TIP3   OH266189   6.847   8.369   1.266
10885TIP3    H166190   6.901   8.300   1.221
10885TIP3    H266191   6.782   8.312   1.313
10886TIP3   OH266192   6.564   7.931   0.757
10886TIP3    H166193   6.470   7.936   0.778
10886TIP3    H266194   6.605   7.917   0.844
10887TIP3   OH266195   5.991   8.082   0.659
10887TIP3    H166196   5.925   8.122   0.599
10887TIP3    H266197   6.015   7.998   0.614
10888TIP3   OH266198   6.358   8.117   0.386
10888TIP3    H166199   6.453   8.136   0.393
10888TIP3    H266200   6.329   8.171   0.308
10889TIP3   OH266201   6.983   7.869   1.067
10889TIP3    H166202   6.907   7.875   1.127
10889TIP3    H266203   6.951   7.807   0.999
10890TIP3   OH266204   6.282   8.215   0.151
10890TIP3    H166205   6.215   8.209   0.081
10890TIP3    H266206   6.353   8.268   0.110
10891TIP3   OH266207   6.034   8.676   1.685
10891TIP3    H166208   6.101   8.718   1.740
10891TIP3    H266209   5.956   8.676   1.745
10892TIP3   OH266210   6.613   8.231   0.910
10892TIP3    H166211   6.703   8.197   0.894
10892TIP3    H266212   6.577   8.166   0.972
10893TIP3   OH266213   6.102   7.841   0.585
10893TIP3    H166214   6.057   7.766   0.630
10893TIP3    H266215   6.145   7.796   0.511
10894TIP3   OH266216   6.530   8.040   1.167
10894TIP3    H166217   6.447   8.093   1.169
10894TIP3    H266218   6.589   8.095   1.221
10895TIP3   OH266219   6.592   8.671   0.387
10895TIP3    H166220   6.517   8.618   0.350
10895TIP3    H266221   6.550   8.703   0.471
10896TIP3   OH266222   7.328   8.633   1.245
10896TIP3    H166223   7.372   8.685   1.173
10896TIP3    H266224   7.240   8.621   1.205
10897TIP3   OH266225   6.975   7.969   0.160
10897TIP3    H166226   6.891   7.991   0.113
10897TIP3    H266227   6.989   8.051   0.210
10898TIP3   OH266228   6.660   8.695   1.478
10898TIP3    H166229   6.685   8.637   1.550
10898TIP3    H266230   6.681   8.783   1.513
10899TIP3   OH266231   7.035   8.177   0.339
10899TIP3    H166232   7.102   8.155   0.406
10899TIP3    H266233   7.062   8.267   0.314
10900TIP3   OH266234   6.097   8.625   0.924
10900TIP3    H166235   6.152   8.615   0.843
10900TIP3    H266236   6.121   8.548   0.978
10901TIP3   OH266237   6.797   8.822   0.293
10901TIP3    H166238   6.753   8.910   0.301
10901TIP3    H266239   6.722   8.762   0.315
10902TIP3   OH266240   5.822   8.428   1.441
10902TIP3    H166241   5.793   8.396   1.527
10902TIP3    H266242   5.750   8.401   1.382
10903TIP3   OH266243   6.525   8.415   1.626
10903TIP3    H166244   6.458   8.355   1.592
10903TIP3    H266245   6.601   8.354   1.633
10904TIP3   OH266246   6.991   8.960   1.488
10904TIP3    H166247   6.917   8.974   1.427
10904TIP3    H266248   6.954   8.998   1.570
10905TIP3   OH266249   7.519   8.167   0.317
10905TIP3    H166250   7.456   8.157   0.243
10905TIP3    H266251   7.535   8.264   0.310
10906TIP3   OH266252   7.555   8.783   1.592
10906TIP3    H166253   7.469   8.797   1.546
10906TIP3    H266254   7.614   8.772   1.513
10907TIP3   OH266255   7.336   9.057   0.341
10907TIP3    H166256   7.307   8.979   0.389
10907TIP3    H266257   7.376   9.018   0.261
10908TIP3   OH266258   7.073   8.542   1.066
10908TIP3    H166259   6.983   8.513   1.043
10908TIP3    H266260   7.126   8.475   1.018
10909TIP3   OH266261   6.329   8.963   0.693
10909TIP3    H166262   6.361   9.055   0.693
10909TIP3    H266263   6.253   8.972   0.633
10910TIP3   OH266264   5.885   8.445   0.140
10910TIP3    H166265   5.946   8.511   0.179
10910TIP3    H266266   5.797   8.475   0.166
10911TIP3   OH266267   6.465   8.742   0.619
10911TIP3    H166268   6.422   8.829   0.633
10911TIP3    H266269   6.425   8.689   0.690
10912TIP3   OH266270   6.505   9.192   1.293
10912TIP3    H166271   6.529   9.284   1.319
10912TIP3    H266272   6.585   9.140   1.311
10913TIP3   OH266273   6.362   9.209   0.559
10913TIP3    H166274   6.266   9.219   0.575
10913TIP3    H266275   6.391   9.283   0.617
10914TIP3   OH266276   6.840   8.745   1.240
10914TIP3    H166277   6.794   8.719   1.322
10914TIP3    H266278   6.874   8.659   1.207
10915TIP3   OH266279   7.110   8.895   0.185
10915TIP3    H166280   7.149   8.829   0.245
10915TIP3    H266281   7.018   8.864   0.180
10916TIP3   OH266282   7.181   9.222   1.449
10916TIP3    H166283   7.103   9.165   1.466
10916TIP3    H266284   7.149   9.285   1.383
10917TIP3   OH266285   7.530   9.240   0.150
10917TIP3    H166286   7.577   9.289   0.081
10917TIP3    H266287   7.473   9.310   0.190
10918TIP3   OH266288   6.001   7.938   1.444
10918TIP3    H166289   5.923   7.970   1.492
10918TIP3    H266290   5.994   7.842   1.459
10919TIP3   OH266291   7.198   8.711   0.366
10919TIP3    H166292   7.173   8.627   0.412
10919TIP3    H266293   7.295   8.707   0.380
10920TIP3   OH266294   5.944   9.111   1.269
10920TIP3    H166295   5.999   9.031   1.263
10920TIP3    H266296   5.978   9.156   1.348
10921TIP3   OH266297   6.408   8.924   0.235
10921TIP3    H166298   6.465   8.860   0.282
10921TIP3    H266299   6.431   9.009   0.275
10922TIP3   OH266300   6.038   8.643   0.279
10922TIP3    H166301   5.967   8.684   0.332
10922TIP3    H266302   6.083   8.721   0.243
10923TIP3   OH266303   6.821   7.922   1.362
10923TIP3    H166304   6.915   7.928   1.386
10923TIP3    H266305   6.801   7.827   1.373
10924TIP3   OH266306   6.900   7.868   0.444
10924TIP3    H166307   6.941   7.917   0.372
10924TIP3    H266308   6.948   7.900   0.524
10925TIP3   OH266309   6.699   9.081   0.311
10925TIP3    H166310   6.615   9.127   0.307
10925TIP3    H266311   6.744   9.113   0.229
10926TIP3   OH266312   6.642   8.061   0.514
10926TIP3    H166313   6.707   8.132   0.532
10926TIP3    H266314   6.614   8.030   0.602
10927TIP3   OH266315   6.720   8.172   1.395
10927TIP3    H166316   6.688   8.180   1.487
10927TIP3    H266317   6.742   8.077   1.382
10928TIP3   OH266318   6.697   7.733   0.559
10928TIP3    H166319   6.665   7.802   0.621
10928TIP3    H266320   6.777   7.780   0.523
10929TIP3   OH266321   6.393   9.226   0.281
10929TIP3    H166322   6.427   9.316   0.273
10929TIP3    H266323   6.370   9.217   0.375
10930TIP3   OH266324   6.266   7.851   0.289
10930TIP3    H166325   6.270   7.938   0.333
10930TIP3    H266326   6.350   7.813   0.322
10931TIP3   OH266327   7.271   7.951   1.533
10931TIP3    H166328   7.184   7.965   1.489
10931TIP3    H266329   7.329   7.956   1.455
10932TIP3   OH266330   7.191   8.319   0.908
10932TIP3    H166331   7.115   8.258   0.914
10932TIP3    H266332   7.258   8.270   0.959
10933TIP3   OH266333   6.109   8.889   0.142
10933TIP3    H166334   6.179   8.937   0.190
10933TIP3    H266335   6.165   8.835   0.082
10934TIP3   OH266336   5.945   8.188   0.071
10934TIP3    H166337   5.945   8.280   0.103
10934TIP3    H266338   5.867   8.188   0.013
10935TIP3   OH266339   7.228   9.240   1.081
10935TIP3    H166340   7.225   9.306   1.009
10935TIP3    H266341   7.325   9.234   1.092
10936TIP3   OH266342   6.015   7.648   0.973
10936TIP3    H166343   6.009   7.637   0.875
10936TIP3    H266344   5.998   7.556   1.002
10937TIP3   OH266345   5.887   9.010   0.521
10937TIP3    H166346   5.815   9.060   0.563
10937TIP3    H266347   5.898   9.069   0.443
10938TIP3   OH266348   5.801   9.288   1.677
10938TIP3    H166349   5.875   9.277   1.741
10938TIP3    H266350   5.771   9.195   1.664
10939TIP3   OH266351   6.311   9.139   1.866
10939TIP3    H166352   6.399   9.097   1.857
10939TIP3    H266353   6.276   9.126   1.776
10940TIP3   OH266354   6.802   9.156   0.073
10940TIP3    H166355   6.749   9.123  -0.003
10940TIP3    H266356   6.878   9.199   0.030
10941TIP3   OH266357   6.948   9.071   1.737
10941TIP3    H166358   6.919   8.986   1.779
10941TIP3    H266359   7.032   9.083   1.788
10942TIP3   OH266360   7.219   9.126   0.015
10942TIP3    H166361   7.204   9.045   0.071
10942TIP3    H266362   7.316   9.128   0.012
10943TIP3   OH266363   5.788   8.677   1.824
10943TIP3    H166364   5.762   8.594   1.781
10943TIP3    H266365   5.741   8.743   1.767
10944TIP3   OH266366   6.273   8.694   0.030
10944TIP3    H166367   6.311   8.645   0.106
10944TIP3    H266368   6.325   8.659  -0.045
10945TIP3   OH266369   6.505   8.663   1.727
10945TIP3    H166370   6.471   8.724   1.658
10945TIP3    H266371   6.509   8.576   1.679
10946TIP3   OH266372   7.056   8.679   1.490
10946TIP3    H166373   7.150   8.704   1.486
10946TIP3    H266374   7.018   8.769   1.494
10947TIP3   OH266375   5.937   8.381   1.763
10947TIP3    H166376   6.030   8.370   1.745
10947TIP3    H266377   5.935   8.450   1.832
10948TIP3   OH266378   6.396   8.540   0.253
10948TIP3    H166379   6.329   8.485   0.299
10948TIP3    H266380   6.436   8.474   0.193
10949TIP3   OH266381   6.266   8.314   1.407
10949TIP3    H166382   6.218   8.396   1.383
10949TIP3    H266383   6.353   8.338   1.369
10950TIP3   OH266384   6.498   8.356   0.063
10950TIP3    H166385   6.525   8.353  -0.031
10950TIP3    H266386   6.587   8.353   0.107
10951TIP3   OH266387   6.845   8.569   1.826
10951TIP3    H166388   6.909   8.531   1.764
10951TIP3    H266389   6.784   8.495   1.838
10952TIP3   OH266390   7.391   8.648   8.477
10952TIP3    H166391   7.338   8.647   8.395
10952TIP3    H266392   7.429   8.738   8.477
10953TIP3   OH266393   6.403   8.088   1.525
10953TIP3    H166394   6.402   8.011   1.465
10953TIP3    H266395   6.369   8.160   1.469
10954TIP3   OH266396   6.414   7.874   1.340
10954TIP3    H166397   6.472   7.921   1.276
10954TIP3    H266398   6.330   7.879   1.288
10955TIP3   OH266399   6.524   8.444   1.335
10955TIP3    H166400   6.612   8.486   1.332
10955TIP3    H266401   6.467   8.520   1.317
10956TIP3   OH266402   7.117   8.509   1.694
10956TIP3    H166403   7.095   8.578   1.628
10956TIP3    H266404   7.213   8.501   1.681
10957TIP3   OH266405   6.203   8.162   1.759
10957TIP3    H166406   6.120   8.112   1.752
10957TIP3    H266407   6.233   8.166   1.667
10958TIP3   OH266408   6.497   7.617   1.357
10958TIP3    H166409   6.462   7.709   1.355
10958TIP3    H266410   6.420   7.571   1.320
10959TIP3   OH266411   6.584   8.031   1.741
10959TIP3    H166412   6.525   8.011   1.817
10959TIP3    H266413   6.516   8.032   1.669
10960TIP3   OH266414   6.886   7.955   1.665
10960TIP3    H166415   6.795   7.985   1.652
10960TIP3    H266416   6.867   7.867   1.701
10961TIP3   OH266417   5.989   7.955   1.775
10961TIP3    H166418   5.990   7.871   1.724
10961TIP3    H266419   5.959   7.928   1.863
10962TIP3   OH266420   6.438   7.554   1.656
10962TIP3    H166421   6.491   7.475   1.677
10962TIP3    H266422   6.463   7.562   1.562
10963TIP3   OH266423   6.498   7.714   1.890
10963TIP3    H166424   6.483   7.657   1.812
10963TIP3    H266425   6.442   7.790   1.869
10964TIP3   OH266426   5.827   8.876   0.096
10964TIP3    H166427   5.922   8.871   0.121
10964TIP3    H266428   5.836   8.867  -0.001
10965TIP3   OH266429   5.814   9.221   0.800
10965TIP3    H166430   5.721   9.212   0.826
10965TIP3    H266431   5.854   9.253   0.882
10966TIP3   OH266432   7.497   9.283   1.112
10966TIP3    H166433   7.554   9.292   1.191
10966TIP3    H266434   7.519   9.363   1.063
10967TIP3   OH266435   7.518   9.225   1.379
10967TIP3    H166436   7.478   9.150   1.330
10967TIP3    H266437   7.567   9.179   1.449
10968TIP3   OH266438   7.466   8.661   0.390
10968TIP3    H166439   7.552   8.710   0.400
10968TIP3    H266440   7.470   8.601   0.467
10969TIP3   OH266441   7.510   8.482   0.588
10969TIP3    H166442   7.433   8.437   0.630
10969TIP3    H266443   7.568   8.498   0.666
10970TIP3   OH266444   7.476   8.740   1.061
10970TIP3    H166445   7.550   8.676   1.048
10970TIP3    H266446   7.518   8.824   1.032
10971TIP3   OH266447   7.356   9.010   1.311
10971TIP3    H166448   7.291   9.075   1.344
10971TIP3    H266449   7.312   8.981   1.228
10972TIP3   OH266450   7.493   8.435   0.226
10972TIP3    H166451   7.434   8.447   0.150
10972TIP3    H266452   7.472   8.511   0.284
10973TIP3   OH266453   7.310   8.170   0.083
10973TIP3    H166454   7.385   8.208   0.034
10973TIP3    H266455   7.325   8.075   0.060
10974TIP3   OH266456   7.311   8.321   0.664
10974TIP3    H166457   7.288   8.232   0.634
10974TIP3    H266458   7.278   8.321   0.756
10975TIP3   OH266459   5.793   8.561   1.064
10975TIP3    H166460   5.793   8.526   0.972
10975TIP3    H266461   5.881   8.524   1.093
10976TIP3   OH266462   7.400   8.533   1.628
10976TIP3    H166463   7.444   8.463   1.680
10976TIP3    H266464   7.468   8.603   1.626
10977TIP3   OH266465   7.508   8.319   1.726
10977TIP3    H166466   7.436   8.269   1.681
10977TIP3    H266467   7.586   8.265   1.707
10978TIP3   OH266468   7.302   7.922  -0.019
10978TIP3    H166469   7.359   7.871   0.044
10978TIP3    H266470   7.211   7.908   0.013
10979TIP3   OH266471   7.241   8.100   0.503
10979TIP3    H166472   7.270   8.012   0.537
10979TIP3    H266473   7.293   8.102   0.421
10980TIP3   OH266474   7.351   8.155   1.057
10980TIP3    H166475   7.450   8.158   1.055
10980TIP3    H266476   7.337   8.161   1.152
10981TIP3   OH266477   7.343   8.221   1.329
10981TIP3    H166478   7.267   8.245   1.386
10981TIP3    H266479   7.382   8.308   1.306
10982TIP3   OH266480   5.775   8.048   1.633
10982TIP3    H166481   5.855   8.042   1.690
10982TIP3    H266482   5.712   7.993   1.682
10983TIP3   OH266483   7.577   7.638   1.851
10983TIP3    H166484   7.630   7.568   1.808
10983TIP3    H266485   7.556   7.696   1.775
10984TIP3   OH266486   7.314   7.833   0.536
10984TIP3    H166487   7.361   7.777   0.602
10984TIP3    H266488   7.280   7.766   0.474
10985TIP3   OH266489   5.878   7.887   1.000
10985TIP3    H166490   5.917   7.797   0.994
10985TIP3    H266491   5.955   7.945   0.995
10986TIP3   OH266492   5.709   8.199   1.063
10986TIP3    H166493   5.769   8.177   0.989
10986TIP3    H266494   5.758   8.273   1.102
10987TIP3   OH266495   7.504   7.831   1.667
10987TIP3    H166496   7.417   7.874   1.667
10987TIP3    H266497   7.489   7.765   1.596
10988TIP3   OH266498   7.506   7.837   0.147
10988TIP3    H166499   7.552   7.783   0.080
10988TIP3    H266500   7.582   7.891   0.179
10989TIP3   OH266501   5.738   7.817   0.465
10989TIP3    H166502   5.642   7.814   0.468
10989TIP3    H266503   5.755   7.866   0.381
10990TIP3   OH266504   7.197   9.310   0.631
10990TIP3    H166505   7.290   9.282   0.615
10990TIP3    H266506   7.207   9.376   0.702
10991TIP3   OH266507   5.735   7.678   1.287
10991TIP3    H166508   5.674   7.635   1.350
10991TIP3    H266509   5.680   7.743   1.241
10992TIP3   OH266510   5.951   8.978   1.713
10992TIP3    H166511   5.864   9.001   1.679
10992TIP3    H266512   5.930   8.963   1.806
10993TIP3   OH266513   6.255   9.129   1.359
10993TIP3    H166514   6.239   9.225   1.363
10993TIP3    H266515   6.350   9.134   1.337
10994TIP3   OH266516   6.708   9.221   1.613
10994TIP3    H166517   6.685   9.211   1.708
10994TIP3    H266518   6.803   9.235   1.623
10995TIP3   OH266519   7.405   7.620   1.500
10995TIP3    H166520   7.331   7.664   1.456
10995TIP3    H266521   7.401   7.531   1.457
10996TIP3   OH266522   6.904   9.230   1.308
10996TIP3    H166523   6.845   9.302   1.280
10996TIP3    H266524   6.983   9.253   1.257
10997TIP3   OH266525   5.963   9.272   1.053
10997TIP3    H166526   5.954   9.225   1.138
10997TIP3    H266527   6.035   9.221   1.009
10998TIP3   OH266528   6.157   9.168   0.900
10998TIP3    H166529   6.141   9.070   0.909
10998TIP3    H266530   6.240   9.174   0.952
10999TIP3   OH266531   6.371   9.142   1.056
10999TIP3    H166532   6.392   9.047   1.048
10999TIP3    H266533   6.409   9.167   1.143
11000TIP3   OH266534   6.717   7.748   0.931
11000TIP3    H166535   6.631   7.700   0.940
11000TIP3    H266536   6.761   7.694   0.865
11001TIP3   OH266537   7.295   7.586   0.913
11001TIP3    H166538   7.355   7.640   0.857
11001TIP3    H266539   7.206   7.621   0.890
11002TIP3   OH266540   7.451   7.686   0.716
11002TIP3    H166541   7.521   7.635   0.668
11002TIP3    H266542   7.502   7.768   0.738
11003TIP3   OH266543   5.990   7.612   0.704
11003TIP3    H166544   5.908   7.597   0.652
11003TIP3    H266545   6.039   7.530   0.684
11004TIP3   OH266546   5.857   7.606   0.247
11004TIP3    H166547   5.919   7.665   0.198
11004TIP3    H266548   5.816   7.664   0.312
11005TIP3   OH266549   6.420   7.590   0.671
11005TIP3    H166550   6.505   7.616   0.634
11005TIP3    H266551   6.418   7.638   0.755
11006TIP3   OH266552   7.042   7.635   0.821
11006TIP3    H166553   7.008   7.655   0.733
11006TIP3    H266554   6.991   7.554   0.842
11007TIP3   OH266555   7.153   7.615   0.362
11007TIP3    H166556   7.073   7.668   0.356
11007TIP3    H266557   7.118   7.534   0.406
11008TIP3   OH266558   5.827   9.210   0.364
11008TIP3    H166559   5.742   9.211   0.317
11008TIP3    H266560   5.871   9.284   0.317
11009TIP3   OH266561   6.037   7.745   0.110
11009TIP3    H166562   6.122   7.698   0.108
11009TIP3    H266563   6.065   7.834   0.135
11010TIP3   OH266564   6.549   7.863   0.363
11010TIP3    H166565   6.591   7.798   0.421
11010TIP3    H266566   6.581   7.945   0.406
11011TIP3   OH266567   6.795   9.406   0.197
11011TIP3    H166568   6.887   9.373   0.201
11011TIP3    H266569   6.758   9.331   0.148
11012TIP3   OH266570   7.425   9.247   0.516
11012TIP3    H166571   7.398   9.179   0.449
11012TIP3    H266572   7.417   9.326   0.459
11013TIP3   OH266573   5.961   7.695   1.628
11013TIP3    H166574   5.912   7.610   1.633
11013TIP3    H266575   6.035   7.678   1.690
11014TIP3   OH266576   6.148   7.625   1.815
11014TIP3    H166577   6.240   7.597   1.794
11014TIP3    H266578   6.116   7.546   1.864
11015TIP3   OH266579   6.079   9.310   0.039
11015TIP3    H166580   6.021   9.341   0.110
11015TIP3    H266581   6.107   9.223   0.073
11016TIP3   OH266582   7.017   7.575   1.808
11016TIP3    H166583   6.977   7.510   1.867
11016TIP3    H266584   7.106   7.534   1.793
11017TIP3   OH266585   7.329   9.182   1.672
11017TIP3    H166586   7.281   9.200   1.587
11017TIP3    H266587   7.385   9.261   1.675
11018TIP3   OH266588   8.808   8.572   0.665
11018TIP3    H166589   8.798   8.669   0.674
11018TIP3    H266590   8.728   8.548   0.615
11019TIP3   OH266591   8.658   8.424   0.998
11019TIP3    H166592   8.685   8.373   1.077
11019TIP3    H266593   8.590   8.368   0.956
11020TIP3   OH266594   7.883   8.432   1.149
11020TIP3    H166595   7.888   8.364   1.218
11020TIP3    H266596   7.950   8.494   1.181
11021TIP3   OH266597   9.048   8.793   0.867
11021TIP3    H166598   9.088   8.720   0.917
11021TIP3    H266599   9.036   8.863   0.935
11022TIP3   OH266600   7.990   8.900   0.982
11022TIP3    H166601   7.957   8.810   0.964
11022TIP3    H266602   8.085   8.880   0.982
11023TIP3   OH266603   7.669   8.220   0.552
11023TIP3    H166604   7.636   8.305   0.583
11023TIP3    H266605   7.611   8.203   0.476
11024TIP3   OH266606   7.702   8.461   0.807
11024TIP3    H166607   7.737   8.370   0.824
11024TIP3    H266608   7.783   8.514   0.797
11025TIP3   OH266609   8.747   9.256   0.924
11025TIP3    H166610   8.815   9.222   0.861
11025TIP3    H266611   8.726   9.173   0.970
11026TIP3   OH266612   8.495   8.704   1.080
11026TIP3    H166613   8.531   8.653   1.006
11026TIP3    H266614   8.577   8.739   1.120
11027TIP3   OH266615   9.349   7.914   1.145
11027TIP3    H166616   9.369   8.009   1.158
11027TIP3    H266617   9.436   7.886   1.107
11028TIP3   OH266618   8.820   8.158   1.099
11028TIP3    H166619   8.843   8.068   1.126
11028TIP3    H266620   8.836   8.153   1.002
11029TIP3   OH266621   8.127   7.948   0.797
11029TIP3    H166622   8.145   8.027   0.742
11029TIP3    H266623   8.089   7.888   0.731
11030TIP3   OH266624   8.916   8.004   0.680
11030TIP3    H166625   8.964   7.948   0.745
11030TIP3    H266626   8.988   8.051   0.637
11031TIP3   OH266627   7.790   8.215   0.884
11031TIP3    H166628   7.848   8.168   0.947
11031TIP3    H266629   7.822   8.176   0.799
11032TIP3   OH266630   8.268   8.363   0.825
11032TIP3    H166631   8.348   8.315   0.854
11032TIP3    H266632   8.232   8.297   0.762
11033TIP3   OH266633   8.051   7.861   1.223
11033TIP3    H166634   8.009   7.911   1.150
11033TIP3    H266635   7.987   7.877   1.295
11034TIP3   OH266636   8.733   8.820   0.559
11034TIP3    H166637   8.720   8.808   0.462
11034TIP3    H266638   8.667   8.887   0.580
11035TIP3   OH266639   8.259   8.631   1.189
11035TIP3    H166640   8.215   8.716   1.212
11035TIP3    H266641   8.342   8.666   1.147
11036TIP3   OH266642   9.095   7.936   0.883
11036TIP3    H166643   9.047   7.887   0.952
11036TIP3    H266644   9.144   8.002   0.938
11037TIP3   OH266645   7.989   8.053   1.011
11037TIP3    H166646   8.052   8.117   1.051
11037TIP3    H266647   8.039   8.025   0.931
11038TIP3   OH266648   8.143   8.848   1.303
11038TIP3    H166649   8.137   8.941   1.274
11038TIP3    H266650   8.053   8.831   1.337
11039TIP3   OH266651   7.716   8.781   0.399
11039TIP3    H166652   7.716   8.837   0.319
11039TIP3    H266653   7.726   8.848   0.470
11040TIP3   OH266654   9.058   8.980   1.062
11040TIP3    H166655   8.968   9.014   1.081
11040TIP3    H266656   9.112   9.060   1.045
11041TIP3   OH266657   9.144   7.728   1.211
11041TIP3    H166658   9.073   7.761   1.154
11041TIP3    H266659   9.217   7.784   1.181
11042TIP3   OH266660   8.396   7.615   0.950
11042TIP3    H166661   8.363   7.524   0.945
11042TIP3    H266662   8.313   7.660   0.983
11043TIP3   OH266663   8.911   9.156   0.733
11043TIP3    H166664   8.952   9.075   0.698
11043TIP3    H266665   8.983   9.221   0.712
11044TIP3   OH266666   9.043   8.912   0.592
11044TIP3    H166667   9.013   8.840   0.533
11044TIP3    H266668   9.053   8.865   0.677
11045TIP3   OH266669   9.148   8.778   1.453
11045TIP3    H166670   9.163   8.718   1.378
11045TIP3    H266671   9.199   8.856   1.423
11046TIP3   OH266672   8.634   8.472   0.416
11046TIP3    H166673   8.575   8.540   0.377
11046TIP3    H266674   8.718   8.491   0.368
11047TIP3   OH266675   8.638   8.386   0.126
11047TIP3    H166676   8.706   8.415   0.191
11047TIP3    H266677   8.683   8.311   0.085
11048TIP3   OH266678   9.350   8.416   1.210
11048TIP3    H166679   9.286   8.488   1.231
11048TIP3    H266680   9.405   8.464   1.144
11049TIP3   OH266681   9.001   8.472   0.507
11049TIP3    H166682   8.936   8.518   0.566
11049TIP3    H266683   9.063   8.436   0.575
11050TIP3   OH266684   8.973   8.306   1.430
11050TIP3    H166685   8.957   8.379   1.493
11050TIP3    H266686   8.908   8.334   1.362
11051TIP3   OH266687   8.141   8.556   0.688
11051TIP3    H166688   8.124   8.511   0.602
11051TIP3    H266689   8.194   8.489   0.735
11052TIP3   OH266690   8.296   8.886   0.970
11052TIP3    H166691   8.318   8.892   0.876
11052TIP3    H266692   8.372   8.837   1.007
11053TIP3   OH266693   8.177   8.409   1.072
11053TIP3    H166694   8.208   8.416   0.978
11053TIP3    H266695   8.217   8.488   1.115
11054TIP3   OH266696   8.791   8.998   1.128
11054TIP3    H166697   8.755   9.063   1.192
11054TIP3    H266698   8.780   8.914   1.179
11055TIP3   OH266699   8.288   8.867   1.543
11055TIP3    H166700   8.219   8.928   1.577
11055TIP3    H266701   8.249   8.841   1.456
11056TIP3   OH266702   8.861   8.458   0.287
11056TIP3    H166703   8.917   8.453   0.368
11056TIP3    H266704   8.921   8.498   0.221
11057TIP3   OH266705   7.995   8.494   1.418
11057TIP3    H166706   8.017   8.586   1.440
11057TIP3    H266707   7.920   8.477   1.478
11058TIP3   OH266708   8.621   9.129   0.680
11058TIP3    H166709   8.717   9.137   0.691
11058TIP3    H266710   8.601   9.192   0.610
11059TIP3   OH266711   8.090   9.055   1.607
11059TIP3    H166712   8.096   9.056   1.509
11059TIP3    H266713   7.999   9.024   1.623
11060TIP3   OH266714   9.246   7.534   0.308
11060TIP3    H166715   9.153   7.561   0.327
11060TIP3    H266716   9.252   7.549   0.212
11061TIP3   OH266717   8.036   8.441   0.456
11061TIP3    H166718   7.993   8.524   0.426
11061TIP3    H266719   7.970   8.375   0.430
11062TIP3   OH266720   9.328   9.040   0.106
11062TIP3    H166721   9.375   9.124   0.107
11062TIP3    H266722   9.401   8.975   0.100
11063TIP3   OH266723   7.683   8.712   1.370
11063TIP3    H166724   7.628   8.698   1.292
11063TIP3    H266725   7.702   8.619   1.395
11064TIP3   OH266726   7.649   8.974   1.036
11064TIP3    H166727   7.740   8.982   1.005
11064TIP3    H266728   7.640   9.053   1.090
11065TIP3   OH266729   8.549   8.973   1.500
11065TIP3    H166730   8.565   9.048   1.560
11065TIP3    H266731   8.454   8.954   1.519
11066TIP3   OH266732   7.980   9.215   0.650
11066TIP3    H166733   8.009   9.202   0.743
11066TIP3    H266734   7.903   9.155   0.647
11067TIP3   OH266735   8.889   9.320   0.166
11067TIP3    H166736   8.943   9.250   0.124
11067TIP3    H266737   8.880   9.288   0.258
11068TIP3   OH266738   8.839   9.261   0.434
11068TIP3    H166739   8.757   9.287   0.479
11068TIP3    H266740   8.875   9.192   0.492
11069TIP3   OH266741   9.167   8.207   1.636
11069TIP3    H166742   9.109   8.227   1.560
11069TIP3    H266743   9.226   8.140   1.597
11070TIP3   OH266744   7.912   8.825   1.441
11070TIP3    H166745   7.905   8.798   1.535
11070TIP3    H266746   7.822   8.801   1.409
11071TIP3   OH266747   8.164   7.707   1.039
11071TIP3    H166748   8.075   7.689   1.002
11071TIP3    H266749   8.140   7.755   1.121
11072TIP3   OH266750   8.666   7.642   1.362
11072TIP3    H166751   8.699   7.596   1.442
11072TIP3    H266752   8.568   7.636   1.367
11073TIP3   OH266753   8.947   8.025   1.446
11073TIP3    H166754   8.892   7.994   1.522
11073TIP3    H266755   8.954   8.121   1.462
11074TIP3   OH266756   9.029   8.551   0.106
11074TIP3    H166757   9.063   8.507   0.027
11074TIP3    H266758   9.109   8.600   0.133
11075TIP3   OH266759   8.595   7.950   0.123
11075TIP3    H166760   8.552   7.935   0.210
11075TIP3    H266761   8.580   7.865   0.081
11076TIP3   OH266762   8.172   8.167   1.177
11076TIP3    H166763   8.092   8.179   1.232
11076TIP3    H266764   8.181   8.257   1.138
11077TIP3   OH266765   8.160   8.169   0.651
11077TIP3    H166766   8.064   8.164   0.636
11077TIP3    H266767   8.195   8.151   0.560
11078TIP3   OH266768   8.727   8.251   0.528
11078TIP3    H166769   8.694   8.333   0.484
11078TIP3    H266770   8.786   8.215   0.460
11079TIP3   OH266771   8.598   8.285   1.695
11079TIP3    H166772   8.556   8.198   1.720
11079TIP3    H266773   8.684   8.278   1.739
11080TIP3   OH266774   8.817   8.235   0.831
11080TIP3    H166775   8.788   8.313   0.780
11080TIP3    H266776   8.825   8.169   0.760
11081TIP3   OH266777   7.918   8.185   1.309
11081TIP3    H166778   7.958   8.217   1.391
11081TIP3    H266779   7.891   8.094   1.335
11082TIP3   OH266780   8.262   7.967   0.070
11082TIP3    H166781   8.221   7.912   0.141
11082TIP3    H266782   8.234   8.058   0.097
11083TIP3   OH266783   7.604   7.912   0.751
11083TIP3    H166784   7.675   7.921   0.817
11083TIP3    H266785   7.637   7.966   0.677
11084TIP3   OH266786   7.706   7.979   0.260
11084TIP3    H166787   7.771   8.016   0.196
11084TIP3    H266788   7.649   8.058   0.270
11085TIP3   OH266789   8.745   8.364   1.267
11085TIP3    H166790   8.786   8.292   1.215
11085TIP3    H266791   8.686   8.313   1.326
11086TIP3   OH266792   8.446   7.921   0.749
11086TIP3    H166793   8.354   7.936   0.777
11086TIP3    H266794   8.491   7.896   0.831
11087TIP3   OH266795   7.882   8.090   0.656
11087TIP3    H166796   7.811   8.127   0.598
11087TIP3    H266797   7.897   8.000   0.619
11088TIP3   OH266798   8.233   8.125   0.388
11088TIP3    H166799   8.329   8.142   0.393
11088TIP3    H266800   8.206   8.169   0.304
11089TIP3   OH266801   8.904   7.840   1.058
11089TIP3    H166802   8.836   7.832   1.126
11089TIP3    H266803   8.866   7.786   0.985
11090TIP3   OH266804   8.167   8.210   0.144
11090TIP3    H166805   8.097   8.206   0.077
11090TIP3    H266806   8.237   8.264   0.101
11091TIP3   OH266807   7.939   8.676   1.683
11091TIP3    H166808   8.001   8.715   1.747
11091TIP3    H266809   7.857   8.673   1.735
11092TIP3   OH266810   8.497   8.202   0.904
11092TIP3    H166811   8.591   8.183   0.890
11092TIP3    H266812   8.471   8.131   0.965
11093TIP3   OH266813   7.980   7.841   0.582
11093TIP3    H166814   7.936   7.767   0.629
11093TIP3    H266815   8.024   7.794   0.509
11094TIP3   OH266816   8.402   8.032   1.189
11094TIP3    H166817   8.322   8.090   1.181
11094TIP3    H266818   8.467   8.089   1.233
11095TIP3   OH266819   8.463   8.679   0.371
11095TIP3    H166820   8.389   8.622   0.340
11095TIP3    H266821   8.427   8.707   0.458
11096TIP3   OH266822   9.178   8.615   1.244
11096TIP3    H166823   9.222   8.687   1.192
11096TIP3    H266824   9.101   8.592   1.189
11097TIP3   OH266825   8.846   7.969   0.217
11097TIP3    H166826   8.756   7.975   0.179
11097TIP3    H266827   8.872   8.063   0.224
11098TIP3   OH266828   8.556   8.698   1.477
11098TIP3    H166829   8.598   8.683   1.563
11098TIP3    H266830   8.541   8.795   1.480
11099TIP3   OH266831   8.937   8.188   0.336
11099TIP3    H166832   9.000   8.151   0.400
11099TIP3    H266833   8.968   8.279   0.328
11100TIP3   OH266834   7.981   8.635   0.917
11100TIP3    H166835   8.043   8.619   0.844
11100TIP3    H266836   7.995   8.558   0.975
11101TIP3   OH266837   8.676   8.823   0.294
11101TIP3    H166838   8.627   8.908   0.298
11101TIP3    H266839   8.603   8.761   0.317
11102TIP3   OH266840   7.674   8.466   1.478
11102TIP3    H166841   7.674   8.406   1.554
11102TIP3    H266842   7.622   8.417   1.412
11103TIP3   OH266843   8.354   8.402   1.660
11103TIP3    H166844   8.321   8.367   1.576
11103TIP3    H266845   8.447   8.371   1.659
11104TIP3   OH266846   8.858   8.956   1.476
11104TIP3    H166847   8.764   8.957   1.457
11104TIP3    H266848   8.855   8.987   1.568
11105TIP3   OH266849   9.270   9.033   0.367
11105TIP3    H166850   9.197   8.976   0.391
11105TIP3    H266851   9.277   9.022   0.270
11106TIP3   OH266852   8.969   8.526   1.071
11106TIP3    H166853   8.875   8.526   1.046
11106TIP3    H266854   9.008   8.481   0.993
11107TIP3   OH266855   8.204   8.964   0.697
11107TIP3    H166856   8.247   9.052   0.695
11107TIP3    H266857   8.126   8.979   0.642
11108TIP3   OH266858   7.786   8.435   0.130
11108TIP3    H166859   7.845   8.495   0.180
11108TIP3    H266860   7.697   8.460   0.159
11109TIP3   OH266861   8.351   8.747   0.608
11109TIP3    H166862   8.304   8.830   0.630
11109TIP3    H266863   8.313   8.688   0.674
11110TIP3   OH266864   8.410   9.186   1.265
11110TIP3    H166865   8.418   9.283   1.279
11110TIP3    H266866   8.474   9.152   1.330
11111TIP3   OH266867   8.253   9.206   0.566
11111TIP3    H166868   8.158   9.223   0.581
11111TIP3    H266869   8.288   9.283   0.615
11112TIP3   OH266870   8.723   8.734   1.235
11112TIP3    H166871   8.681   8.707   1.319
11112TIP3    H266872   8.775   8.656   1.213
11113TIP3   OH266873   8.967   8.905   0.193
11113TIP3    H166874   9.007   8.844   0.259
11113TIP3    H266875   8.883   8.859   0.178
11114TIP3   OH266876   9.027   9.220   1.452
11114TIP3    H166877   8.943   9.171   1.442
11114TIP3    H266878   9.011   9.311   1.421
11115TIP3   OH266879   7.860   7.933   1.428
11115TIP3    H166880   7.791   7.984   1.474
11115TIP3    H266881   7.837   7.842   1.455
11116TIP3   OH266882   9.066   8.707   0.369
11116TIP3    H166883   9.033   8.622   0.405
11116TIP3    H266884   9.162   8.687   0.357
11117TIP3   OH266885   7.825   9.111   1.266
11117TIP3    H166886   7.876   9.030   1.251
11117TIP3    H266887   7.869   9.152   1.342
11118TIP3   OH266888   8.284   8.925   0.236
11118TIP3    H166889   8.337   8.855   0.280
11118TIP3    H266890   8.325   9.005   0.274
11119TIP3   OH266891   7.917   8.637   0.282
11119TIP3    H166892   7.844   8.678   0.334
11119TIP3    H266893   7.961   8.715   0.244
11120TIP3   OH266894   8.717   7.923   1.348
11120TIP3    H166895   8.811   7.938   1.374
11120TIP3    H266896   8.699   7.833   1.378
11121TIP3   OH266897   8.780   7.893   0.473
11121TIP3    H166898   8.820   7.936   0.395
11121TIP3    H266899   8.819   7.947   0.546
11122TIP3   OH266900   8.545   9.065   0.302
11122TIP3    H166901   8.470   9.126   0.294
11122TIP3    H266902   8.608   9.106   0.238
11123TIP3   OH266903   8.522   8.064   0.526
11123TIP3    H166904   8.588   8.136   0.535
11123TIP3    H266905   8.508   8.033   0.618
11124TIP3   OH266906   8.602   8.177   1.433
11124TIP3    H166907   8.596   8.201   1.528
11124TIP3    H266908   8.650   8.091   1.434
11125TIP3   OH266909   8.579   7.739   0.564
11125TIP3    H166910   8.537   7.796   0.630
11125TIP3    H266911   8.655   7.798   0.535
11126TIP3   OH266912   8.314   9.254   0.301
11126TIP3    H166913   8.343   9.346   0.298
11126TIP3    H266914   8.283   9.239   0.394
11127TIP3   OH266915   8.142   7.862   0.292
11127TIP3    H166916   8.142   7.943   0.347
11127TIP3    H266917   8.226   7.821   0.320
11128TIP3   OH266918   9.192   7.930   1.475
11128TIP3    H166919   9.105   7.966   1.450
11128TIP3    H266920   9.236   7.924   1.389
11129TIP3   OH266921   9.061   8.358   0.870
11129TIP3    H166922   8.977   8.309   0.877
11129TIP3    H266923   9.117   8.305   0.930
11130TIP3   OH266924   7.989   8.888   0.143
11130TIP3    H166925   8.048   8.943   0.195
11130TIP3    H266926   8.054   8.838   0.089
11131TIP3   OH266927   7.826   8.172   0.062
11131TIP3    H166928   7.837   8.264   0.092
11131TIP3    H266929   7.745   8.181   0.010
11132TIP3   OH266930   9.252   9.188   1.082
11132TIP3    H166931   9.208   9.238   1.011
11132TIP3    H266932   9.282   9.262   1.137
11133TIP3   OH266933   7.903   7.654   0.979
11133TIP3    H166934   7.896   7.644   0.882
11133TIP3    H266935   7.868   7.567   1.009
11134TIP3   OH266936   7.774   9.023   0.556
11134TIP3    H166937   7.701   9.071   0.599
11134TIP3    H266938   7.779   9.079   0.476
11135TIP3   OH266939   7.713   9.288   1.658
11135TIP3    H166940   7.785   9.275   1.723
11135TIP3    H266941   7.668   9.201   1.663
11136TIP3   OH266942   8.193   9.171   1.842
11136TIP3    H166943   8.275   9.119   1.854
11136TIP3    H266944   8.162   9.140   1.754
11137TIP3   OH266945   8.652   9.172   0.080
11137TIP3    H166946   8.592   9.120   0.022
11137TIP3    H266947   8.719   9.199   0.016
11138TIP3   OH266948   8.815   9.057   1.726
11138TIP3    H166949   8.780   8.971   1.761
11138TIP3    H266950   8.902   9.057   1.774
11139TIP3   OH266951   9.069   9.146   0.036
11139TIP3    H166952   9.081   9.067   0.093
11139TIP3    H266953   9.160   9.175   0.024
11140TIP3   OH266954   7.682   8.663   1.799
11140TIP3    H166955   7.671   8.576   1.757
11140TIP3    H266956   7.647   8.724   1.729
11141TIP3   OH266957   8.171   8.700   0.038
11141TIP3    H166958   8.214   8.660   0.116
11141TIP3    H266959   8.216   8.656  -0.037
11142TIP3   OH266960   8.363   8.669   1.711
11142TIP3    H166961   8.357   8.729   1.633
11142TIP3    H266962   8.367   8.578   1.672
11143TIP3   OH266963   8.906   8.683   1.516
11143TIP3    H166964   8.998   8.719   1.503
11143TIP3    H266965   8.858   8.766   1.499
11144TIP3   OH266966   7.835   8.386   1.745
11144TIP3    H166967   7.910   8.325   1.753
11144TIP3    H266968   7.858   8.454   1.812
11145TIP3   OH266969   8.267   8.536   0.252
11145TIP3    H166970   8.199   8.482   0.296
11145TIP3    H266971   8.307   8.472   0.189
11146TIP3   OH266972   8.174   8.287   1.437
11146TIP3    H166973   8.121   8.368   1.446
11146TIP3    H266974   8.247   8.322   1.382
11147TIP3   OH266975   8.377   8.361   0.054
11147TIP3    H166976   8.397   8.358  -0.041
11147TIP3    H266977   8.469   8.365   0.091
11148TIP3   OH266978   8.727   8.564   1.834
11148TIP3    H166979   8.795   8.535   1.770
11148TIP3    H266980   8.679   8.483   1.857
11149TIP3   OH266981   9.314   8.563   8.499
11149TIP3    H166982   9.315   8.572   8.402
11149TIP3    H266983   9.368   8.637   8.529
11150TIP3   OH266984   8.260   8.054   1.547
11150TIP3    H166985   8.271   7.980   1.484
11150TIP3    H266986   8.221   8.124   1.490
11151TIP3   OH266987   8.277   7.863   1.362
11151TIP3    H166988   8.321   7.918   1.292
11151TIP3    H266989   8.185   7.858   1.327
11152TIP3   OH266990   8.391   8.451   1.358
11152TIP3    H166991   8.482   8.477   1.340
11152TIP3    H266992   8.341   8.524   1.314
11153TIP3   OH266993   8.882   8.171   1.830
11153TIP3    H166994   8.875   8.075   1.843
11153TIP3    H266995   8.963   8.182   1.778
11154TIP3   OH266996   9.005   8.489   1.670
11154TIP3    H166997   8.995   8.570   1.615
11154TIP3    H266998   9.102   8.478   1.674
11155TIP3   OH266999   8.076   8.146   1.766
11155TIP3    H167000   8.013   8.084   1.726
11155TIP3    H267001   8.153   8.135   1.707
11156TIP3   OH267002   8.390   7.624   1.335
11156TIP3    H167003   8.354   7.715   1.340
11156TIP3    H267004   8.309   7.576   1.312
11157TIP3   OH267005   8.472   8.051   1.752
11157TIP3    H167006   8.445   7.989   1.823
11157TIP3    H267007   8.414   8.020   1.680
11158TIP3   OH267008   8.791   7.937   1.650
11158TIP3    H167009   8.702   7.934   1.689
11158TIP3    H267010   8.844   7.889   1.717
11159TIP3   OH267011   8.931   7.811   1.850
11159TIP3    H167012   8.910   7.717   1.829
11159TIP3    H267013   8.920   7.808   1.946
11160TIP3   OH267014   7.872   7.919   1.800
11160TIP3    H167015   7.875   7.869   1.717
11160TIP3    H267016   7.877   7.845   1.863
11161TIP3   OH267017   8.316   7.572   1.610
11161TIP3    H167018   8.388   7.511   1.633
11161TIP3    H267019   8.341   7.598   1.520
11162TIP3   OH267020   8.356   7.776   1.831
11162TIP3    H167021   8.355   7.726   1.748
11162TIP3    H267022   8.314   7.711   1.890
11163TIP3   OH267023   7.712   8.869   0.091
11163TIP3    H167024   7.806   8.864   0.119
11163TIP3    H267025   7.724   8.870  -0.006
11164TIP3   OH267026   7.677   9.236   0.800
11164TIP3    H167027   7.587   9.231   0.835
11164TIP3    H267028   7.730   9.253   0.881
11165TIP3   OH267029   9.368   9.222   1.400
11165TIP3    H167030   9.325   9.162   1.336
11165TIP3    H267031   9.407   9.159   1.463
11166TIP3   OH267032   9.243   8.816   1.838
11166TIP3    H167033   9.152   8.845   1.821
11166TIP3    H267034   9.284   8.903   1.856
11167TIP3   OH267035   9.325   8.637   0.368
11167TIP3    H167036   9.389   8.706   0.397
11167TIP3    H267037   9.304   8.589   0.450
11168TIP3   OH267038   0.021   8.764   1.123
11168TIP3    H167039   0.079   8.695   1.083
11168TIP3    H267040   0.039   8.841   1.065
11169TIP3   OH267041   9.245   8.994   1.313
11169TIP3    H167042   9.166   9.043   1.340
11169TIP3    H267043   9.231   8.982   1.218
11170TIP3   OH267044   9.349   8.148   0.054
11170TIP3    H167045   9.305   8.215   0.001
11170TIP3    H267046   9.287   8.073   0.043
11171TIP3   OH267047   9.172   8.315   0.636
11171TIP3    H167048   9.156   8.222   0.611
11171TIP3    H267049   9.144   8.318   0.731
11172TIP3   OH267050   7.674   8.561   1.063
11172TIP3    H167051   7.673   8.522   0.973
11172TIP3    H267052   7.762   8.529   1.095
11173TIP3   OH267053   9.292   8.495   1.650
11173TIP3    H167054   9.302   8.399   1.651
11173TIP3    H267055   9.365   8.524   1.592
11174TIP3   OH267056   9.183   7.940  -0.017
11174TIP3    H167057   9.241   7.870   0.016
11174TIP3    H267058   9.094   7.911   0.007
11175TIP3   OH267059   9.124   8.086   0.498
11175TIP3    H167060   9.140   7.989   0.512
11175TIP3    H267061   9.194   8.104   0.434
11176TIP3   OH267062   9.183   8.145   1.040
11176TIP3    H167063   9.281   8.145   1.042
11176TIP3    H267064   9.166   8.156   1.135
11177TIP3   OH267065   9.223   8.213   1.324
11177TIP3    H167066   9.141   8.262   1.344
11177TIP3    H267067   9.280   8.283   1.285
11178TIP3   OH267068   7.668   8.048   1.644
11178TIP3    H167069   7.738   8.046   1.711
11178TIP3    H267070   7.627   7.959   1.655
11179TIP3   OH267071   9.167   7.822   0.518
11179TIP3    H167072   9.202   7.796   0.606
11179TIP3    H267073   9.126   7.738   0.489
11180TIP3   OH267074   7.765   7.887   1.012
11180TIP3    H167075   7.807   7.799   1.006
11180TIP3    H267076   7.843   7.947   1.012
11181TIP3   OH267077   7.610   8.196   1.075
11181TIP3    H167078   7.662   8.182   0.993
11181TIP3    H267079   7.662   8.266   1.114
11182TIP3   OH267080   7.618   7.809   0.455
11182TIP3    H167081   7.527   7.830   0.477
11182TIP3    H267082   7.635   7.866   0.377
11183TIP3   OH267083   9.109   9.318   0.650
11183TIP3    H167084   9.193   9.290   0.612
11183TIP3    H267085   9.142   9.360   0.732
11184TIP3   OH267086   7.620   7.671   1.291
11184TIP3    H167087   7.551   7.632   1.347
11184TIP3    H267088   7.572   7.737   1.237
11185TIP3   OH267089   7.842   8.997   1.703
11185TIP3    H167090   7.751   9.022   1.680
11185TIP3    H267091   7.862   9.067   1.768
11186TIP3   OH267092   8.141   9.123   1.344
11186TIP3    H167093   8.127   9.216   1.368
11186TIP3    H267094   8.226   9.130   1.297
11187TIP3   OH267095   8.574   9.224   1.619
11187TIP3    H167096   8.556   9.211   1.715
11187TIP3    H267097   8.670   9.235   1.621
11188TIP3   OH267098   9.254   7.624   1.489
11188TIP3    H167099   9.188   7.677   1.441
11188TIP3    H267100   9.271   7.548   1.431
11189TIP3   OH267101   8.764   9.223   1.296
11189TIP3    H167102   8.712   9.303   1.272
11189TIP3    H267103   8.850   9.250   1.263
11190TIP3   OH267104   7.828   9.256   1.035
11190TIP3    H167105   7.809   9.215   1.123
11190TIP3    H267106   7.905   9.202   1.003
11191TIP3   OH267107   8.037   9.158   0.899
11191TIP3    H167108   8.028   9.060   0.911
11191TIP3    H267109   8.121   9.172   0.950
11192TIP3   OH267110   8.255   9.151   1.041
11192TIP3    H167111   8.283   9.058   1.026
11192TIP3    H267112   8.305   9.174   1.121
11193TIP3   OH267113   8.632   7.762   0.915
11193TIP3    H167114   8.550   7.729   0.956
11193TIP3    H267115   8.665   7.684   0.869
11194TIP3   OH267116   9.146   7.561   0.902
11194TIP3    H167117   9.202   7.624   0.850
11194TIP3    H267118   9.057   7.596   0.879
11195TIP3   OH267119   9.294   7.705   0.726
11195TIP3    H167120   9.361   7.666   0.666
11195TIP3    H267121   9.344   7.783   0.758
11196TIP3   OH267122   7.871   7.614   0.707
11196TIP3    H167123   7.789   7.595   0.658
11196TIP3    H267124   7.923   7.533   0.688
11197TIP3   OH267125   7.744   7.607   0.254
11197TIP3    H167126   7.800   7.667   0.200
11197TIP3    H267127   7.705   7.666   0.321
11198TIP3   OH267128   8.306   7.588   0.681
11198TIP3    H167129   8.393   7.595   0.640
11198TIP3    H267130   8.319   7.637   0.765
11199TIP3   OH267131   8.899   7.639   0.809
11199TIP3    H167132   8.888   7.632   0.714
11199TIP3    H267133   8.848   7.561   0.841
11200TIP3   OH267134   9.004   7.610   0.388
11200TIP3    H167135   8.942   7.682   0.400
11200TIP3    H267136   8.952   7.532   0.418
11201TIP3   OH267137   7.721   9.199   0.362
11201TIP3    H167138   7.632   9.205   0.323
11201TIP3    H267139   7.762   9.275   0.317
11202TIP3   OH267140   7.923   7.744   0.111
11202TIP3    H167141   8.008   7.698   0.109
11202TIP3    H267142   7.950   7.831   0.145
11203TIP3   OH267143   8.447   7.866   0.358
11203TIP3    H167144   8.483   7.804   0.425
11203TIP3    H267145   8.467   7.949   0.406
11204TIP3   OH267146   8.653   9.426   0.208
11204TIP3    H167147   8.750   9.425   0.201
11204TIP3    H267148   8.633   9.341   0.165
11205TIP3   OH267149   9.340   9.259   0.501
11205TIP3    H167150   9.309   9.173   0.464
11205TIP3    H267151   9.305   9.321   0.435
11206TIP3   OH267152   7.848   7.684   1.615
11206TIP3    H167153   7.792   7.605   1.630
11206TIP3    H267154   7.925   7.664   1.674
11207TIP3   OH267155   8.045   7.632   1.802
11207TIP3    H167156   8.125   7.611   1.751
11207TIP3    H267157   8.038   7.544   1.844
11208TIP3   OH267158   7.968   9.312   0.058
11208TIP3    H167159   7.900   9.342   0.122
11208TIP3    H267160   7.984   9.222   0.085
11209TIP3   OH267161   8.889   7.549   1.817
11209TIP3    H167162   8.901   7.502   1.902
11209TIP3    H267163   8.978   7.534   1.778
11210TIP3   OH267164   9.181   9.165   1.674
11210TIP3    H167165   9.140   9.172   1.585
11210TIP3    H267166   9.247   9.235   1.671
11211TIP3   OH267167   1.722   0.073   2.196
11211TIP3    H167168   1.634   0.049   2.164
11211TIP3    H267169   1.750   0.138   2.130
11212TIP3   OH267170   1.829   1.497   1.953
11212TIP3    H167171   1.856   1.548   2.030
11212TIP3    H267172   1.872   1.412   1.970
11213TIP3   OH267173   0.691   0.387   1.923
11213TIP3    H167174   0.628   0.359   1.995
11213TIP3    H267175   0.638   0.459   1.887
11214TIP3   OH267176   0.289   0.930   2.034
11214TIP3    H167177   0.369   0.906   2.086
11214TIP3    H267178   0.248   0.845   2.016
11215TIP3   OH267179   0.883   1.416   1.866
11215TIP3    H167180   0.857   1.383   1.779
11215TIP3    H267181   0.812   1.378   1.921
11216TIP3   OH267182   1.064   1.640   1.879
11216TIP3    H167183   1.006   1.562   1.886
11216TIP3    H267184   1.145   1.601   1.841
11217TIP3   OH267185   1.510   1.556   1.859
11217TIP3    H167186   1.588   1.561   1.915
11217TIP3    H267187   1.550   1.578   1.772
11218TIP3   OH267188   0.600   1.182   1.875
11218TIP3    H167189   0.614   1.119   1.948
11218TIP3    H267190   0.674   1.158   1.816
11219TIP3   OH267191   1.148   1.317   1.875
11219TIP3    H167192   1.052   1.315   1.892
11219TIP3    H267193   1.162   1.223   1.853
11220TIP3   OH267194   0.844   0.822   1.897
11220TIP3    H167195   0.795   0.883   1.840
11220TIP3    H267196   0.913   0.791   1.836
11221TIP3   OH267197   1.782   1.014   1.898
11221TIP3    H167198   1.751   0.993   1.808
11221TIP3    H267199   1.788   1.112   1.894
11222TIP3   OH267200   0.270   1.307   1.959
11222TIP3    H167201   0.363   1.289   1.942
11222TIP3    H267202   0.226   1.253   1.889
11223TIP3   OH267203   1.924   0.890   2.089
11223TIP3    H167204   1.875   0.920   2.009
11223TIP3    H267205   1.884   0.949   2.155
11224TIP3   OH267206   1.678   0.671   1.928
11224TIP3    H167207   1.756   0.697   1.878
11224TIP3    H267208   1.659   0.580   1.897
11225TIP3   OH267209   1.633   0.403   1.892
11225TIP3    H167210   1.708   0.341   1.903
11225TIP3    H267211   1.559   0.348   1.863
11226TIP3   OH267212   1.835   0.269   2.044
11226TIP3    H167213   1.865   0.205   1.974
11226TIP3    H267214   1.899   0.340   2.033
11227TIP3   OH267215   0.423   1.771   1.945
11227TIP3    H167216   0.467   1.815   2.020
11227TIP3    H267217   0.496   1.710   1.919
11228TIP3   OH267218   3.244   0.865   2.156
11228TIP3    H167219   3.221   0.927   2.230
11228TIP3    H267220   3.288   0.927   2.093
11229TIP3   OH267221   3.576   0.077   2.155
11229TIP3    H167222   3.494   0.047   2.198
11229TIP3    H267223   3.547   0.109   2.068
11230TIP3   OH267224   3.264   1.758   2.037
11230TIP3    H167225   3.184   1.759   2.094
11230TIP3    H267226   3.338   1.779   2.097
11231TIP3   OH267227   3.364   1.012   1.976
11231TIP3    H167228   3.338   1.020   1.882
11231TIP3    H267229   3.461   1.003   1.964
11232TIP3   OH267230   2.552   0.396   1.943
11232TIP3    H167231   2.497   0.401   2.023
11232TIP3    H267232   2.518   0.472   1.892
11233TIP3   OH267233   2.500   0.712   2.044
11233TIP3    H167234   2.418   0.670   2.015
11233TIP3    H267235   2.556   0.703   1.964
11234TIP3   OH267236   3.142   0.438   2.047
11234TIP3    H167237   3.062   0.412   2.099
11234TIP3    H267238   3.195   0.486   2.115
11235TIP3   OH267239   3.304   0.608   2.199
11235TIP3    H167240   3.311   0.621   2.294
11235TIP3    H267241   3.300   0.702   2.168
11236TIP3   OH267242   2.202   0.936   2.012
11236TIP3    H167243   2.258   0.933   2.091
11236TIP3    H267244   2.116   0.901   2.045
11237TIP3   OH267245   2.772   1.467   1.860
11237TIP3    H167246   2.730   1.404   1.800
11237TIP3    H267247   2.741   1.438   1.947
11238TIP3   OH267248   2.909   1.516   2.125
11238TIP3    H167249   2.819   1.513   2.164
11238TIP3    H267250   2.936   1.606   2.149
11239TIP3   OH267251   2.656   1.623   2.188
11239TIP3    H167252   2.646   1.692   2.119
11239TIP3    H267253   2.698   1.676   2.259
11240TIP3   OH267254   2.144   0.655   1.921
11240TIP3    H167255   2.204   0.700   1.982
11240TIP3    H267256   2.086   0.610   1.983
11241TIP3   OH267257   2.979   1.651   1.871
11241TIP3    H167258   2.921   1.573   1.888
11241TIP3    H267259   3.058   1.609   1.833
11242TIP3   OH267260   2.492   1.158   1.894
11242TIP3    H167261   2.529   1.119   1.974
11242TIP3    H267262   2.566   1.143   1.831
11243TIP3   OH267263   3.022   1.311   1.821
11243TIP3    H167264   2.955   1.333   1.886
11243TIP3    H267265   3.018   1.212   1.822
11244TIP3   OH267266   2.631   0.955   2.105
11244TIP3    H167267   2.555   0.981   2.162
11244TIP3    H267268   2.598   0.868   2.075
11245TIP3   OH267269   2.716   0.790   1.881
11245TIP3    H167270   2.664   0.844   1.818
11245TIP3    H267271   2.804   0.829   1.869
11246TIP3   OH267272   3.621   1.035   1.879
11246TIP3    H167273   3.622   0.998   1.787
11246TIP3    H267274   3.714   1.064   1.887
11247TIP3   OH267275   2.668   1.856   2.041
11247TIP3    H167276   2.746   1.840   2.099
11247TIP3    H267277   2.704   1.923   1.981
11248TIP3   OH267278   3.616   0.647   1.928
11248TIP3    H167279   3.614   0.694   1.844
11248TIP3    H267280   3.576   0.561   1.906
11249TIP3   OH267281   3.537   0.375   1.905
11249TIP3    H167282   3.612   0.326   1.868
11249TIP3    H267283   3.462   0.343   1.852
11250TIP3   OH267284   2.060   0.077   2.060
11250TIP3    H167285   2.105   0.158   2.027
11250TIP3    H267286   2.049   0.098   2.153
11251TIP3   OH267287   2.237   0.265   1.975
11251TIP3    H167288   2.319   0.221   1.948
11251TIP3    H267289   2.265   0.310   2.059
11252TIP3   OH267290   2.228   1.719   1.879
11252TIP3    H167291   2.282   1.773   1.937
11252TIP3    H267292   2.299   1.665   1.837
11253TIP3   OH267293   4.885   0.798   1.926
11253TIP3    H167294   4.926   0.837   2.007
11253TIP3    H267295   4.927   0.709   1.930
11254TIP3   OH267296   5.078   0.851   2.120
11254TIP3    H167297   5.104   0.832   2.213
11254TIP3    H267298   5.159   0.897   2.088
11255TIP3   OH267299   5.561   0.226   2.110
11255TIP3    H167300   5.525   0.196   2.194
11255TIP3    H267301   5.658   0.231   2.130
11256TIP3   OH267302   5.290   0.980   1.996
11256TIP3    H167303   5.265   0.953   1.905
11256TIP3    H267304   5.374   1.025   1.977
11257TIP3   OH267305   4.301   0.720   2.046
11257TIP3    H167306   4.290   0.732   1.949
11257TIP3    H267307   4.381   0.666   2.051
11258TIP3   OH267308   5.054   0.429   2.025
11258TIP3    H167309   4.964   0.456   2.056
11258TIP3    H267310   5.108   0.483   2.084
11259TIP3   OH267311   5.244   1.321   2.023
11259TIP3    H167312   5.231   1.319   2.119
11259TIP3    H267313   5.156   1.296   1.991
11260TIP3   OH267314   4.649   1.440   1.860
11260TIP3    H167315   4.627   1.388   1.781
11260TIP3    H267316   4.581   1.408   1.923
11261TIP3   OH267317   4.514   1.384   2.101
11261TIP3    H167318   4.602   1.370   2.140
11261TIP3    H267319   4.477   1.457   2.153
11262TIP3   OH267320   4.042   0.661   1.955
11262TIP3    H167321   4.109   0.664   2.026
11262TIP3    H267322   3.957   0.666   2.002
11263TIP3   OH267323   4.849   1.653   1.856
11263TIP3    H167324   4.794   1.574   1.876
11263TIP3    H267325   4.919   1.616   1.800
11264TIP3   OH267326   5.278   1.574   1.874
11264TIP3    H167327   5.319   1.524   1.947
11264TIP3    H267328   5.347   1.578   1.805
11265TIP3   OH267329   4.381   1.136   1.864
11265TIP3    H167330   4.421   1.117   1.950
11265TIP3    H267331   4.458   1.126   1.806
11266TIP3   OH267332   4.948   1.332   1.859
11266TIP3    H167333   4.908   1.333   1.948
11266TIP3    H267334   4.929   1.238   1.835
11267TIP3   OH267335   4.606   0.844   1.927
11267TIP3    H167336   4.594   0.836   1.831
11267TIP3    H267337   4.687   0.793   1.942
11268TIP3   OH267338   5.540   1.028   1.890
11268TIP3    H167339   5.518   1.005   1.798
11268TIP3    H267340   5.550   1.126   1.886
11269TIP3   OH267341   4.529   1.824   2.047
11269TIP3    H167342   4.548   1.800   2.139
11269TIP3    H267343   4.580   1.905   2.030
11270TIP3   OH267344   5.393   0.405   1.881
11270TIP3    H167345   5.470   0.349   1.867
11270TIP3    H267346   5.323   0.361   1.829
11271TIP3   OH267347   3.891   0.126   2.041
11271TIP3    H167348   3.978   0.157   2.008
11271TIP3    H267349   3.903   0.113   2.135
11272TIP3   OH267350   4.124   0.230   1.965
11272TIP3    H167351   4.171   0.175   1.896
11272TIP3    H267352   4.199   0.283   1.996
11273TIP3   OH267353   4.146   1.765   1.972
11273TIP3    H167354   4.151   1.746   2.069
11273TIP3    H267355   4.216   1.703   1.941
11274TIP3   OH267356   6.762   0.807   1.919
11274TIP3    H167357   6.784   0.838   2.009
11274TIP3    H267358   6.822   0.730   1.911
11275TIP3   OH267359   6.979   0.886   2.140
11275TIP3    H167360   6.993   0.923   2.230
11275TIP3    H267361   7.049   0.931   2.088
11276TIP3   OH267362   7.346   0.029   2.118
11276TIP3    H167363   7.382   0.001   2.206
11276TIP3    H267364   7.374   0.122   2.113
11277TIP3   OH267365   7.152   1.021   1.978
11277TIP3    H167366   7.142   1.001   1.883
11277TIP3    H267367   7.249   1.031   1.986
11278TIP3   OH267368   6.326   0.388   1.891
11278TIP3    H167369   6.287   0.348   1.972
11278TIP3    H267370   6.274   0.470   1.881
11279TIP3   OH267371   7.110   1.311   2.016
11279TIP3    H167372   7.144   1.283   2.105
11279TIP3    H267373   7.078   1.224   1.986
11280TIP3   OH267374   6.538   1.430   1.878
11280TIP3    H167375   6.508   1.389   1.796
11280TIP3    H267376   6.491   1.377   1.946
11281TIP3   OH267377   6.402   1.358   2.118
11281TIP3    H167378   6.461   1.317   2.182
11281TIP3    H267379   6.407   1.453   2.141
11282TIP3   OH267380   6.049   1.138   2.185
11282TIP3    H167381   5.973   1.158   2.128
11282TIP3    H267382   6.125   1.158   2.129
11283TIP3   OH267383   6.417   1.611   2.197
11283TIP3    H167384   6.423   1.689   2.136
11283TIP3    H267385   6.476   1.642   2.268
11284TIP3   OH267386   6.341   0.315   2.162
11284TIP3    H167387   6.262   0.333   2.215
11284TIP3    H267388   6.416   0.331   2.220
11285TIP3   OH267389   7.141   1.554   1.866
11285TIP3    H167390   7.152   1.473   1.919
11285TIP3    H267391   7.226   1.561   1.819
11286TIP3   OH267392   6.243   1.158   1.852
11286TIP3    H167393   6.284   1.166   1.938
11286TIP3    H267394   6.322   1.139   1.796
11287TIP3   OH267395   6.429   0.756   1.920
11287TIP3    H167396   6.441   0.750   1.824
11287TIP3    H267397   6.514   0.785   1.954
11288TIP3   OH267398   7.431   1.024   1.911
11288TIP3    H167399   7.439   0.973   1.829
11288TIP3    H267400   7.440   1.117   1.881
11289TIP3   OH267401   6.476   1.843   2.085
11289TIP3    H167402   6.495   1.901   2.160
11289TIP3    H267403   6.461   1.903   2.009
11290TIP3   OH267404   5.818   1.291   1.999
11290TIP3    H167405   5.895   1.310   1.945
11290TIP3    H267406   5.770   1.229   1.940
11291TIP3   OH267407   7.297   0.442   1.919
11291TIP3    H167408   7.358   0.379   1.962
11291TIP3    H267409   7.233   0.380   1.879
11292TIP3   OH267410   7.481   0.281   2.073
11292TIP3    H167411   7.516   0.248   1.986
11292TIP3    H267412   7.545   0.240   2.135
11293TIP3   OH267413   6.077   0.277   2.007
11293TIP3    H167414   6.106   0.212   1.943
11293TIP3    H267415   6.021   0.225   2.067
11294TIP3   OH267416   5.972   1.774   1.913
11294TIP3    H167417   5.933   1.818   1.992
11294TIP3    H267418   6.041   1.719   1.955
11295TIP3   OH267419   8.672   0.823   1.987
11295TIP3    H167420   8.742   0.844   2.054
11295TIP3    H267421   8.693   0.730   1.973
11296TIP3   OH267422   8.884   0.862   2.135
11296TIP3    H167423   8.861   0.921   2.211
11296TIP3    H267424   8.946   0.912   2.081
11297TIP3   OH267425   9.278   0.111   2.129
11297TIP3    H167426   9.240   0.033   2.174
11297TIP3    H267427   9.201   0.140   2.082
11298TIP3   OH267428   0.066   1.496   1.935
11298TIP3    H167429   0.016   1.490   2.017
11298TIP3    H267430   0.145   1.441   1.955
11299TIP3   OH267431   8.968   1.736   2.052
11299TIP3    H167432   9.002   1.674   1.983
11299TIP3    H267433   8.956   1.677   2.127
11300TIP3   OH267434   8.282   0.415   1.914
11300TIP3    H167435   8.220   0.341   1.917
11300TIP3    H267436   8.234   0.474   1.851
11301TIP3   OH267437   8.133   0.703   2.013
11301TIP3    H167438   8.042   0.670   2.014
11301TIP3    H267439   8.164   0.660   1.932
11302TIP3   OH267440   8.911   0.585   2.179
11302TIP3    H167441   8.907   0.555   2.273
11302TIP3    H267442   8.907   0.682   2.192
11303TIP3   OH267443   8.599   1.262   2.097
11303TIP3    H167444   8.641   1.328   2.152
11303TIP3    H267445   8.592   1.190   2.161
11304TIP3   OH267446   7.771   0.891   2.060
11304TIP3    H167447   7.790   0.939   2.142
11304TIP3    H267448   7.709   0.949   2.014
11305TIP3   OH267449   8.411   1.433   1.881
11305TIP3    H167450   8.386   1.412   1.790
11305TIP3    H267451   8.447   1.347   1.910
11306TIP3   OH267452   7.979   1.367   2.025
11306TIP3    H167453   7.990   1.459   2.053
11306TIP3    H267454   8.046   1.357   1.957
11307TIP3   OH267455   7.870   0.636   1.985
11307TIP3    H167456   7.842   0.720   2.027
11307TIP3    H267457   7.789   0.593   1.956
11308TIP3   OH267458   9.082   1.554   1.893
11308TIP3    H167459   9.130   1.481   1.937
11308TIP3    H267460   9.141   1.569   1.816
11309TIP3   OH267461   8.740   1.310   1.863
11309TIP3    H167462   8.689   1.290   1.944
11309TIP3    H267463   8.750   1.218   1.828
11310TIP3   OH267464   7.700   1.326   1.962
11310TIP3    H167465   7.793   1.310   1.987
11310TIP3    H267466   7.685   1.259   1.890
11311TIP3   OH267467   9.202   0.669   1.926
11311TIP3    H167468   9.230   0.667   1.833
11311TIP3    H267469   9.183   0.574   1.943
11312TIP3   OH267470   9.151   0.392   1.884
11312TIP3    H167471   9.212   0.321   1.903
11312TIP3    H267472   9.076   0.346   1.843
11313TIP3   OH267473   7.911   0.254   1.980
11313TIP3    H167474   7.929   0.191   1.908
11313TIP3    H267475   7.994   0.251   2.026
11314TIP3   OH267476   7.857   1.728   1.917
11314TIP3    H167477   7.834   1.792   1.987
11314TIP3    H267478   7.947   1.704   1.942
11315TIP3   OH267479   1.360   3.664   2.015
11315TIP3    H167480   1.413   3.595   1.969
11315TIP3    H267481   1.340   3.621   2.100
11316TIP3   OH267482   1.503   2.886   1.979
11316TIP3    H167483   1.475   2.911   1.889
11316TIP3    H267484   1.600   2.888   1.961
11317TIP3   OH267485   1.045   2.225   2.013
11317TIP3    H167486   1.001   2.255   2.094
11317TIP3    H267487   0.982   2.158   1.978
11318TIP3   OH267488   0.706   2.292   1.871
11318TIP3    H167489   0.713   2.259   1.962
11318TIP3    H267490   0.628   2.349   1.873
11319TIP3   OH267491   1.287   2.327   2.069
11319TIP3    H167492   1.197   2.290   2.057
11319TIP3    H267493   1.261   2.411   2.110
11320TIP3   OH267494   1.148   3.171   2.117
11320TIP3    H167495   1.113   3.246   2.169
11320TIP3    H267496   1.103   3.095   2.156
11321TIP3   OH267497   1.447   3.224   2.014
11321TIP3    H167498   1.465   3.176   2.096
11321TIP3    H267499   1.359   3.187   1.992
11322TIP3   OH267500   1.077   3.548   1.856
11322TIP3    H167501   1.035   3.468   1.890
11322TIP3    H267502   1.154   3.509   1.811
11323TIP3   OH267503   1.505   3.467   1.890
11323TIP3    H167504   1.518   3.386   1.944
11323TIP3    H267505   1.591   3.475   1.841
11324TIP3   OH267506   0.612   3.031   1.888
11324TIP3    H167507   0.651   2.966   1.949
11324TIP3    H267508   0.681   3.029   1.818
11325TIP3   OH267509   1.189   3.191   1.845
11325TIP3    H167510   1.161   3.183   1.939
11325TIP3    H267511   1.187   3.096   1.818
11326TIP3   OH267512   0.707   2.865   2.121
11326TIP3    H167513   0.739   2.817   2.198
11326TIP3    H267514   0.763   2.822   2.052
11327TIP3   OH267515   0.833   2.717   1.926
11327TIP3    H167516   0.835   2.702   1.830
11327TIP3    H267517   0.921   2.689   1.956
11328TIP3   OH267518   1.760   2.925   1.900
11328TIP3    H167519   1.760   2.897   1.806
11328TIP3    H267520   1.773   3.023   1.889
11329TIP3   OH267521   0.859   3.710   2.070
11329TIP3    H167522   0.936   3.746   2.118
11329TIP3    H267523   0.839   3.785   2.010
11330TIP3   OH267524   0.274   3.208   1.970
11330TIP3    H167525   0.325   3.240   1.893
11330TIP3    H267526   0.192   3.180   1.925
11331TIP3   OH267527   1.792   2.527   1.943
11331TIP3    H167528   1.727   2.599   1.945
11331TIP3    H267529   1.733   2.455   1.912
11332TIP3   OH267530   1.643   2.310   1.887
11332TIP3    H167531   1.695   2.279   1.813
11332TIP3    H267532   1.556   2.271   1.865
11333TIP3   OH267533   1.123   3.719   2.112
11333TIP3    H167534   1.201   3.713   2.055
11333TIP3    H267535   1.064   3.658   2.064
11334TIP3   OH267536   0.346   3.576   1.919
11334TIP3    H167537   0.340   3.641   1.991
11334TIP3    H267538   0.444   3.571   1.903
11335TIP3   OH267539   3.732   3.324   2.026
11335TIP3    H167540   3.764   3.384   1.958
11335TIP3    H267541   3.810   3.266   2.035
11336TIP3   OH267542   3.188   3.603   1.955
11336TIP3    H167543   3.274   3.558   1.949
11336TIP3    H267544   3.186   3.636   2.048
11337TIP3   OH267545   3.343   2.874   1.957
11337TIP3    H167546   3.337   2.876   1.859
11337TIP3    H267547   3.433   2.904   1.971
11338TIP3   OH267548   2.889   2.249   1.973
11338TIP3    H167549   2.942   2.219   2.048
11338TIP3    H267550   2.852   2.164   1.944
11339TIP3   OH267551   2.493   2.529   2.007
11339TIP3    H167552   2.437   2.519   1.929
11339TIP3    H267553   2.557   2.594   1.976
11340TIP3   OH267554   3.160   2.318   2.100
11340TIP3    H167555   3.123   2.381   2.037
11340TIP3    H267556   3.225   2.369   2.152
11341TIP3   OH267557   3.334   2.511   2.204
11341TIP3    H167558   3.426   2.488   2.182
11341TIP3    H267559   3.327   2.601   2.169
11342TIP3   OH267560   3.361   3.198   2.019
11342TIP3    H167561   3.350   3.159   2.107
11342TIP3    H267562   3.268   3.200   1.989
11343TIP3   OH267563   2.781   3.284   1.892
11343TIP3    H167564   2.760   3.303   1.800
11343TIP3    H267565   2.698   3.245   1.922
11344TIP3   OH267566   2.613   3.216   2.160
11344TIP3    H167567   2.655   3.172   2.235
11344TIP3    H267568   2.674   3.288   2.142
11345TIP3   OH267569   2.362   3.257   2.025
11345TIP3    H167570   2.439   3.237   2.081
11345TIP3    H267571   2.389   3.204   1.948
11346TIP3   OH267572   2.143   2.500   1.978
11346TIP3    H167573   2.195   2.434   1.930
11346TIP3    H267574   2.056   2.496   1.934
11347TIP3   OH267575   2.935   3.579   1.877
11347TIP3    H167576   2.905   3.539   1.960
11347TIP3    H267577   3.026   3.604   1.907
11348TIP3   OH267578   3.412   3.463   1.871
11348TIP3    H167579   3.425   3.383   1.924
11348TIP3    H267580   3.490   3.466   1.813
11349TIP3   OH267581   2.497   3.059   1.877
11349TIP3    H167582   2.461   2.972   1.901
11349TIP3    H267583   2.574   3.036   1.821
11350TIP3   OH267584   3.081   3.183   1.849
11350TIP3    H167585   2.993   3.200   1.886
11350TIP3    H267586   3.064   3.115   1.782
11351TIP3   OH267587   2.720   3.799   2.051
11351TIP3    H167588   2.792   3.763   2.104
11351TIP3    H267589   2.766   3.869   2.001
11352TIP3   OH267590   3.584   2.520   1.918
11352TIP3    H167591   3.589   2.546   1.825
11352TIP3    H267592   3.555   2.428   1.904
11353TIP3   OH267593   3.536   2.270   1.830
11353TIP3    H167594   3.620   2.239   1.867
11353TIP3    H267595   3.472   2.223   1.888
11354TIP3   OH267596   2.279   3.653   1.916
11354TIP3    H167597   2.204   3.664   1.978
11354TIP3    H267598   2.308   3.562   1.932
11355TIP3   OH267599   4.889   2.717   1.946
11355TIP3    H167600   4.875   2.705   2.041
11355TIP3    H267601   4.954   2.646   1.928
11356TIP3   OH267602   5.186   3.635   2.056
11356TIP3    H167603   5.138   3.558   2.024
11356TIP3    H267604   5.132   3.659   2.136
11357TIP3   OH267605   5.245   2.949   1.964
11357TIP3    H167606   5.210   2.929   1.875
11357TIP3    H267607   5.336   2.914   1.954
11358TIP3   OH267608   4.492   2.308   1.904
11358TIP3    H167609   4.429   2.254   1.951
11358TIP3    H267610   4.432   2.366   1.852
11359TIP3   OH267611   4.313   2.555   1.995
11359TIP3    H167612   4.337   2.530   1.903
11359TIP3    H267613   4.396   2.600   2.023
11360TIP3   OH267614   5.083   2.344   2.053
11360TIP3    H167615   4.997   2.322   2.096
11360TIP3    H267616   5.140   2.347   2.134
11361TIP3   OH267617   5.653   2.554   2.169
11361TIP3    H167618   5.558   2.537   2.183
11361TIP3    H267619   5.662   2.647   2.193
11362TIP3   OH267620   4.655   3.344   1.869
11362TIP3    H167621   4.604   3.316   1.791
11362TIP3    H267622   4.608   3.295   1.939
11363TIP3   OH267623   4.524   3.245   2.159
11363TIP3    H167624   4.542   3.163   2.209
11363TIP3    H267625   4.598   3.299   2.190
11364TIP3   OH267626   4.776   3.404   2.185
11364TIP3    H167627   4.808   3.460   2.258
11364TIP3    H267628   4.818   3.447   2.110
11365TIP3   OH267629   4.215   3.248   2.043
11365TIP3    H167630   4.242   3.211   2.130
11365TIP3    H267631   4.284   3.206   1.989
11366TIP3   OH267632   4.051   2.570   1.891
11366TIP3    H167633   4.129   2.557   1.949
11366TIP3    H267634   3.979   2.532   1.943
11367TIP3   OH267635   4.867   3.522   1.889
11367TIP3    H167636   4.796   3.454   1.881
11367TIP3    H267637   4.938   3.480   1.835
11368TIP3   OH267638   5.288   3.436   1.859
11368TIP3    H167639   5.345   3.480   1.924
11368TIP3    H267640   5.337   3.457   1.777
11369TIP3   OH267641   4.373   3.049   1.883
11369TIP3    H167642   4.368   2.989   1.960
11369TIP3    H267643   4.467   3.042   1.861
11370TIP3   OH267644   4.934   3.202   1.830
11370TIP3    H167645   4.843   3.208   1.863
11370TIP3    H267646   4.941   3.104   1.823
11371TIP3   OH267647   4.494   2.884   2.088
11371TIP3    H167648   4.470   2.881   2.182
11371TIP3    H267649   4.553   2.807   2.079
11372TIP3   OH267650   4.615   2.693   1.911
11372TIP3    H167651   4.577   2.712   1.824
11372TIP3    H267652   4.711   2.689   1.891
11373TIP3   OH267653   5.525   2.908   1.886
11373TIP3    H167654   5.514   2.887   1.790
11373TIP3    H267655   5.581   2.989   1.880
11374TIP3   OH267656   3.949   3.154   1.993
11374TIP3    H167657   4.046   3.168   1.997
11374TIP3    H267658   3.937   3.110   1.905
11375TIP3   OH267659   5.699   2.816   2.086
11375TIP3    H167660   5.615   2.825   2.038
11375TIP3    H267661   5.680   2.850   2.175
11376TIP3   OH267662   5.461   2.515   1.916
11376TIP3    H167663   5.510   2.585   1.872
11376TIP3    H267664   5.431   2.461   1.842
11377TIP3   OH267665   4.137   2.162   1.964
11377TIP3    H167666   4.196   2.100   1.914
11377TIP3    H267667   4.063   2.102   1.985
11378TIP3   OH267668   7.151   2.946   1.978
11378TIP3    H167669   7.122   2.922   1.888
11378TIP3    H267670   7.247   2.934   1.967
11379TIP3   OH267671   6.673   2.256   1.992
11379TIP3    H167672   6.655   2.271   2.086
11379TIP3    H267673   6.634   2.169   1.978
11380TIP3   OH267674   6.359   2.294   1.902
11380TIP3    H167675   6.309   2.255   1.977
11380TIP3    H267676   6.290   2.344   1.855
11381TIP3   OH267677   5.825   2.346   2.125
11381TIP3    H167678   5.872   2.387   2.050
11381TIP3    H267679   5.760   2.417   2.145
11382TIP3   OH267680   6.944   2.291   2.040
11382TIP3    H167681   6.850   2.295   2.015
11382TIP3    H267682   6.938   2.357   2.114
11383TIP3   OH267683   5.964   2.824   2.039
11383TIP3    H167684   5.997   2.853   2.127
11383TIP3    H267685   5.867   2.827   2.055
11384TIP3   OH267686   7.513   3.634   2.033
11384TIP3    H167687   7.606   3.656   2.021
11384TIP3    H267688   7.478   3.703   2.093
11385TIP3   OH267689   6.534   3.330   1.870
11385TIP3    H167690   6.505   3.278   1.792
11385TIP3    H267691   6.486   3.279   1.940
11386TIP3   OH267692   6.413   3.274   2.105
11386TIP3    H167693   6.429   3.203   2.171
11386TIP3    H267694   6.428   3.355   2.157
11387TIP3   OH267695   6.415   3.542   2.170
11387TIP3    H167696   6.397   3.526   2.075
11387TIP3    H267697   6.325   3.544   2.206
11388TIP3   OH267698   6.089   3.256   2.017
11388TIP3    H167699   6.135   3.248   2.101
11388TIP3    H267700   6.139   3.189   1.966
11389TIP3   OH267701   5.891   2.532   1.950
11389TIP3    H167702   5.943   2.615   1.953
11389TIP3    H267703   5.803   2.566   1.976
11390TIP3   OH267704   6.734   3.528   1.882
11390TIP3    H167705   6.675   3.450   1.894
11390TIP3    H267706   6.812   3.490   1.838
11391TIP3   OH267707   7.179   3.455   1.860
11391TIP3    H167708   7.242   3.434   1.930
11391TIP3    H267709   7.238   3.463   1.782
11392TIP3   OH267710   6.264   3.041   1.863
11392TIP3    H167711   6.252   2.958   1.911
11392TIP3    H267712   6.344   3.021   1.810
11393TIP3   OH267713   6.826   3.209   1.837
11393TIP3    H167714   6.735   3.205   1.870
11393TIP3    H267715   6.843   3.112   1.825
11394TIP3   OH267716   6.486   2.725   1.929
11394TIP3    H167717   6.490   2.730   1.833
11394TIP3    H267718   6.515   2.635   1.948
11395TIP3   OH267719   7.425   2.925   1.874
11395TIP3    H167720   7.403   2.891   1.785
11395TIP3    H267721   7.509   2.971   1.860
11396TIP3   OH267722   7.593   2.791   2.087
11396TIP3    H167723   7.528   2.827   2.024
11396TIP3    H267724   7.567   2.833   2.171
11397TIP3   OH267725   7.474   2.483   1.934
11397TIP3    H167726   7.459   2.564   1.883
11397TIP3    H267727   7.403   2.425   1.899
11398TIP3   OH267728   7.315   2.274   1.842
11398TIP3    H167729   7.357   2.187   1.851
11398TIP3    H267730   7.220   2.254   1.835
11399TIP3   OH267731   7.538   2.133   2.043
11399TIP3    H167732   7.542   2.053   1.988
11399TIP3    H267733   7.585   2.194   1.985
11400TIP3   OH267734   5.884   1.921   2.143
11400TIP3    H167735   5.828   1.998   2.130
11400TIP3    H267736   5.829   1.872   2.208
11401TIP3   OH267737   6.078   2.174   1.982
11401TIP3    H167738   6.114   2.121   1.907
11401TIP3    H267739   6.027   2.106   2.029
11402TIP3   OH267740   8.640   2.713   1.958
11402TIP3    H167741   8.658   2.725   2.055
11402TIP3    H267742   8.701   2.640   1.938
11403TIP3   OH267743   9.193   2.105   2.105
11403TIP3    H167744   9.129   2.050   2.153
11403TIP3    H267745   9.253   2.041   2.064
11404TIP3   OH267746   9.364   3.407   1.985
11404TIP3    H167747   9.361   3.500   2.013
11404TIP3    H267748   9.389   3.363   2.068
11405TIP3   OH267749   8.984   3.663   2.086
11405TIP3    H167750   8.984   3.579   2.036
11405TIP3    H267751   8.905   3.654   2.141
11406TIP3   OH267752   8.605   2.207   1.979
11406TIP3    H167753   8.566   2.234   2.063
11406TIP3    H267754   8.548   2.134   1.951
11407TIP3   OH267755   8.244   2.274   1.875
11407TIP3    H167756   8.212   2.252   1.965
11407TIP3    H267757   8.190   2.354   1.857
11408TIP3   OH267758   8.857   2.322   2.051
11408TIP3    H167759   8.762   2.305   2.031
11408TIP3    H267760   8.863   2.418   2.034
11409TIP3   OH267761   9.052   3.236   2.047
11409TIP3    H167762   9.106   3.185   2.110
11409TIP3    H267763   8.983   3.175   2.019
11410TIP3   OH267764   7.921   2.979   2.193
11410TIP3    H167765   7.845   3.036   2.214
11410TIP3    H267766   7.998   3.035   2.190
11411TIP3   OH267767   8.203   2.181   2.133
11411TIP3    H167768   8.212   2.231   2.215
11411TIP3    H267769   8.289   2.139   2.123
11412TIP3   OH267770   7.978   3.247   2.023
11412TIP3    H167771   8.027   3.251   2.106
11412TIP3    H267772   8.040   3.193   1.969
11413TIP3   OH267773   9.072   3.456   1.900
11413TIP3    H167774   9.066   3.379   1.961
11413TIP3    H267775   9.159   3.443   1.858
11414TIP3   OH267776   8.153   3.055   1.876
11414TIP3    H167777   8.172   2.992   1.950
11414TIP3    H267778   8.234   3.042   1.821
11415TIP3   OH267779   8.696   3.199   1.836
11415TIP3    H167780   8.627   3.148   1.881
11415TIP3    H267781   8.732   3.125   1.784
11416TIP3   OH267782   8.225   2.865   2.076
11416TIP3    H167783   8.239   2.842   2.170
11416TIP3    H267784   8.278   2.795   2.032
11417TIP3   OH267785   8.381   2.696   1.927
11417TIP3    H167786   8.374   2.709   1.831
11417TIP3    H267787   8.478   2.706   1.942
11418TIP3   OH267788   9.328   2.906   1.902
11418TIP3    H167789   9.281   2.884   1.819
11418TIP3    H267790   9.302   3.001   1.911
11419TIP3   OH267791   8.393   3.705   2.059
11419TIP3    H167792   8.423   3.745   2.143
11419TIP3    H267793   8.372   3.788   2.010
11420TIP3   OH267794   7.703   3.148   1.993
11420TIP3    H167795   7.793   3.185   2.004
11420TIP3    H267796   7.717   3.080   1.925
11421TIP3   OH267797   9.289   2.500   1.944
11421TIP3    H167798   9.260   2.582   1.903
11421TIP3    H267799   9.246   2.432   1.888
11422TIP3   OH267800   9.195   2.258   1.858
11422TIP3    H167801   9.157   2.255   1.948
11422TIP3    H267802   9.117   2.238   1.803
11423TIP3   OH267803   7.974   2.185   1.996
11423TIP3    H167804   7.963   2.099   1.952
11423TIP3    H267805   8.056   2.169   2.047
11424TIP3   OH267806   8.670   3.636   2.030
11424TIP3    H167807   8.717   3.713   2.061
11424TIP3    H267808   8.577   3.666   2.032
11425TIP3   OH267809   7.850   3.611   1.913
11425TIP3    H167810   7.857   3.601   2.009
11425TIP3    H267811   7.940   3.583   1.885
11426TIP3   OH267812   1.131   4.562   1.939
11426TIP3    H167813   1.175   4.599   2.018
11426TIP3    H267814   1.202   4.500   1.909
11427TIP3   OH267815   1.329   4.607   2.113
11427TIP3    H167816   1.362   4.610   2.204
11427TIP3    H267817   1.404   4.644   2.060
11428TIP3   OH267818   1.707   3.866   2.165
11428TIP3    H167819   1.616   3.836   2.157
11428TIP3    H267820   1.719   3.922   2.087
11429TIP3   OH267821   1.818   5.262   1.988
11429TIP3    H167822   1.818   5.297   2.079
11429TIP3    H267823   1.908   5.223   1.984
11430TIP3   OH267824   1.400   5.538   2.105
11430TIP3    H167825   1.406   5.447   2.140
11430TIP3    H267826   1.394   5.583   2.193
11431TIP3   OH267827   1.521   4.711   1.949
11431TIP3    H167828   1.475   4.769   1.885
11431TIP3    H267829   1.612   4.745   1.938
11432TIP3   OH267830   0.692   4.160   1.889
11432TIP3    H167831   0.649   4.130   1.970
11432TIP3    H267832   0.624   4.218   1.854
11433TIP3   OH267833   0.568   4.419   2.004
11433TIP3    H167834   0.554   4.428   1.908
11433TIP3    H267835   0.655   4.460   2.012
11434TIP3   OH267836   1.107   5.119   2.102
11434TIP3    H167837   1.081   5.198   2.153
11434TIP3    H267838   1.185   5.095   2.158
11435TIP3   OH267839   0.248   4.727   2.003
11435TIP3    H167840   0.308   4.733   2.080
11435TIP3    H267841   0.163   4.697   2.039
11436TIP3   OH267842   1.463   5.067   2.022
11436TIP3    H167843   1.485   5.133   2.093
11436TIP3    H267844   1.374   5.093   2.000
11437TIP3   OH267845   0.864   5.215   1.860
11437TIP3    H167846   0.830   5.177   1.777
11437TIP3    H267847   0.913   5.145   1.904
11438TIP3   OH267848   0.408   4.912   2.181
11438TIP3    H167849   0.314   4.917   2.205
11438TIP3    H267850   0.409   4.980   2.113
11439TIP3   OH267851   0.450   5.152   2.021
11439TIP3    H167852   0.444   5.220   2.090
11439TIP3    H267853   0.487   5.200   1.946
11440TIP3   OH267854   1.040   5.436   1.866
11440TIP3    H167855   1.012   5.343   1.881
11440TIP3    H267856   1.137   5.429   1.866
11441TIP3   OH267857   1.508   5.308   1.857
11441TIP3    H167858   1.537   5.302   1.950
11441TIP3    H267859   1.588   5.342   1.811
11442TIP3   OH267860   1.152   5.083   1.832
11442TIP3    H167861   1.133   5.091   1.927
11442TIP3    H267862   1.157   4.985   1.822
11443TIP3   OH267863   0.805   4.540   1.901
11443TIP3    H167864   0.814   4.578   1.810
11443TIP3    H267865   0.896   4.539   1.933
11444TIP3   OH267866   1.781   4.791   1.896
11444TIP3    H167867   1.756   4.768   1.804
11444TIP3    H267868   1.768   4.890   1.893
11445TIP3   OH267869   0.781   5.598   2.046
11445TIP3    H167870   0.871   5.569   2.065
11445TIP3    H267871   0.801   5.685   2.005
11446TIP3   OH267872   0.197   5.059   2.039
11446TIP3    H167873   0.282   5.076   1.996
11446TIP3    H267874   0.135   5.045   1.964
11447TIP3   OH267875   1.710   4.416   1.925
11447TIP3    H167876   1.728   4.483   1.858
11447TIP3    H267877   1.645   4.357   1.883
11448TIP3   OH267878   1.657   4.104   1.902
11448TIP3    H167879   1.741   4.082   1.862
11448TIP3    H267880   1.596   4.098   1.828
11449TIP3   OH267881   0.187   3.853   2.105
11449TIP3    H167882   0.269   3.839   2.157
11449TIP3    H267883   0.125   3.853   2.179
11450TIP3   OH267884   0.338   5.476   1.909
11450TIP3    H167885   0.282   5.523   1.972
11450TIP3    H267886   0.422   5.472   1.955
11451TIP3   OH267887   3.034   4.588   1.959
11451TIP3    H167888   3.008   4.528   2.030
11451TIP3    H267889   3.108   4.537   1.920
11452TIP3   OH267890   3.723   5.239   1.967
11452TIP3    H167891   3.753   5.332   1.963
11452TIP3    H267892   3.793   5.204   2.027
11453TIP3   OH267893   3.397   4.842   1.979
11453TIP3    H167894   3.355   4.831   1.891
11453TIP3    H267895   3.489   4.814   1.959
11454TIP3   OH267896   2.563   4.179   1.910
11454TIP3    H167897   2.519   4.176   1.997
11454TIP3    H267898   2.517   4.250   1.863
11455TIP3   OH267899   2.465   4.485   2.042
11455TIP3    H167900   2.426   4.422   1.978
11455TIP3    H267901   2.557   4.486   2.010
11456TIP3   OH267902   2.170   4.726   1.993
11456TIP3    H167903   2.191   4.705   2.085
11456TIP3    H267904   2.080   4.759   1.998
11457TIP3   OH267905   3.815   5.494   2.019
11457TIP3    H167906   3.854   5.584   2.018
11457TIP3    H267907   3.782   5.489   2.111
11458TIP3   OH267908   2.859   5.322   2.118
11458TIP3    H167909   2.854   5.357   2.207
11458TIP3    H267910   2.929   5.377   2.078
11459TIP3   OH267911   2.503   4.154   2.162
11459TIP3    H167912   2.516   4.224   2.228
11459TIP3    H267913   2.570   4.089   2.189
11460TIP3   OH267914   2.983   5.401   1.883
11460TIP3    H167915   2.929   5.321   1.891
11460TIP3    H267916   3.060   5.369   1.830
11461TIP3   OH267917   3.041   5.072   1.859
11461TIP3    H167918   2.946   5.060   1.875
11461TIP3    H267919   3.063   4.978   1.838
11462TIP3   OH267920   2.607   4.743   2.113
11462TIP3    H167921   2.545   4.672   2.137
11462TIP3    H267922   2.658   4.696   2.045
11463TIP3   OH267923   2.730   4.568   1.936
11463TIP3    H167924   2.686   4.559   1.850
11463TIP3    H267925   2.821   4.552   1.910
11464TIP3   OH267926   3.672   4.765   1.911
11464TIP3    H167927   3.653   4.747   1.817
11464TIP3    H267928   3.698   4.859   1.906
11465TIP3   OH267929   2.054   5.096   1.981
11465TIP3    H167930   2.137   5.058   2.011
11465TIP3    H267931   2.032   5.040   1.903
11466TIP3   OH267932   3.513   4.183   1.914
11466TIP3    H167933   3.585   4.141   1.964
11466TIP3    H267934   3.440   4.125   1.943
11467TIP3   OH267935   3.761   4.058   2.049
11467TIP3    H167936   3.733   3.983   1.994
11467TIP3    H267937   3.847   4.029   2.080
11468TIP3   OH267938   2.118   3.798   2.113
11468TIP3    H167939   2.156   3.879   2.076
11468TIP3    H267940   2.024   3.818   2.120
11469TIP3   OH267941   2.276   4.036   2.002
11469TIP3    H167942   2.329   3.985   1.937
11469TIP3    H267943   2.346   4.066   2.064
11470TIP3   OH267944   2.224   5.453   1.889
11470TIP3    H167945   2.224   5.438   1.985
11470TIP3    H267946   2.305   5.406   1.861
11471TIP3   OH267947   5.624   5.240   1.985
11471TIP3    H167948   5.636   5.314   2.047
11471TIP3    H267949   5.651   5.286   1.904
11472TIP3   OH267950   5.249   4.815   1.968
11472TIP3    H167951   5.220   4.805   1.874
11472TIP3    H267952   5.342   4.790   1.961
11473TIP3   OH267953   4.830   4.117   1.968
11473TIP3    H167954   4.749   4.156   2.002
11473TIP3    H267955   4.799   4.026   1.954
11474TIP3   OH267956   4.485   4.198   1.938
11474TIP3    H167957   4.480   4.251   2.019
11474TIP3    H267958   4.402   4.222   1.893
11475TIP3   OH267959   4.320   4.410   2.063
11475TIP3    H167960   4.327   4.426   1.968
11475TIP3    H267961   4.380   4.477   2.101
11476TIP3   OH267962   5.068   4.206   2.074
11476TIP3    H167963   4.984   4.169   2.039
11476TIP3    H267964   5.074   4.289   2.023
11477TIP3   OH267965   5.248   5.101   1.987
11477TIP3    H167966   5.249   5.003   1.980
11477TIP3    H267967   5.156   5.119   2.014
11478TIP3   OH267968   5.671   5.505   2.052
11478TIP3    H167969   5.733   5.579   2.043
11478TIP3    H267970   5.590   5.555   2.077
11479TIP3   OH267971   4.659   5.170   1.890
11479TIP3    H167972   4.630   5.198   1.803
11479TIP3    H267973   4.616   5.084   1.899
11480TIP3   OH267974   4.195   4.918   2.160
11480TIP3    H167975   4.116   4.952   2.206
11480TIP3    H267976   4.231   4.850   2.218
11481TIP3   OH267977   4.038   4.454   1.925
11481TIP3    H167978   4.107   4.428   1.990
11481TIP3    H267979   3.990   4.371   1.911
11482TIP3   OH267980   4.794   5.436   1.847
11482TIP3    H167981   4.784   5.371   1.919
11482TIP3    H267982   4.888   5.424   1.826
11483TIP3   OH267983   5.273   5.339   1.857
11483TIP3    H167984   5.274   5.257   1.911
11483TIP3    H267985   5.353   5.333   1.803
11484TIP3   OH267986   4.357   4.971   1.864
11484TIP3    H167987   4.321   4.939   1.949
11484TIP3    H267988   4.427   4.907   1.842
11485TIP3   OH267989   4.935   5.095   1.871
11485TIP3    H167990   4.840   5.098   1.892
11485TIP3    H267991   4.944   5.003   1.839
11486TIP3   OH267992   4.620   4.572   1.916
11486TIP3    H167993   4.568   4.567   1.834
11486TIP3    H267994   4.704   4.603   1.878
11487TIP3   OH267995   5.546   4.789   1.882
11487TIP3    H167996   5.526   4.759   1.792
11487TIP3    H267997   5.544   4.887   1.871
11488TIP3   OH267998   4.577   5.653   2.051
11488TIP3    H167999   4.645   5.619   2.111
11488TIP3    H268000   4.614   5.625   1.966
11489TIP3   OH268001   3.938   5.065   2.005
11489TIP3    H168002   4.029   5.068   2.038
11489TIP3    H268003   3.940   4.999   1.933
11490TIP3   OH268004   5.573   4.428   1.929
11490TIP3    H168005   5.547   4.493   1.863
11490TIP3    H268006   5.510   4.354   1.912
11491TIP3   OH268007   5.420   4.192   1.889
11491TIP3    H168008   5.479   4.131   1.841
11491TIP3    H268009   5.334   4.155   1.865
11492TIP3   OH268010   4.107   4.041   2.022
11492TIP3    H168011   4.173   3.991   1.971
11492TIP3    H268012   4.142   4.041   2.113
11493TIP3   OH268013   4.132   5.552   1.909
11493TIP3    H168014   4.088   5.499   1.978
11493TIP3    H268015   4.211   5.498   1.889
11494TIP3   OH268016   6.817   4.602   1.942
11494TIP3    H168017   6.748   4.576   2.004
11494TIP3    H268018   6.868   4.520   1.925
11495TIP3   OH268019   7.391   3.854   2.169
11495TIP3    H168020   7.331   3.830   2.241
11495TIP3    H268021   7.392   3.950   2.177
11496TIP3   OH268022   7.490   5.263   1.955
11496TIP3    H168023   7.515   5.350   1.989
11496TIP3    H268024   7.566   5.210   1.986
11497TIP3   OH268025   6.696   4.135   1.963
11497TIP3    H168026   6.645   4.203   2.008
11497TIP3    H268027   6.627   4.073   1.933
11498TIP3   OH268028   6.377   4.212   1.953
11498TIP3    H168029   6.408   4.297   1.994
11498TIP3    H268030   6.309   4.250   1.892
11499TIP3   OH268031   7.551   4.362   2.190
11499TIP3    H168032   7.492   4.396   2.120
11499TIP3    H268033   7.555   4.433   2.256
11500TIP3   OH268034   7.157   5.101   2.039
11500TIP3    H168035   7.168   5.164   2.115
11500TIP3    H268036   7.063   5.110   2.019
11501TIP3   OH268037   7.569   5.514   2.073
11501TIP3    H168038   7.621   5.597   2.079
11501TIP3    H268039   7.482   5.543   2.108
11502TIP3   OH268040   6.528   5.203   1.869
11502TIP3    H168041   6.510   5.176   1.777
11502TIP3    H268042   6.470   5.142   1.917
11503TIP3   OH268043   6.400   5.124   2.135
11503TIP3    H168044   6.367   5.129   2.226
11503TIP3    H268045   6.410   5.218   2.118
11504TIP3   OH268046   6.101   4.915   2.188
11504TIP3    H168047   6.014   4.899   2.151
11504TIP3    H268048   6.157   4.909   2.110
11505TIP3   OH268049   6.714   5.409   1.870
11505TIP3    H168050   6.664   5.329   1.897
11505TIP3    H268051   6.793   5.368   1.831
11506TIP3   OH268052   7.164   5.335   1.869
11506TIP3    H168053   7.211   5.299   1.946
11506TIP3    H268054   7.238   5.346   1.806
11507TIP3   OH268055   6.261   4.949   1.867
11507TIP3    H168056   6.286   4.907   1.950
11507TIP3    H268057   6.338   4.923   1.812
11508TIP3   OH268058   6.787   5.087   1.887
11508TIP3    H168059   6.690   5.089   1.877
11508TIP3    H268060   6.809   4.995   1.859
11509TIP3   OH268061   7.443   4.801   1.880
11509TIP3    H168062   7.417   4.756   1.798
11509TIP3    H268063   7.423   4.895   1.858
11510TIP3   OH268064   7.389   4.432   1.959
11510TIP3    H168065   7.425   4.467   1.876
11510TIP3    H268066   7.361   4.342   1.933
11511TIP3   OH268067   7.300   4.187   1.887
11511TIP3    H168068   7.368   4.141   1.833
11511TIP3    H268069   7.218   4.145   1.853
11512TIP3   OH268070   6.011   5.505   1.893
11512TIP3    H168071   6.003   5.527   1.987
11512TIP3    H268072   6.100   5.466   1.886
11513TIP3   OH268073   8.640   4.600   1.952
11513TIP3    H168074   8.675   4.641   2.032
11513TIP3    H268075   8.698   4.521   1.944
11514TIP3   OH268076   9.213   3.835   2.171
11514TIP3    H168077   9.132   3.781   2.162
11514TIP3    H268078   9.280   3.777   2.134
11515TIP3   OH268079   9.375   5.282   1.956
11515TIP3    H168080   9.343   5.353   2.014
11515TIP3    H268081   9.427   5.234   2.023
11516TIP3   OH268082   9.027   4.778   1.935
11516TIP3    H168083   9.033   4.708   1.868
11516TIP3    H268084   9.114   4.771   1.978
11517TIP3   OH268085   8.609   4.108   1.940
11517TIP3    H168086   8.602   4.113   2.037
11517TIP3    H268087   8.524   4.064   1.925
11518TIP3   OH268088   8.265   4.175   1.937
11518TIP3    H168089   8.209   4.162   2.015
11518TIP3    H268090   8.231   4.258   1.900
11519TIP3   OH268091   7.795   4.690   2.039
11519TIP3    H168092   7.833   4.705   2.126
11519TIP3    H268093   7.721   4.752   2.039
11520TIP3   OH268094   8.985   5.079   2.050
11520TIP3    H168095   8.978   4.985   2.074
11520TIP3    H268096   8.891   5.098   2.028
11521TIP3   OH268097   8.422   5.228   1.857
11521TIP3    H168098   8.383   5.180   1.783
11521TIP3    H268099   8.399   5.169   1.931
11522TIP3   OH268100   8.578   5.282   2.147
11522TIP3    H168101   8.543   5.214   2.205
11522TIP3    H268102   8.516   5.355   2.170
11523TIP3   OH268103   8.000   5.138   2.013
11523TIP3    H168104   8.063   5.144   2.089
11523TIP3    H268105   8.046   5.070   1.959
11524TIP3   OH268106   7.811   4.411   1.975
11524TIP3    H168107   7.852   4.497   1.993
11524TIP3    H268108   7.717   4.436   1.979
11525TIP3   OH268109   8.609   5.433   1.861
11525TIP3    H168110   8.547   5.362   1.887
11525TIP3    H268111   8.686   5.379   1.838
11526TIP3   OH268112   9.059   5.331   1.873
11526TIP3    H168113   9.082   5.279   1.951
11526TIP3    H268114   9.138   5.321   1.814
11527TIP3   OH268115   8.157   4.955   1.876
11527TIP3    H168116   8.189   4.913   1.958
11527TIP3    H268117   8.234   4.936   1.818
11528TIP3   OH268118   8.735   5.057   1.928
11528TIP3    H168119   8.648   5.070   1.969
11528TIP3    H268120   8.716   4.977   1.874
11529TIP3   OH268121   8.374   4.578   1.921
11529TIP3    H168122   8.351   4.580   1.827
11529TIP3    H268123   8.470   4.597   1.920
11530TIP3   OH268124   9.314   4.780   1.888
11530TIP3    H168125   9.271   4.758   1.803
11530TIP3    H268126   9.295   4.876   1.895
11531TIP3   OH268127   8.351   5.606   1.974
11531TIP3    H168128   8.373   5.573   2.063
11531TIP3    H268129   8.365   5.701   1.980
11532TIP3   OH268130   7.704   5.094   1.992
11532TIP3    H168131   7.800   5.109   1.996
11532TIP3    H268132   7.696   5.034   1.914
11533TIP3   OH268133   9.347   4.381   1.943
11533TIP3    H168134   9.329   4.472   1.919
11533TIP3    H268135   9.275   4.333   1.899
11534TIP3   OH268136   9.195   4.157   1.831
11534TIP3    H168137   9.225   4.118   1.913
11534TIP3    H268138   9.104   4.122   1.822
11535TIP3   OH268139   7.886   5.519   1.895
11535TIP3    H168140   7.857   5.528   1.987
11535TIP3    H268141   7.975   5.477   1.900
11536TIP3   OH268142   1.090   6.475   1.981
11536TIP3    H168143   1.151   6.540   2.019
11536TIP3    H268144   1.152   6.412   1.938
11537TIP3   OH268145   1.404   7.405   2.073
11537TIP3    H168146   1.341   7.347   2.028
11537TIP3    H268147   1.348   7.457   2.134
11538TIP3   OH268148   0.707   6.091   1.941
11538TIP3    H168149   0.637   6.026   1.959
11538TIP3    H268150   0.661   6.148   1.875
11539TIP3   OH268151   0.220   6.130   2.194
11539TIP3    H168152   0.252   6.183   2.119
11539TIP3    H268153   0.127   6.118   2.175
11540TIP3   OH268154   1.354   6.088   2.074
11540TIP3    H168155   1.261   6.103   2.091
11540TIP3    H268156   1.397   6.115   2.157
11541TIP3   OH268157   1.912   6.301   2.205
11541TIP3    H168158   1.840   6.263   2.152
11541TIP3    H268159   1.906   6.395   2.177
11542TIP3   OH268160   0.255   6.622   1.995
11542TIP3    H168161   0.287   6.648   2.083
11542TIP3    H268162   0.159   6.616   2.007
11543TIP3   OH268163   0.923   7.032   1.880
11543TIP3    H168164   0.872   6.969   1.825
11543TIP3    H268165   0.864   7.043   1.959
11544TIP3   OH268166   0.786   7.039   2.109
11544TIP3    H168167   0.764   6.995   2.192
11544TIP3    H268168   0.698   7.060   2.074
11545TIP3   OH268169   0.596   5.991   2.262
11545TIP3    H168170   0.512   6.029   2.231
11545TIP3    H268171   0.652   5.998   2.184
11546TIP3   OH268172   0.303   6.296   1.980
11546TIP3    H168173   0.281   6.389   1.994
11546TIP3    H268174   0.226   6.267   1.927
11547TIP3   OH268175   1.067   7.271   1.870
11547TIP3    H168176   1.006   7.195   1.881
11547TIP3    H268177   1.140   7.230   1.819
11548TIP3   OH268178   1.508   7.199   1.863
11548TIP3    H168179   1.562   7.219   1.941
11548TIP3    H268180   1.565   7.235   1.790
11549TIP3   OH268181   0.598   6.844   1.873
11549TIP3    H168182   0.603   6.785   1.948
11549TIP3    H268183   0.677   6.822   1.820
11550TIP3   OH268184   1.176   6.942   1.896
11550TIP3    H168185   1.083   6.975   1.894
11550TIP3    H268186   1.163   6.851   1.859
11551TIP3   OH268187   1.793   6.671   1.887
11551TIP3    H168188   1.756   6.649   1.800
11551TIP3    H268189   1.790   6.770   1.885
11552TIP3   OH268190   0.220   6.987   1.975
11552TIP3    H168191   0.279   6.928   2.024
11552TIP3    H268192   0.163   6.930   1.918
11553TIP3   OH268193   1.932   6.553   2.088
11553TIP3    H168194   1.881   6.587   2.010
11553TIP3    H268195   1.902   6.612   2.159
11554TIP3   OH268196   1.755   6.283   1.920
11554TIP3    H168197   1.741   6.359   1.861
11554TIP3    H268198   1.697   6.216   1.879
11555TIP3   OH268199   1.640   6.034   1.902
11555TIP3    H168200   1.700   6.033   1.979
11555TIP3    H268201   1.556   6.013   1.946
11556TIP3   OH268202   1.879   5.928   2.035
11556TIP3    H168203   1.863   5.832   2.037
11556TIP3    H268204   1.872   5.943   1.940
11557TIP3   OH268205   0.445   5.941   2.017
11557TIP3    H168206   0.437   5.854   1.971
11557TIP3    H268207   0.432   5.913   2.109
11558TIP3   OH268208   0.327   7.379   1.926
11558TIP3    H168209   0.312   7.469   1.959
11558TIP3    H268210   0.420   7.362   1.950
11559TIP3   OH268211   3.565   5.714   2.166
11559TIP3    H168212   3.549   5.700   2.260
11559TIP3    H268213   3.662   5.710   2.163
11560TIP3   OH268214   3.780   7.116   1.962
11560TIP3    H168215   3.772   7.158   2.049
11560TIP3    H268216   3.772   7.023   1.989
11561TIP3   OH268217   3.271   7.425   2.064
11561TIP3    H168218   3.357   7.380   2.063
11561TIP3    H268219   3.269   7.463   2.153
11562TIP3   OH268220   2.598   6.071   1.952
11562TIP3    H168221   2.542   6.012   2.005
11562TIP3    H268222   2.537   6.120   1.893
11563TIP3   OH268223   3.343   6.975   2.008
11563TIP3    H168224   3.376   6.911   2.074
11563TIP3    H268225   3.271   6.923   1.966
11564TIP3   OH268226   2.745   7.108   1.855
11564TIP3    H168227   2.727   7.062   1.772
11564TIP3    H268228   2.704   7.048   1.919
11565TIP3   OH268229   2.591   7.024   2.142
11565TIP3    H168230   2.567   6.995   2.234
11565TIP3    H268231   2.652   7.097   2.160
11566TIP3   OH268232   2.334   7.031   2.028
11566TIP3    H168233   2.404   7.050   2.093
11566TIP3    H268234   2.388   6.984   1.962
11567TIP3   OH268235   3.416   7.236   1.933
11567TIP3    H168236   3.397   7.147   1.968
11567TIP3    H268237   3.482   7.217   1.863
11568TIP3   OH268238   2.499   6.824   1.843
11568TIP3    H168239   2.541   6.824   1.930
11568TIP3    H268240   2.576   6.807   1.784
11569TIP3   OH268241   3.094   6.899   1.850
11569TIP3    H168242   3.015   6.947   1.873
11569TIP3    H268243   3.058   6.808   1.838
11570TIP3   OH268244   2.698   6.456   1.931
11570TIP3    H168245   2.646   6.452   1.850
11570TIP3    H268246   2.788   6.453   1.899
11571TIP3   OH268247   3.671   6.697   1.908
11571TIP3    H168248   3.637   6.637   1.841
11571TIP3    H268249   3.636   6.784   1.879
11572TIP3   OH268250   2.063   6.978   1.997
11572TIP3    H168251   2.160   6.980   2.011
11572TIP3    H268252   2.055   6.916   1.923
11573TIP3   OH268253   4.891   6.492   1.963
11573TIP3    H168254   4.933   6.500   2.050
11573TIP3    H268255   4.953   6.426   1.924
11574TIP3   OH268256   5.147   6.534   2.157
11574TIP3    H168257   5.199   6.472   2.211
11574TIP3    H268258   5.213   6.575   2.096
11575TIP3   OH268259   5.491   5.708   2.158
11575TIP3    H168260   5.460   5.726   2.247
11575TIP3    H268261   5.479   5.792   2.114
11576TIP3   OH268262   5.602   7.130   2.008
11576TIP3    H168263   5.634   7.221   2.020
11576TIP3    H268264   5.688   7.082   2.002
11577TIP3   OH268265   5.130   7.434   2.003
11577TIP3    H168266   5.161   7.349   1.967
11577TIP3    H268267   5.051   7.403   2.050
11578TIP3   OH268268   5.290   6.678   1.971
11578TIP3    H168269   5.258   6.682   1.879
11578TIP3    H268270   5.387   6.684   1.956
11579TIP3   OH268271   4.807   6.013   2.019
11579TIP3    H168272   4.810   5.990   2.112
11579TIP3    H268273   4.775   5.932   1.976
11580TIP3   OH268274   4.319   6.362   2.012
11580TIP3    H168275   4.334   6.328   1.920
11580TIP3    H268276   4.403   6.409   2.023
11581TIP3   OH268277   5.053   6.112   2.092
11581TIP3    H168278   4.956   6.107   2.082
11581TIP3    H268279   5.067   6.101   2.188
11582TIP3   OH268280   4.019   6.590   2.035
11582TIP3    H168281   4.064   6.664   2.076
11582TIP3    H268282   3.926   6.618   2.050
11583TIP3   OH268283   5.275   7.014   2.024
11583TIP3    H168284   5.280   7.019   2.121
11583TIP3    H268285   5.189   6.970   2.011
11584TIP3   OH268286   5.640   7.404   2.042
11584TIP3    H168287   5.683   7.472   1.987
11584TIP3    H268288   5.548   7.432   2.036
11585TIP3   OH268289   4.671   7.068   1.876
11585TIP3    H168290   4.627   7.037   1.796
11585TIP3    H268291   4.629   7.012   1.943
11586TIP3   OH268292   4.575   7.015   2.145
11586TIP3    H168293   4.666   6.997   2.172
11586TIP3    H268294   4.571   7.110   2.164
11587TIP3   OH268295   4.025   6.296   1.968
11587TIP3    H168296   4.100   6.348   2.005
11587TIP3    H268297   3.973   6.369   1.929
11588TIP3   OH268298   5.283   7.233   1.869
11588TIP3    H168299   5.295   7.148   1.920
11588TIP3    H268300   5.356   7.228   1.805
11589TIP3   OH268301   4.381   6.806   1.891
11589TIP3    H168302   4.351   6.715   1.886
11589TIP3    H268303   4.463   6.801   1.838
11590TIP3   OH268304   4.954   6.970   1.824
11590TIP3    H168305   4.882   6.980   1.888
11590TIP3    H268306   4.946   6.876   1.796
11591TIP3   OH268307   4.599   6.477   1.919
11591TIP3    H168308   4.597   6.497   1.823
11591TIP3    H268309   4.692   6.452   1.933
11592TIP3   OH268310   5.548   6.694   1.884
11592TIP3    H168311   5.523   6.666   1.793
11592TIP3    H268312   5.549   6.793   1.875
11593TIP3   OH268313   5.404   5.984   1.840
11593TIP3    H168314   5.355   5.969   1.922
11593TIP3    H268315   5.335   6.018   1.781
11594TIP3   OH268316   3.946   5.739   2.127
11594TIP3    H168317   4.040   5.745   2.110
11594TIP3    H268318   3.930   5.815   2.186
11595TIP3   OH268319   4.145   7.351   1.888
11595TIP3    H168320   4.113   7.270   1.931
11595TIP3    H268321   4.234   7.323   1.859
11596TIP3   OH268322   6.771   6.477   1.935
11596TIP3    H168323   6.746   6.470   2.028
11596TIP3    H268324   6.837   6.405   1.926
11597TIP3   OH268325   7.336   5.676   2.133
11597TIP3    H168326   7.344   5.664   2.229
11597TIP3    H268327   7.385   5.758   2.118
11598TIP3   OH268328   7.514   7.180   1.943
11598TIP3    H168329   7.453   7.253   1.962
11598TIP3    H268330   7.588   7.197   2.002
11599TIP3   OH268331   7.016   7.411   2.030
11599TIP3    H168332   7.087   7.358   1.990
11599TIP3    H268333   7.058   7.447   2.109
11600TIP3   OH268334   7.166   6.693   1.993
11600TIP3    H168335   7.145   6.649   1.909
11600TIP3    H268336   7.264   6.691   1.987
11601TIP3   OH268337   6.718   5.975   2.013
11601TIP3    H168338   6.662   5.994   2.088
11601TIP3    H268339   6.655   5.926   1.956
11602TIP3   OH268340   6.952   6.136   2.096
11602TIP3    H168341   6.868   6.095   2.068
11602TIP3    H268342   6.994   6.147   2.009
11603TIP3   OH268343   5.919   6.591   2.047
11603TIP3    H168344   5.966   6.642   2.116
11603TIP3    H268345   5.837   6.641   2.037
11604TIP3   OH268346   7.161   6.999   2.016
11604TIP3    H168347   7.161   6.982   2.111
11604TIP3    H268348   7.106   6.924   1.986
11605TIP3   OH268349   6.535   7.100   1.833
11605TIP3    H168350   6.504   7.056   1.752
11605TIP3    H268351   6.471   7.064   1.897
11606TIP3   OH268352   6.473   7.270   2.174
11606TIP3    H168353   6.465   7.355   2.125
11606TIP3    H268354   6.544   7.294   2.240
11607TIP3   OH268355   5.936   6.290   1.958
11607TIP3    H168356   5.969   6.375   1.992
11607TIP3    H268357   5.919   6.319   1.866
11608TIP3   OH268358   6.726   7.297   1.869
11608TIP3    H168359   6.667   7.219   1.864
11608TIP3    H268360   6.812   7.260   1.839
11609TIP3   OH268361   7.162   7.219   1.868
11609TIP3    H168362   7.168   7.140   1.928
11609TIP3    H268363   7.243   7.212   1.814
11610TIP3   OH268364   6.239   6.821   1.849
11610TIP3    H168365   6.230   6.792   1.941
11610TIP3    H268366   6.321   6.780   1.817
11611TIP3   OH268367   6.474   6.438   1.898
11611TIP3    H168368   6.460   6.474   1.809
11611TIP3    H268369   6.563   6.469   1.917
11612TIP3   OH268370   7.438   6.685   1.880
11612TIP3    H168371   7.407   6.659   1.790
11612TIP3    H268372   7.433   6.783   1.876
11613TIP3   OH268373   6.484   7.513   2.074
11613TIP3    H168374   6.580   7.497   2.078
11613TIP3    H268375   6.486   7.596   2.023
11614TIP3   OH268376   5.833   7.000   1.982
11614TIP3    H168377   5.907   6.971   2.038
11614TIP3    H268378   5.831   6.929   1.914
11615TIP3   OH268379   7.321   5.990   1.798
11615TIP3    H168380   7.358   6.006   1.887
11615TIP3    H268381   7.225   5.998   1.812
11616TIP3   OH268382   7.498   5.902   2.038
11616TIP3    H168383   7.535   5.845   1.968
11616TIP3    H268384   7.568   5.900   2.105
11617TIP3   OH268385   5.866   5.758   2.146
11617TIP3    H168386   5.950   5.777   2.103
11617TIP3    H268387   5.894   5.736   2.239
11618TIP3   OH268388   6.746   7.479   2.055
11618TIP3    H168389   6.842   7.466   2.061
11618TIP3    H268390   6.725   7.402   1.997
11619TIP3   OH268391   6.046   7.385   1.913
11619TIP3    H168392   6.000   7.331   1.979
11619TIP3    H268393   6.125   7.329   1.899
11620TIP3   OH268394   0.028   7.182   1.932
11620TIP3    H168395   0.037   7.200   2.026
11620TIP3    H268396   0.113   7.136   1.915
11621TIP3   OH268397   8.949   7.435   2.068
11621TIP3    H168398   8.987   7.356   2.027
11621TIP3    H268399   9.024   7.460   2.127
11622TIP3   OH268400   9.009   6.634   1.992
11622TIP3    H168401   8.984   6.669   1.904
11622TIP3    H268402   9.101   6.664   1.999
11623TIP3   OH268403   8.601   6.014   1.937
11623TIP3    H168404   8.600   6.019   2.033
11623TIP3    H268405   8.525   5.954   1.923
11624TIP3   OH268406   8.176   6.058   1.951
11624TIP3    H168407   8.108   5.990   1.940
11624TIP3    H268408   8.142   6.134   1.897
11625TIP3   OH268409   7.817   6.559   2.029
11625TIP3    H168410   7.863   6.594   2.107
11625TIP3    H268411   7.725   6.553   2.057
11626TIP3   OH268412   9.004   6.952   2.068
11626TIP3    H168413   9.032   6.920   2.157
11626TIP3    H268414   8.944   7.024   2.093
11627TIP3   OH268415   8.433   7.058   1.894
11627TIP3    H168416   8.395   7.051   1.805
11627TIP3    H268417   8.359   7.026   1.949
11628TIP3   OH268418   8.274   7.004   2.140
11628TIP3    H168419   8.269   6.953   2.223
11628TIP3    H268420   8.284   7.096   2.170
11629TIP3   OH268421   7.801   6.299   1.961
11629TIP3    H168422   7.813   6.386   2.004
11629TIP3    H268423   7.717   6.269   2.000
11630TIP3   OH268424   8.602   7.312   1.874
11630TIP3    H168425   8.552   7.229   1.895
11630TIP3    H268426   8.680   7.276   1.827
11631TIP3   OH268427   9.056   7.215   1.887
11631TIP3    H168428   9.085   7.157   1.958
11631TIP3    H268429   9.138   7.225   1.832
11632TIP3   OH268430   8.123   6.812   1.873
11632TIP3    H168431   8.124   6.778   1.965
11632TIP3    H268432   8.213   6.794   1.839
11633TIP3   OH268433   8.696   6.980   1.863
11633TIP3    H168434   8.601   6.988   1.883
11633TIP3    H268435   8.702   6.885   1.841
11634TIP3   OH268436   8.353   6.463   1.925
11634TIP3    H168437   8.280   6.462   1.860
11634TIP3    H268438   8.415   6.399   1.888
11635TIP3   OH268439   9.292   6.664   1.919
11635TIP3    H168440   9.264   6.634   1.831
11635TIP3    H268441   9.288   6.762   1.912
11636TIP3   OH268442   9.333   6.315   1.952
11636TIP3    H168443   9.286   6.378   1.896
11636TIP3    H268444   9.270   6.241   1.951
11637TIP3   OH268445   9.198   6.073   1.899
11637TIP3    H168446   9.255   5.996   1.906
11637TIP3    H268447   9.126   6.042   1.841
11638TIP3   OH268448   8.685   7.442   2.119
11638TIP3    H168449   8.776   7.457   2.087
11638TIP3    H268450   8.631   7.449   2.038
11639TIP3   OH268451   1.380   9.228   2.032
11639TIP3    H168452   1.313   9.204   1.967
11639TIP3    H268453   1.327   9.284   2.092
11640TIP3   OH268454   1.497   8.562   1.991
11640TIP3    H168455   1.482   8.537   1.899
11640TIP3    H268456   1.594   8.576   1.991
11641TIP3   OH268457   1.034   7.858   1.954
11641TIP3    H168458   1.026   7.897   2.042
11641TIP3    H268459   1.030   7.763   1.975
11642TIP3   OH268460   0.721   7.991   1.902
11642TIP3    H168461   0.704   7.955   1.991
11642TIP3    H268462   0.639   7.969   1.857
11643TIP3   OH268463   0.269   8.465   2.072
11643TIP3    H168464   0.319   8.540   2.107
11643TIP3    H268465   0.184   8.505   2.048
11644TIP3   OH268466   1.868   9.228   2.070
11644TIP3    H168467   1.945   9.283   2.050
11644TIP3    H268468   1.817   9.294   2.121
11645TIP3   OH268469   0.883   8.950   1.842
11645TIP3    H168470   0.862   8.889   1.770
11645TIP3    H268471   0.805   8.935   1.897
11646TIP3   OH268472   0.625   7.864   2.117
11646TIP3    H168473   0.627   7.924   2.196
11646TIP3    H268474   0.694   7.799   2.139
11647TIP3   OH268475   1.063   9.158   1.855
11647TIP3    H168476   1.010   9.076   1.866
11647TIP3    H268477   1.142   9.122   1.810
11648TIP3   OH268478   0.623   8.696   1.863
11648TIP3    H168479   0.637   8.649   1.947
11648TIP3    H268480   0.696   8.664   1.809
11649TIP3   OH268481   1.167   8.838   1.872
11649TIP3    H168482   1.075   8.828   1.845
11649TIP3    H268483   1.195   8.744   1.872
11650TIP3   OH268484   0.697   8.548   2.113
11650TIP3    H168485   0.667   8.487   2.181
11650TIP3    H268486   0.756   8.492   2.059
11651TIP3   OH268487   0.823   8.360   1.929
11651TIP3    H168488   0.752   8.339   1.866
11651TIP3    H268489   0.897   8.311   1.890
11652TIP3   OH268490   1.736   8.639   1.887
11652TIP3    H168491   1.748   8.588   1.804
11652TIP3    H268492   1.807   8.704   1.881
11653TIP3   OH268493   0.185   8.847   2.023
11653TIP3    H168494   0.272   8.837   2.066
11653TIP3    H268495   0.198   8.805   1.936
11654TIP3   OH268496   1.833   8.165   1.907
11654TIP3    H168497   1.799   8.229   1.843
11654TIP3    H268498   1.752   8.142   1.957
11655TIP3   OH268499   1.626   7.916   1.850
11655TIP3    H168500   1.615   7.923   1.946
11655TIP3    H268501   1.532   7.909   1.823
11656TIP3   OH268502   1.864   7.789   2.046
11656TIP3    H168503   1.876   7.722   1.975
11656TIP3    H268504   1.844   7.868   1.995
11657TIP3   OH268505   0.404   7.842   1.987
11657TIP3    H168506   0.424   7.754   1.950
11657TIP3    H268507   0.490   7.856   2.033
11658TIP3   OH268508   1.142   9.377   2.074
11658TIP3    H168509   1.091   9.454   2.108
11658TIP3    H268510   1.072   9.315   2.049
11659TIP3   OH268511   0.362   9.230   1.944
11659TIP3    H168512   0.387   9.324   1.943
11659TIP3    H268513   0.444   9.186   1.973
11660TIP3   OH268514   3.759   9.000   1.974
11660TIP3    H168515   3.741   9.095   1.994
11660TIP3    H268516   3.836   8.988   2.030
11661TIP3   OH268517   3.390   8.565   1.974
11661TIP3    H168518   3.344   8.534   1.894
11661TIP3    H268519   3.483   8.543   1.953
11662TIP3   OH268520   2.923   7.906   1.987
11662TIP3    H168521   2.879   7.914   2.072
11662TIP3    H268522   2.871   7.835   1.945
11663TIP3   OH268523   2.600   7.961   1.915
11663TIP3    H168524   2.541   7.937   1.988
11663TIP3    H268525   2.539   8.017   1.861
11664TIP3   OH268526   3.177   7.882   2.073
11664TIP3    H168527   3.085   7.866   2.042
11664TIP3    H268528   3.185   7.977   2.058
11665TIP3   OH268529   3.754   9.249   2.053
11665TIP3    H168530   3.808   9.326   2.027
11665TIP3    H268531   3.694   9.294   2.116
11666TIP3   OH268532   2.579   7.813   2.149
11666TIP3    H168533   2.625   7.895   2.174
11666TIP3    H268534   2.657   7.752   2.131
11667TIP3   OH268535   2.126   8.165   1.954
11667TIP3    H168536   2.151   8.205   2.040
11667TIP3    H268537   2.030   8.184   1.952
11668TIP3   OH268538   2.928   9.155   1.833
11668TIP3    H168539   2.897   9.069   1.866
11668TIP3    H268540   3.021   9.134   1.810
11669TIP3   OH268541   3.028   8.812   1.884
11669TIP3    H168542   2.937   8.785   1.863
11669TIP3    H268543   3.063   8.720   1.888
11670TIP3   OH268544   2.589   8.527   2.154
11670TIP3    H168545   2.508   8.472   2.138
11670TIP3    H268546   2.656   8.464   2.122
11671TIP3   OH268547   2.711   8.364   1.942
11671TIP3    H168548   2.721   8.340   1.849
11671TIP3    H268549   2.777   8.307   1.984
11672TIP3   OH268550   3.666   8.575   1.872
11672TIP3    H168551   3.641   8.547   1.783
11672TIP3    H268552   3.671   8.673   1.860
11673TIP3   OH268553   2.104   8.843   1.986
11673TIP3    H168554   2.132   8.764   2.035
11673TIP3    H268555   2.062   8.803   1.907
11674TIP3   OH268556   3.685   8.199   1.912
11674TIP3    H168557   3.682   8.253   1.831
11674TIP3    H268558   3.606   8.143   1.901
11675TIP3   OH268559   3.510   7.972   1.892
11675TIP3    H168560   3.594   7.927   1.870
11675TIP3    H268561   3.446   7.899   1.880
11676TIP3   OH268562   2.330   7.815   2.024
11676TIP3    H168563   2.323   7.746   1.956
11676TIP3    H268564   2.420   7.803   2.061
11677TIP3   OH268565   2.976   9.338   2.061
11677TIP3    H168566   2.916   9.401   2.105
11677TIP3    H268567   2.936   9.332   1.974
11678TIP3   OH268568   2.205   9.246   1.888
11678TIP3    H168569   2.156   9.301   1.954
11678TIP3    H268570   2.287   9.229   1.938
11679TIP3   OH268571   5.601   9.019   2.023
11679TIP3    H168572   5.651   9.101   2.020
11679TIP3    H268573   5.676   8.957   2.030
11680TIP3   OH268574   5.243   8.544   1.962
11680TIP3    H168575   5.238   8.513   1.870
11680TIP3    H268576   5.296   8.624   1.945
11681TIP3   OH268577   4.780   7.917   1.982
11681TIP3    H168578   4.824   7.916   2.069
11681TIP3    H268579   4.729   7.834   1.985
11682TIP3   OH268580   4.440   7.955   1.931
11682TIP3    H168581   4.489   7.998   2.003
11682TIP3    H268582   4.401   8.030   1.880
11683TIP3   OH268583   3.872   7.973   2.131
11683TIP3    H168584   3.935   8.025   2.079
11683TIP3    H268585   3.822   8.044   2.175
11684TIP3   OH268586   4.330   8.246   2.022
11684TIP3    H168587   4.342   8.237   1.926
11684TIP3    H268588   4.421   8.242   2.055
11685TIP3   OH268589   5.240   8.863   2.023
11685TIP3    H168590   5.271   8.892   2.109
11685TIP3    H268591   5.149   8.893   2.021
11686TIP3   OH268592   4.649   8.966   1.862
11686TIP3    H168593   4.582   8.909   1.821
11686TIP3    H268594   4.615   8.977   1.953
11687TIP3   OH268595   4.741   9.085   2.138
11687TIP3    H168596   4.663   9.118   2.189
11687TIP3    H268597   4.812   9.134   2.183
11688TIP3   OH268598   4.169   8.908   2.050
11688TIP3    H168599   4.222   8.969   2.104
11688TIP3    H268600   4.240   8.856   2.009
11689TIP3   OH268601   4.024   8.168   1.986
11689TIP3    H168602   4.097   8.228   2.006
11689TIP3    H268603   3.945   8.222   1.976
11690TIP3   OH268604   4.816   9.184   1.873
11690TIP3    H168605   4.770   9.110   1.920
11690TIP3    H268606   4.908   9.161   1.891
11691TIP3   OH268607   4.404   8.685   1.904
11691TIP3    H168608   4.428   8.625   1.978
11691TIP3    H268609   4.484   8.681   1.848
11692TIP3   OH268610   4.893   8.869   1.836
11692TIP3    H168611   4.803   8.907   1.842
11692TIP3    H268612   4.876   8.787   1.786
11693TIP3   OH268613   4.492   8.521   2.141
11693TIP3    H168614   4.489   8.507   2.238
11693TIP3    H268615   4.524   8.435   2.112
11694TIP3   OH268616   4.611   8.350   1.939
11694TIP3    H168617   4.578   8.399   1.862
11694TIP3    H268618   4.698   8.326   1.903
11695TIP3   OH268619   5.395   7.953   1.886
11695TIP3    H168620   5.444   7.875   1.912
11695TIP3    H268621   5.305   7.918   1.877
11696TIP3   OH268622   4.203   7.862   2.018
11696TIP3    H168623   4.201   7.784   1.961
11696TIP3    H268624   4.281   7.907   1.979
11697TIP3   OH268625   4.912   9.330   2.089
11697TIP3    H168626   4.854   9.387   2.141
11697TIP3    H268627   4.853   9.298   2.020
11698TIP3   OH268628   7.005   8.387   2.130
11698TIP3    H168629   7.012   8.392   2.226
11698TIP3    H268630   7.078   8.441   2.096
11699TIP3   OH268631   7.339   7.604   2.168
11699TIP3    H168632   7.364   7.550   2.246
11699TIP3    H268633   7.389   7.685   2.186
11700TIP3   OH268634   7.459   9.001   1.998
11700TIP3    H168635   7.498   9.091   1.996
11700TIP3    H268636   7.539   8.949   2.020
11701TIP3   OH268637   7.013   9.278   2.022
11701TIP3    H168638   7.107   9.281   2.043
11701TIP3    H268639   6.977   9.237   2.103
11702TIP3   OH268640   6.372   7.978   1.914
11702TIP3    H168641   6.352   7.948   2.004
11702TIP3    H268642   6.286   8.000   1.874
11703TIP3   OH268643   5.824   7.943   2.158
11703TIP3    H168644   5.851   8.009   2.090
11703TIP3    H268645   5.791   8.000   2.227
11704TIP3   OH268646   6.227   8.223   2.026
11704TIP3    H168647   6.254   8.203   1.934
11704TIP3    H268648   6.277   8.156   2.077
11705TIP3   OH268649   5.946   8.499   2.024
11705TIP3    H168650   5.973   8.471   2.112
11705TIP3    H268651   5.897   8.581   2.046
11706TIP3   OH268652   7.540   9.247   1.988
11706TIP3    H168653   7.596   9.233   2.069
11706TIP3    H268654   7.465   9.297   2.027
11707TIP3   OH268655   6.525   8.969   1.866
11707TIP3    H168656   6.514   8.884   1.820
11707TIP3    H268657   6.549   8.949   1.958
11708TIP3   OH268658   6.661   9.062   2.140
11708TIP3    H168659   6.582   9.104   2.179
11708TIP3    H268660   6.729   9.127   2.169
11709TIP3   OH268661   6.471   9.253   2.211
11709TIP3    H168662   6.473   9.313   2.135
11709TIP3    H268663   6.543   9.289   2.267
11710TIP3   OH268664   6.094   8.905   2.033
11710TIP3    H168665   6.133   8.920   2.120
11710TIP3    H268666   6.168   8.869   1.984
11711TIP3   OH268667   5.900   8.177   1.990
11711TIP3    H168668   5.983   8.218   2.020
11711TIP3    H268669   5.870   8.243   1.925
11712TIP3   OH268670   6.736   9.171   1.875
11712TIP3    H168671   6.678   9.093   1.884
11712TIP3    H268672   6.812   9.134   1.825
11713TIP3   OH268673   7.203   9.088   1.887
11713TIP3    H168674   7.277   9.056   1.942
11713TIP3    H268675   7.255   9.124   1.811
11714TIP3   OH268676   6.837   8.852   1.831
11714TIP3    H168677   6.775   8.838   1.904
11714TIP3    H268678   6.849   8.761   1.798
11715TIP3   OH268679   5.835   8.907   1.975
11715TIP3    H168680   5.922   8.893   2.019
11715TIP3    H268681   5.815   8.819   1.941
11716TIP3   OH268682   7.607   8.440   2.080
11716TIP3    H168683   7.547   8.468   2.010
11716TIP3    H268684   7.566   8.475   2.161
11717TIP3   OH268685   7.390   8.155   1.928
11717TIP3    H168686   7.441   8.232   1.899
11717TIP3    H268687   7.346   8.130   1.846
11718TIP3   OH268688   7.534   7.825   2.059
11718TIP3    H168689   7.541   7.750   1.997
11718TIP3    H268690   7.512   7.899   2.000
11719TIP3   OH268691   6.708   9.376   2.075
11719TIP3    H168692   6.788   9.345   2.120
11719TIP3    H268693   6.701   9.309   2.005
11720TIP3   OH268694   5.988   9.238   1.873
11720TIP3    H168695   6.019   9.293   1.947
11720TIP3    H268696   6.034   9.153   1.887
11721TIP3   OH268697   9.190   7.696   2.081
11721TIP3    H168698   9.157   7.617   2.128
11721TIP3    H268699   9.279   7.698   2.117
11722TIP3   OH268700   9.355   9.038   1.970
11722TIP3    H168701   9.407   9.115   1.994
11722TIP3    H268702   9.417   8.965   1.994
11723TIP3   OH268703   8.581   7.900   1.978
11723TIP3    H168704   8.624   7.893   2.065
11723TIP3    H268705   8.507   7.837   1.979
11724TIP3   OH268706   8.684   8.890   2.076
11724TIP3    H168707   8.710   8.968   2.127
11724TIP3    H268708   8.631   8.844   2.142
11725TIP3   OH268709   7.865   8.482   2.009
11725TIP3    H168710   7.866   8.479   2.106
11725TIP3    H268711   7.773   8.452   1.997
11726TIP3   OH268712   8.411   8.967   1.856
11726TIP3    H168713   8.416   8.886   1.803
11726TIP3    H268714   8.353   8.936   1.927
11727TIP3   OH268715   8.321   9.209   2.166
11727TIP3    H168716   8.404   9.160   2.156
11727TIP3    H268717   8.293   9.177   2.255
11728TIP3   OH268718   8.009   8.885   2.029
11728TIP3    H168719   8.061   8.963   2.047
11728TIP3    H268720   8.063   8.833   1.967
11729TIP3   OH268721   8.615   9.151   1.875
11729TIP3    H168722   8.561   9.070   1.885
11729TIP3    H268723   8.692   9.116   1.826
11730TIP3   OH268724   9.044   9.053   1.874
11730TIP3    H168725   9.091   9.083   1.953
11730TIP3    H268726   9.106   9.082   1.802
11731TIP3   OH268727   8.144   8.705   1.868
11731TIP3    H168728   8.099   8.620   1.882
11731TIP3    H268729   8.222   8.681   1.811
11732TIP3   OH268730   8.695   8.842   1.817
11732TIP3    H168731   8.685   8.857   1.914
11732TIP3    H268732   8.712   8.746   1.814
11733TIP3   OH268733   8.383   8.376   1.954
11733TIP3    H168734   8.366   8.401   1.862
11733TIP3    H268735   8.397   8.281   1.946
11734TIP3   OH268736   9.319   8.568   1.933
11734TIP3    H168737   9.277   8.525   1.857
11734TIP3    H268738   9.299   8.661   1.911
11735TIP3   OH268739   7.713   8.861   2.006
11735TIP3    H168740   7.810   8.857   2.009
11735TIP3    H268741   7.693   8.811   1.924
11736TIP3   OH268742   9.290   8.222   1.960
11736TIP3    H168743   9.302   8.254   1.869
11736TIP3    H268744   9.247   8.135   1.943
11737TIP3   OH268745   9.174   7.973   1.925
11737TIP3    H168746   9.222   7.897   1.962
11737TIP3    H268747   9.096   7.925   1.893
11738TIP3   OH268748   7.734   7.647   2.189
11738TIP3    H168749   7.766   7.610   2.106
11738TIP3    H268750   7.683   7.727   2.165
11739TIP3   OH268751   8.707   9.339   2.056
11739TIP3    H168752   8.760   9.292   2.125
11739TIP3    H268753   8.666   9.264   2.010
11740TIP3   OH268754   7.871   9.229   1.868
11740TIP3    H168755   7.810   9.252   1.940
11740TIP3    H268756   7.948   9.199   1.919
11741POPC     N68757   4.704   4.595  10.691
11741POPC   C1268758   4.760   4.636  10.826
11741POPC  H12A68759   4.739   4.739  10.850
11741POPC  H12B68760   4.868   4.624  10.826
11741POPC   C1368761   4.553   4.583  10.701
11741POPC  H13A68762   4.507   4.556  10.606
11741POPC  H13B68763   4.531   4.501  10.769
11741POPC  H13C68764   4.504   4.670  10.742
11741POPC   C1468765   4.738   4.693  10.585
11741POPC  H14A68766   4.690   4.661  10.492
11741POPC  H14B68767   4.699   4.791  10.609
11741POPC  H14C68768   4.845   4.701  10.570
11741POPC   C1568769   4.754   4.458  10.654
11741POPC  H15A68770   4.862   4.453  10.649
11741POPC  H15B68771   4.710   4.421  10.562
11741POPC  H15C68772   4.727   4.386  10.733
11741POPC   C1168773   4.713   4.549  10.941
11741POPC  H11A68774   4.602   4.534  10.941
11741POPC  H11B68775   4.737   4.600  11.035
11741POPC     P68776   4.734   4.304  11.015
11741POPC   O1368777   4.764   4.183  10.936
11741POPC   O1468778   4.596   4.331  11.058
11741POPC   O1268779   4.787   4.428  10.933
11741POPC   O1168780   4.828   4.307  11.142
11741POPC    C168781   4.964   4.270  11.121
11741POPC    HA68782   5.006   4.312  11.027
11741POPC    HB68783   4.969   4.159  11.110
11741POPC    C268784   5.058   4.315  11.238
11741POPC    HS68785   5.154   4.261  11.224
11741POPC   O2168786   5.006   4.286  11.369
11741POPC   C2168787   4.979   4.158  11.389
11741POPC   O2268788   5.009   4.067  11.315
11741POPC   C2268789   4.907   4.139  11.522
11741POPC   H2R68790   4.977   4.162  11.605
11741POPC   H2S68791   4.878   4.032  11.528
11741POPC    C368792   5.090   4.468  11.230
11741POPC    HX68793   5.115   4.492  11.124
11741POPC    HY68794   5.181   4.486  11.292
11741POPC   O3168795   4.983   4.548  11.283
11741POPC   C3168796   4.927   4.641  11.209
11741POPC   O3268797   4.969   4.683  11.102
11741POPC   C3268798   4.800   4.693  11.278
11741POPC   H2X68799   4.715   4.686  11.209
11741POPC   H2Y68800   4.814   4.800  11.302
11741POPC   C2368801   4.782   4.229  11.527
11741POPC   H3R68802   4.735   4.229  11.425
11741POPC   H3S68803   4.811   4.334  11.549
11741POPC   C2468804   4.675   4.180  11.623
11741POPC   H4R68805   4.684   4.070  11.639
11741POPC   H4S68806   4.577   4.199  11.573
11741POPC   C2568807   4.671   4.253  11.758
11741POPC   H5R68808   4.693   4.360  11.744
11741POPC   H5S68809   4.749   4.211  11.825
11741POPC   C2668810   4.531   4.234  11.816
11741POPC   H6R68811   4.522   4.127  11.841
11741POPC   H6S68812   4.458   4.255  11.735
11741POPC   C2768813   4.487   4.321  11.934
11741POPC   H7R68814   4.393   4.281  11.977
11741POPC   H7S68815   4.464   4.422  11.893
11741POPC   C2868816   4.590   4.346  12.044
11741POPC   H8R68817   4.541   4.418  12.112
11741POPC   H8S68818   4.674   4.401  11.998
11741POPC   C2968819   4.640   4.229  12.126
11741POPC   H9168820   4.564   4.181  12.189
11741POPC  C21068821   4.765   4.184  12.129
11741POPC  H10168822   4.791   4.104  12.200
11741POPC  C21168823   4.882   4.239  12.051
11741POPC  H11R68824   4.867   4.343  12.014
11741POPC  H11S68825   4.898   4.174  11.963
11741POPC  C21268826   5.012   4.236  12.130
11741POPC  H12R68827   5.098   4.233  12.059
11741POPC  H12S68828   5.014   4.145  12.193
11741POPC  C21368829   5.032   4.350  12.227
11741POPC  H13R68830   4.953   4.347  12.306
11741POPC  H13S68831   5.027   4.448  12.176
11741POPC  C21468832   5.167   4.334  12.294
11741POPC  H14R68833   5.248   4.319  12.219
11741POPC  H14S68834   5.166   4.244  12.359
11741POPC  C21568835   5.196   4.455  12.380
11741POPC  H15R68836   5.107   4.475  12.443
11741POPC  H15S68837   5.208   4.542  12.311
11741POPC  C21668838   5.320   4.440  12.469
11741POPC  H16R68839   5.291   4.413  12.572
11741POPC  H16S68840   5.355   4.545  12.475
11741POPC  C21768841   5.428   4.339  12.418
11741POPC  H17R68842   5.476   4.385  12.329
11741POPC  H17S68843   5.378   4.246  12.384
11741POPC  C21868844   5.537   4.289  12.515
11741POPC  H18R68845   5.573   4.367  12.585
11741POPC  H18S68846   5.623   4.251  12.456
11741POPC  H18T68847   5.502   4.203  12.576
11741POPC   C3368848   4.765   4.616  11.406
11741POPC   H3X68849   4.846   4.628  11.481
11741POPC   H3Y68850   4.756   4.507  11.381
11741POPC   C3468851   4.633   4.664  11.464
11741POPC   H4X68852   4.554   4.650  11.387
11741POPC   H4Y68853   4.637   4.773  11.487
11741POPC   C3568854   4.597   4.584  11.589
11741POPC   H5X68855   4.607   4.476  11.564
11741POPC   H5Y68856   4.489   4.599  11.605
11741POPC   C3668857   4.678   4.611  11.717
11741POPC   H6X68858   4.780   4.567  11.706
11741POPC   H6Y68859   4.626   4.554  11.797
11741POPC   C3768860   4.694   4.757  11.764
11741POPC   H7X68861   4.595   4.807  11.759
11741POPC   H7Y68862   4.760   4.812  11.693
11741POPC   C3868863   4.748   4.777  11.908
11741POPC   H8X68864   4.697   4.864  11.953
11741POPC   H8Y68865   4.856   4.803  11.904
11741POPC   C3968866   4.736   4.657  12.004
11741POPC   H9X68867   4.794   4.571  11.962
11741POPC   H9Y68868   4.629   4.627  12.011
11741POPC  C31068869   4.789   4.685  12.146
11741POPC  H10X68870   4.746   4.782  12.180
11741POPC  H10Y68871   4.899   4.697  12.140
11741POPC  C31168872   4.755   4.578  12.251
11741POPC  H11X68873   4.827   4.587  12.335
11741POPC  H11Y68874   4.768   4.476  12.208
11741POPC  C31268875   4.614   4.597  12.308
11741POPC  H12X68876   4.536   4.582  12.230
11741POPC  H12Y68877   4.608   4.704  12.338
11741POPC  C31368878   4.580   4.512  12.432
11741POPC  H13X68879   4.485   4.551  12.475
11741POPC  H13Y68880   4.659   4.527  12.506
11741POPC  C31468881   4.563   4.363  12.404
11741POPC  H14X68882   4.661   4.312  12.393
11741POPC  H14Y68883   4.509   4.357  12.307
11741POPC  C31568884   4.472   4.289  12.502
11741POPC  H15X68885   4.410   4.218  12.442
11741POPC  H15Y68886   4.403   4.361  12.550
11741POPC  C31668887   4.547   4.208  12.608
11741POPC  H16X68888   4.637   4.159  12.563
11741POPC  H16Y68889   4.483   4.129  12.651
11741POPC  H16Z68890   4.579   4.274  12.691
11742POPC     N68891   4.073   5.229  10.793
11742POPC   C1268892   4.030   5.163  10.924
11742POPC  H12A68893   3.966   5.228  10.982
11742POPC  H12B68894   4.121   5.144  10.983
11742POPC   C1368895   4.213   5.181  10.768
11742POPC  H13A68896   4.283   5.215  10.844
11742POPC  H13B68897   4.212   5.072  10.781
11742POPC  H13C68898   4.250   5.202  10.669
11742POPC   C1468899   3.986   5.183  10.679
11742POPC  H14A68900   3.997   5.075  10.667
11742POPC  H14B68901   3.881   5.204  10.696
11742POPC  H14C68902   4.014   5.229  10.586
11742POPC   C1568903   4.072   5.378  10.801
11742POPC  H15A68904   3.971   5.417  10.813
11742POPC  H15B68905   4.111   5.417  10.707
11742POPC  H15C68906   4.134   5.415  10.882
11742POPC   C1168907   3.965   5.024  10.913
11742POPC  H11A68908   3.868   5.031  10.859
11742POPC  H11B68909   3.939   4.988  11.016
11742POPC     P68910   4.166   4.861  10.927
11742POPC   O1368911   4.247   4.967  10.991
11742POPC   O1468912   4.232   4.763  10.839
11742POPC   O1268913   4.053   4.936  10.843
11742POPC   O1168914   4.066   4.791  11.022
11742POPC    C168915   4.089   4.715  11.137
11742POPC    HA68916   4.180   4.747  11.193
11742POPC    HB68917   4.098   4.608  11.109
11742POPC    C268918   3.963   4.736  11.222
11742POPC    HS68919   3.875   4.721  11.155
11742POPC   O2168920   3.967   4.870  11.276
11742POPC   C2168921   3.851   4.914  11.318
11742POPC   O2268922   3.742   4.869  11.288
11742POPC   C2268923   3.876   5.034  11.409
11742POPC   H2R68924   3.885   5.123  11.345
11742POPC   H2S68925   3.973   5.019  11.462
11742POPC    C368926   3.956   4.633  11.335
11742POPC    HX68927   3.949   4.531  11.292
11742POPC    HY68928   3.865   4.652  11.397
11742POPC   O3168929   4.079   4.647  11.408
11742POPC   C3168930   4.075   4.596  11.527
11742POPC   O3268931   3.979   4.545  11.582
11742POPC   C3268932   4.215   4.603  11.585
11742POPC   H2X68933   4.280   4.667  11.522
11742POPC   H2Y68934   4.257   4.500  11.587
11742POPC   C2368935   3.762   5.052  11.511
11742POPC   H3R68936   3.667   5.073  11.457
11742POPC   H3S68937   3.785   5.142  11.574
11742POPC   C2468938   3.739   4.932  11.604
11742POPC   H4R68939   3.714   4.842  11.544
11742POPC   H4S68940   3.649   4.954  11.667
11742POPC   C2568941   3.854   4.896  11.699
11742POPC   H5R68942   3.875   4.984  11.764
11742POPC   H5S68943   3.947   4.871  11.642
11742POPC   C2668944   3.814   4.775  11.786
11742POPC   H6R68945   3.801   4.686  11.721
11742POPC   H6S68946   3.716   4.799  11.832
11742POPC   C2768947   3.908   4.737  11.902
11742POPC   H7R68948   3.998   4.691  11.858
11742POPC   H7S68949   3.860   4.657  11.963
11742POPC   C2868950   3.953   4.853  11.992
11742POPC   H8R68951   4.005   4.928  11.929
11742POPC   H8S68952   4.028   4.814  12.065
11742POPC   C2968953   3.836   4.912  12.064
11742POPC   H9168954   3.753   4.842  12.082
11742POPC  C21068955   3.824   5.040  12.104
11742POPC  H10168956   3.732   5.070  12.158
11742POPC  C21168957   3.926   5.149  12.085
11742POPC  H11R68958   3.894   5.217  12.003
11742POPC  H11S68959   4.025   5.107  12.055
11742POPC  C21268960   3.948   5.232  12.213
11742POPC  H12R68961   4.034   5.300  12.194
11742POPC  H12S68962   3.977   5.166  12.297
11742POPC  C21368963   3.826   5.317  12.250
11742POPC  H13R68964   3.740   5.253  12.278
11742POPC  H13S68965   3.796   5.374  12.159
11742POPC  C21468966   3.852   5.419  12.362
11742POPC  H14R68967   3.778   5.501  12.349
11742POPC  H14S68968   3.953   5.463  12.351
11742POPC  C21568969   3.833   5.364  12.505
11742POPC  H15R68970   3.737   5.309  12.513
11742POPC  H15S68971   3.826   5.454  12.571
11742POPC  C21668972   3.949   5.278  12.558
11742POPC  H16R68973   4.044   5.308  12.507
11742POPC  H16S68974   3.930   5.171  12.534
11742POPC  C21768975   3.967   5.297  12.709
11742POPC  H17R68976   3.873   5.269  12.760
11742POPC  H17S68977   3.985   5.405  12.728
11742POPC  C21868978   4.083   5.218  12.768
11742POPC  H18R68979   4.098   5.244  12.875
11742POPC  H18S68980   4.178   5.240  12.713
11742POPC  H18T68981   4.064   5.109  12.761
11742POPC   C3368982   4.207   4.658  11.727
11742POPC   H3X68983   4.150   4.587  11.791
11742POPC   H3Y68984   4.157   4.758  11.727
11742POPC   C3468985   4.344   4.675  11.789
11742POPC   H4X68986   4.404   4.743  11.725
11742POPC   H4Y68987   4.393   4.575  11.790
11742POPC   C3568988   4.341   4.730  11.931
11742POPC   H5X68989   4.436   4.701  11.981
11742POPC   H5Y68990   4.257   4.686  11.988
11742POPC   C3668991   4.330   4.883  11.930
11742POPC   H6X68992   4.225   4.912  11.914
11742POPC   H6Y68993   4.389   4.925  11.846
11742POPC   C3768994   4.385   4.945  12.059
11742POPC   H7X68995   4.353   5.052  12.063
11742POPC   H7Y68996   4.497   4.944  12.053
11742POPC   C3868997   4.343   4.873  12.187
11742POPC   H8X68998   4.382   4.768  12.187
11742POPC   H8Y68999   4.233   4.870  12.195
11742POPC   C3969000   4.404   4.946  12.307
11742POPC   H9X69001   4.356   5.046  12.315
11742POPC   H9Y69002   4.509   4.960  12.280
11742POPC  C31069003   4.402   4.877  12.444
11742POPC  H10X69004   4.409   4.954  12.523
11742POPC  H10Y69005   4.489   4.810  12.457
11742POPC  C31169006   4.274   4.797  12.460
11742POPC  H11X69007   4.272   4.713  12.387
11742POPC  H11Y69008   4.192   4.867  12.434
11742POPC  C31269009   4.254   4.739  12.600
11742POPC  H12X69010   4.251   4.821  12.675
11742POPC  H12Y69011   4.339   4.672  12.627
11742POPC  C31369012   4.123   4.660  12.606
11742POPC  H13X69013   4.098   4.645  12.713
11742POPC  H13Y69014   4.139   4.560  12.559
11742POPC  C31469015   4.003   4.729  12.541
11742POPC  H14X69016   3.913   4.664  12.554
11742POPC  H14Y69017   4.019   4.737  12.431
11742POPC  C31569018   3.975   4.868  12.601
11742POPC  H15X69019   3.903   4.920  12.535
11742POPC  H15Y69020   4.068   4.929  12.597
11742POPC  C31669021   3.925   4.865  12.745
11742POPC  H16X69022   3.836   4.800  12.757
11742POPC  H16Y69023   3.897   4.967  12.779
11742POPC  H16Z69024   4.004   4.826  12.812
11743POPC     N69025   5.035   5.213  10.642
11743POPC   C1269026   5.142   5.296  10.713
11743POPC  H12A69027   5.150   5.391  10.661
11743POPC  H12B69028   5.238   5.248  10.705
11743POPC   C1369029   5.077   5.195  10.500
11743POPC  H13A69030   5.179   5.159  10.493
11743POPC  H13B69031   5.009   5.129  10.447
11743POPC  H13C69032   5.079   5.290  10.448
11743POPC   C1469033   5.009   5.085  10.715
11743POPC  H14A69034   4.974   5.109  10.816
11743POPC  H14B69035   4.931   5.028  10.667
11743POPC  H14C69036   5.097   5.023  10.726
11743POPC   C1569037   4.906   5.289  10.641
11743POPC  H15A69038   4.917   5.382  10.587
11743POPC  H15B69039   4.880   5.318  10.743
11743POPC  H15C69040   4.824   5.233  10.599
11743POPC   C1169041   5.121   5.331  10.862
11743POPC  H11A69042   5.208   5.390  10.899
11743POPC  H11B69043   5.119   5.237  10.922
11743POPC     P69044   4.909   5.392  11.003
11743POPC   O1369045   4.774   5.433  10.960
11743POPC   O1469046   4.971   5.457  11.120
11743POPC   O1269047   5.004   5.411  10.876
11743POPC   O1169048   4.910   5.234  11.017
11743POPC    C169049   4.795   5.163  11.065
11743POPC    HA69050   4.753   5.106  10.980
11743POPC    HB69051   4.714   5.230  11.102
11743POPC    C269052   4.833   5.063  11.177
11743POPC    HS69053   4.778   4.968  11.158
11743POPC   O2169054   4.797   5.115  11.307
11743POPC   C2169055   4.672   5.098  11.345
11743POPC   O2269056   4.586   5.039  11.282
11743POPC   C2269057   4.660   5.148  11.490
11743POPC   H2R69058   4.721   5.078  11.551
11743POPC   H2S69059   4.555   5.138  11.522
11743POPC    C369060   4.984   5.027  11.177
11743POPC    HX69061   5.043   5.121  11.183
11743POPC    HY69062   5.008   4.981  11.079
11743POPC   O3169063   5.014   4.931  11.282
11743POPC   C3169064   5.076   4.982  11.388
11743POPC   O3269065   5.127   5.092  11.395
11743POPC   C3269066   5.070   4.881  11.503
11743POPC   H2X69067   5.145   4.802  11.486
11743POPC   H2Y69068   4.969   4.836  11.506
11743POPC   C2369069   4.713   5.291  11.518
11743POPC   H3R69070   4.639   5.367  11.484
11743POPC   H3S69071   4.807   5.309  11.460
11743POPC   C2469072   4.747   5.315  11.666
11743POPC   H4R69073   4.798   5.414  11.675
11743POPC   H4S69074   4.821   5.238  11.700
11743POPC   C2569075   4.626   5.314  11.761
11743POPC   H5R69076   4.572   5.217  11.754
11743POPC   H5S69077   4.556   5.395  11.730
11743POPC   C2669078   4.669   5.338  11.907
11743POPC   H6R69079   4.734   5.428  11.908
11743POPC   H6S69080   4.730   5.252  11.942
11743POPC   C2769081   4.556   5.362  12.009
11743POPC   H7R69082   4.512   5.264  12.039
11743POPC   H7S69083   4.475   5.424  11.964
11743POPC   C2869084   4.614   5.436  12.132
11743POPC   H8R69085   4.640   5.539  12.099
11743POPC   H8S69086   4.712   5.387  12.153
11743POPC   C2969087   4.536   5.443  12.261
11743POPC   H9169088   4.484   5.539  12.278
11743POPC  C21069089   4.521   5.343  12.350
11743POPC  H10169090   4.460   5.363  12.440
11743POPC  C21169091   4.578   5.204  12.341
11743POPC  H11R69092   4.545   5.163  12.243
11743POPC  H11S69093   4.532   5.142  12.421
11743POPC  C21269094   4.730   5.174  12.349
11743POPC  H12R69095   4.763   5.174  12.455
11743POPC  H12S69096   4.781   5.256  12.296
11743POPC  C21369097   4.773   5.044  12.278
11743POPC  H13R69098   4.789   5.066  12.170
11743POPC  H13S69099   4.695   4.967  12.285
11743POPC  C21469100   4.896   4.973  12.335
11743POPC  H14R69101   4.977   5.046  12.354
11743POPC  H14S69102   4.934   4.900  12.260
11743POPC  C21569103   4.863   4.896  12.464
11743POPC  H15R69104   4.778   4.825  12.448
11743POPC  H15S69105   4.832   4.969  12.542
11743POPC  C21669106   4.985   4.819  12.514
11743POPC  H16R69107   5.069   4.889  12.501
11743POPC  H16S69108   5.003   4.729  12.451
11743POPC  C21769109   4.976   4.779  12.660
11743POPC  H17R69110   4.870   4.757  12.680
11743POPC  H17S69111   4.994   4.866  12.725
11743POPC  C21869112   5.066   4.659  12.698
11743POPC  H18R69113   5.048   4.629  12.804
11743POPC  H18S69114   5.174   4.679  12.688
11743POPC  H18T69115   5.040   4.572  12.633
11743POPC   C3369116   5.097   4.956  11.636
11743POPC   H3X69117   5.018   5.034  11.648
11743POPC   H3Y69118   5.194   5.010  11.629
11743POPC   C3469119   5.101   4.867  11.760
11743POPC   H4X69120   5.180   4.789  11.746
11743POPC   H4Y69121   5.004   4.814  11.770
11743POPC   C3569122   5.134   4.947  11.888
11743POPC   H5X69123   5.231   4.995  11.866
11743POPC   H5Y69124   5.149   4.880  11.975
11743POPC   C3669125   5.037   5.060  11.926
11743POPC   H6X69126   4.961   5.024  11.999
11743POPC   H6Y69127   4.980   5.094  11.836
11743POPC   C3769128   5.111   5.182  11.983
11743POPC   H7X69129   5.212   5.189  11.936
11743POPC   H7Y69130   5.126   5.167  12.092
11743POPC   C3869131   5.042   5.317  11.954
11743POPC   H8X69132   4.937   5.312  11.989
11743POPC   H8Y69133   5.039   5.334  11.844
11743POPC   C3969134   5.112   5.438  12.020
11743POPC   H9X69135   5.052   5.529  11.997
11743POPC   H9Y69136   5.213   5.452  11.974
11743POPC  C31069137   5.128   5.426  12.172
11743POPC  H10X69138   5.157   5.524  12.214
11743POPC  H10Y69139   5.209   5.354  12.197
11743POPC  C31169140   4.998   5.380  12.239
11743POPC  H11X69141   4.975   5.275  12.208
11743POPC  H11Y69142   4.915   5.444  12.204
11743POPC  C31269143   5.001   5.384  12.392
11743POPC  H12X69144   4.900   5.356  12.427
11743POPC  H12Y69145   5.019   5.488  12.425
11743POPC  C31369146   5.102   5.289  12.456
11743POPC  H13X69147   5.203   5.335  12.453
11743POPC  H13Y69148   5.110   5.195  12.396
11743POPC  C31469149   5.065   5.250  12.601
11743POPC  H14X69150   5.158   5.222  12.656
11743POPC  H14Y69151   5.000   5.159  12.597
11743POPC  C31569152   4.989   5.356  12.681
11743POPC  H15X69153   4.961   5.310  12.778
11743POPC  H15Y69154   4.893   5.381  12.632
11743POPC  C31669155   5.067   5.484  12.707
11743POPC  H16X69156   5.171   5.463  12.739
11743POPC  H16Y69157   5.019   5.538  12.790
11743POPC  H16Z69158   5.069   5.551  12.619
11744POPC     N69159   5.482   4.550  10.706
11744POPC   C1269160   5.527   4.519  10.849
11744POPC  H12A69161   5.636   4.528  10.856
11744POPC  H12B69162   5.503   4.417  10.873
11744POPC   C1369163   5.332   4.546  10.694
11744POPC  H13A69164   5.288   4.611  10.769
11744POPC  H13B69165   5.302   4.585  10.597
11744POPC  H13C69166   5.291   4.447  10.705
11744POPC   C1469167   5.529   4.689  10.676
11744POPC  H14A69168   5.503   4.752  10.762
11744POPC  H14B69169   5.637   4.694  10.671
11744POPC  H14C69170   5.486   4.730  10.586
11744POPC   C1569171   5.541   4.461  10.602
11744POPC  H15A69172   5.509   4.357  10.613
11744POPC  H15B69173   5.649   4.466  10.599
11744POPC  H15C69174   5.506   4.492  10.504
11744POPC   C1169175   5.473   4.611  10.961
11744POPC  H11A69176   5.501   4.571  11.061
11744POPC  H11B69177   5.362   4.612  10.958
11744POPC     P69178   5.663   4.794  10.988
11744POPC   O1369179   5.659   4.867  11.116
11744POPC   O1469180   5.717   4.867  10.870
11744POPC   O1269181   5.518   4.746  10.949
11744POPC   O1169182   5.747   4.659  11.001
11744POPC    C169183   5.887   4.660  10.963
11744POPC    HA69184   5.927   4.762  10.943
11744POPC    HB69185   5.898   4.601  10.870
11744POPC    C269186   5.983   4.598  11.070
11744POPC    HS69187   6.077   4.569  11.019
11744POPC   O2169188   5.929   4.482  11.137
11744POPC   C2169189   5.874   4.386  11.068
11744POPC   O2269190   5.886   4.364  10.949
11744POPC   C2269191   5.789   4.298  11.159
11744POPC   H2R69192   5.855   4.248  11.233
11744POPC   H2S69193   5.743   4.221  11.094
11744POPC    C369194   6.023   4.704  11.179
11744POPC    HX69195   6.083   4.782  11.126
11744POPC    HY69196   6.093   4.657  11.252
11744POPC   O3169197   5.913   4.770  11.244
11744POPC   C3169198   5.864   4.706  11.349
11744POPC   O3269199   5.899   4.596  11.387
11744POPC   C3269200   5.772   4.798  11.430
11744POPC   H2X69201   5.667   4.772  11.405
11744POPC   H2Y69202   5.790   4.903  11.400
11744POPC   C2369203   5.682   4.382  11.231
11744POPC   H3R69204   5.650   4.467  11.165
11744POPC   H3S69205   5.726   4.429  11.321
11744POPC   C2469206   5.557   4.304  11.269
11744POPC   H4R69207   5.584   4.223  11.341
11744POPC   H4S69208   5.514   4.254  11.179
11744POPC   C2569209   5.451   4.397  11.331
11744POPC   H5R69210   5.356   4.341  11.347
11744POPC   H5S69211   5.430   4.480  11.260
11744POPC   C2669212   5.491   4.457  11.467
11744POPC   H6R69213   5.402   4.510  11.509
11744POPC   H6S69214   5.571   4.534  11.454
11744POPC   C2769215   5.538   4.353  11.570
11744POPC   H7R69216   5.644   4.325  11.551
11744POPC   H7S69217   5.478   4.262  11.552
11744POPC   C2869218   5.517   4.395  11.716
11744POPC   H8R69219   5.518   4.304  11.778
11744POPC   H8S69220   5.415   4.438  11.726
11744POPC   C2969221   5.621   4.495  11.760
11744POPC   H9169222   5.611   4.594  11.714
11744POPC  C21069223   5.725   4.476  11.844
11744POPC  H10169224   5.796   4.559  11.860
11744POPC  C21169225   5.761   4.347  11.912
11744POPC  H11R69226   5.834   4.291  11.851
11744POPC  H11S69227   5.670   4.284  11.920
11744POPC  C21269228   5.811   4.352  12.057
11744POPC  H12R69229   5.867   4.258  12.079
11744POPC  H12S69230   5.722   4.352  12.124
11744POPC  C21369231   5.900   4.470  12.098
11744POPC  H13R69232   5.863   4.567  12.058
11744POPC  H13S69233   6.004   4.455  12.060
11744POPC  C21469234   5.899   4.477  12.250
11744POPC  H14R69235   5.878   4.377  12.293
11744POPC  H14S69236   5.814   4.540  12.281
11744POPC  C21569237   6.026   4.533  12.312
11744POPC  H15R69238   6.030   4.642  12.290
11744POPC  H15S69239   6.116   4.485  12.268
11744POPC  C21669240   6.025   4.507  12.463
11744POPC  H16R69241   6.051   4.400  12.482
11744POPC  H16S69242   5.923   4.519  12.501
11744POPC  C21769243   6.119   4.597  12.543
11744POPC  H17R69244   6.222   4.579  12.504
11744POPC  H17S69245   6.114   4.563  12.649
11744POPC  C21869246   6.090   4.747  12.539
11744POPC  H18R69247   6.090   4.784  12.434
11744POPC  H18S69248   6.168   4.803  12.595
11744POPC  H18T69249   5.992   4.771  12.585
11744POPC   C3369250   5.799   4.778  11.582
11744POPC   H3X69251   5.907   4.794  11.602
11744POPC   H3Y69252   5.776   4.673  11.608
11744POPC   C3469253   5.720   4.872  11.675
11744POPC   H4X69254   5.755   4.976  11.658
11744POPC   H4Y69255   5.745   4.845  11.780
11744POPC   C3569256   5.567   4.870  11.655
11744POPC   H5X69257   5.528   4.767  11.657
11744POPC   H5Y69258   5.545   4.912  11.554
11744POPC   C3669259   5.494   4.955  11.760
11744POPC   H6X69260   5.393   4.981  11.722
11744POPC   H6Y69261   5.550   5.050  11.773
11744POPC   C3769262   5.481   4.882  11.895
11744POPC   H7X69263   5.570   4.817  11.910
11744POPC   H7Y69264   5.393   4.814  11.893
11744POPC   C3869265   5.471   4.978  12.015
11744POPC   H8X69266   5.370   5.023  12.019
11744POPC   H8Y69267   5.544   5.062  12.003
11744POPC   C3969268   5.498   4.905  12.147
11744POPC   H9X69269   5.441   4.809  12.144
11744POPC   H9Y69270   5.459   4.965  12.232
11744POPC  C31069271   5.647   4.878  12.171
11744POPC  H10X69272   5.687   4.962  12.232
11744POPC  H10Y69273   5.702   4.882  12.074
11744POPC  C31169274   5.680   4.743  12.239
11744POPC  H11X69275   5.781   4.752  12.283
11744POPC  H11Y69276   5.684   4.666  12.159
11744POPC  C31269277   5.579   4.696  12.345
11744POPC  H12X69278   5.493   4.649  12.290
11744POPC  H12Y69279   5.537   4.783  12.396
11744POPC  C31369280   5.625   4.594  12.452
11744POPC  H13X69281   5.664   4.503  12.403
11744POPC  H13Y69282   5.536   4.562  12.509
11744POPC  C31469283   5.716   4.636  12.569
11744POPC  H14X69284   5.801   4.691  12.527
11744POPC  H14Y69285   5.755   4.543  12.616
11744POPC  C31569286   5.647   4.712  12.683
11744POPC  H15X69287   5.599   4.801  12.639
11744POPC  H15Y69288   5.725   4.747  12.754
11744POPC  C31669289   5.540   4.635  12.762
11744POPC  H16X69290   5.542   4.667  12.868
11744POPC  H16Y69291   5.438   4.655  12.723
11744POPC  H16Z69292   5.559   4.526  12.755
11745POPC     N69293   3.681   4.029  10.794
11745POPC   C1269294   3.776   4.019  10.913
11745POPC  H12A69295   3.877   4.006  10.874
11745POPC  H12B69296   3.751   3.929  10.968
11745POPC   C1369297   3.568   4.120  10.830
11745POPC  H13A69298   3.613   4.215  10.860
11745POPC  H13B69299   3.504   4.137  10.745
11745POPC  H13C69300   3.512   4.083  10.915
11745POPC   C1469301   3.757   4.091  10.680
11745POPC  H14A69302   3.794   4.188  10.712
11745POPC  H14B69303   3.847   4.035  10.657
11745POPC  H14C69304   3.697   4.104  10.591
11745POPC   C1569305   3.634   3.895  10.751
11745POPC  H15A69306   3.568   3.849  10.823
11745POPC  H15B69307   3.716   3.828  10.730
11745POPC  H15C69308   3.580   3.905  10.656
11745POPC   C1169309   3.786   4.137  11.013
11745POPC  H11A69310   3.856   4.111  11.097
11745POPC  H11B69311   3.689   4.155  11.064
11745POPC     P69312   3.983   4.272  10.912
11745POPC   O1369313   4.002   4.414  10.876
11745POPC   O1469314   4.009   4.174  10.805
11745POPC   O1269315   3.829   4.257  10.950
11745POPC   O1169316   4.061   4.236  11.044
11745POPC    C169317   4.193   4.297  11.051
11745POPC    HA69318   4.186   4.402  11.086
11745POPC    HB69319   4.245   4.298  10.952
11745POPC    C269320   4.288   4.218  11.145
11745POPC    HS69321   4.393   4.237  11.116
11745POPC   O2169322   4.263   4.076  11.137
11745POPC   C2169323   4.282   4.024  11.015
11745POPC   O2269324   4.333   4.079  10.919
11745POPC   C2269325   4.220   3.885  11.010
11745POPC   H2R69326   4.253   3.831  11.100
11745POPC   H2S69327   4.259   3.833  10.920
11745POPC    C369328   4.273   4.269  11.294
11745POPC    HX69329   4.335   4.361  11.299
11745POPC    HY69330   4.322   4.195  11.361
11745POPC   O3169331   4.140   4.303  11.341
11745POPC   C3169332   4.068   4.198  11.382
11745POPC   O3269333   4.103   4.083  11.376
11745POPC   C3269334   3.944   4.244  11.458
11745POPC   H2X69335   3.861   4.176  11.431
11745POPC   H2Y69336   3.917   4.347  11.427
11745POPC   C2369337   4.067   3.894  11.003
11745POPC   H3R69338   4.035   3.907  10.897
11745POPC   H3S69339   4.035   3.985  11.059
11745POPC   C2469340   3.998   3.775  11.070
11745POPC   H4R69341   4.072   3.719  11.132
11745POPC   H4S69342   3.961   3.705  10.992
11745POPC   C2569343   3.885   3.820  11.162
11745POPC   H5R69344   3.806   3.743  11.166
11745POPC   H5S69345   3.835   3.910  11.123
11745POPC   C2669346   3.933   3.852  11.303
11745POPC   H6R69347   3.880   3.943  11.340
11745POPC   H6S69348   4.041   3.876  11.299
11745POPC   C2769349   3.910   3.735  11.398
11745POPC   H7R69350   4.008   3.692  11.430
11745POPC   H7S69351   3.859   3.656  11.342
11745POPC   C2869352   3.817   3.767  11.514
11745POPC   H8R69353   3.784   3.672  11.563
11745POPC   H8S69354   3.725   3.818  11.477
11745POPC   C2969355   3.896   3.856  11.603
11745POPC   H9169356   3.906   3.959  11.567
11745POPC  C21069357   3.962   3.820  11.713
11745POPC  H10169358   4.015   3.899  11.765
11745POPC  C21169359   3.974   3.683  11.777
11745POPC  H11R69360   4.079   3.647  11.767
11745POPC  H11S69361   3.908   3.607  11.731
11745POPC  C21269362   3.943   3.695  11.927
11745POPC  H12R69363   3.966   3.599  11.978
11745POPC  H12S69364   3.835   3.718  11.939
11745POPC  C21369365   4.014   3.812  11.995
11745POPC  H13R69366   3.954   3.905  11.979
11745POPC  H13S69367   4.109   3.826  11.942
11745POPC  C21469368   4.038   3.796  12.144
11745POPC  H14R69369   4.104   3.709  12.165
11745POPC  H14S69370   3.940   3.780  12.192
11745POPC  C21569371   4.092   3.923  12.208
11745POPC  H15R69372   4.024   4.008  12.186
11745POPC  H15S69373   4.191   3.947  12.165
11745POPC  C21669374   4.113   3.912  12.359
11745POPC  H16R69375   4.170   3.819  12.383
11745POPC  H16S69376   4.015   3.907  12.411
11745POPC  C21769377   4.195   4.032  12.405
11745POPC  H17R69378   4.147   4.126  12.368
11745POPC  H17S69379   4.295   4.029  12.357
11745POPC  C21869380   4.210   4.038  12.556
11745POPC  H18R69381   4.262   4.131  12.583
11745POPC  H18S69382   4.269   3.951  12.593
11745POPC  H18T69383   4.110   4.037  12.606
11745POPC   C3369384   3.972   4.237  11.610
11745POPC   H3X69385   4.056   4.306  11.632
11745POPC   H3Y69386   4.005   4.135  11.639
11745POPC   C3469387   3.855   4.278  11.701
11745POPC   H4X69388   3.808   4.372  11.665
11745POPC   H4Y69389   3.899   4.301  11.801
11745POPC   C3569390   3.748   4.169  11.721
11745POPC   H5X69391   3.799   4.073  11.743
11745POPC   H5Y69392   3.689   4.156  11.628
11745POPC   C3669393   3.653   4.198  11.839
11745POPC   H6X69394   3.573   4.121  11.840
11745POPC   H6Y69395   3.604   4.297  11.825
11745POPC   C3769396   3.728   4.196  11.973
11745POPC   H7X69397   3.760   4.299  11.998
11745POPC   H7Y69398   3.820   4.134  11.963
11745POPC   C3869399   3.646   4.136  12.088
11745POPC   H8X69400   3.619   4.031  12.063
11745POPC   H8Y69401   3.552   4.192  12.100
11745POPC   C3969402   3.720   4.136  12.222
11745POPC   H9X69403   3.821   4.092  12.207
11745POPC   H9Y69404   3.668   4.072  12.296
11745POPC  C31069405   3.732   4.278  12.280
11745POPC  H10X69406   3.657   4.291  12.361
11745POPC  H10Y69407   3.710   4.353  12.202
11745POPC  C31169408   3.872   4.306  12.336
11745POPC  H11X69409   3.877   4.414  12.360
11745POPC  H11Y69410   3.949   4.285  12.259
11745POPC  C31269411   3.899   4.223  12.462
11745POPC  H12X69412   3.959   4.134  12.436
11745POPC  H12Y69413   3.803   4.181  12.501
11745POPC  C31369414   3.966   4.307  12.570
11745POPC  H13X69415   4.049   4.365  12.525
11745POPC  H13Y69416   4.010   4.242  12.649
11745POPC  C31469417   3.863   4.400  12.634
11745POPC  H14X69418   3.810   4.459  12.556
11745POPC  H14Y69419   3.916   4.473  12.697
11745POPC  C31569420   3.761   4.323  12.719
11745POPC  H15X69421   3.801   4.221  12.738
11745POPC  H15Y69422   3.667   4.310  12.659
11745POPC  C31669423   3.730   4.387  12.853
11745POPC  H16X69424   3.771   4.325  12.936
11745POPC  H16Y69425   3.620   4.395  12.868
11745POPC  H16Z69426   3.774   4.488  12.861
11746POPC     N69427   5.458   3.902  10.695
11746POPC   C1269428   5.344   3.983  10.755
11746POPC  H12A69429   5.310   4.056  10.683
11746POPC  H12B69430   5.382   4.036  10.840
11746POPC   C1369431   5.535   3.832  10.804
11746POPC  H13A69432   5.584   3.899  10.874
11746POPC  H13B69433   5.465   3.772  10.864
11746POPC  H13C69434   5.609   3.765  10.763
11746POPC   C1469435   5.395   3.795  10.610
11746POPC  H14A69436   5.468   3.724  10.576
11746POPC  H14B69437   5.322   3.744  10.674
11746POPC  H14C69438   5.340   3.840  10.530
11746POPC   C1569439   5.549   3.984  10.611
11746POPC  H15A69440   5.621   3.919  10.562
11746POPC  H15B69441   5.604   4.057  10.669
11746POPC  H15C69442   5.494   4.035  10.533
11746POPC   C1169443   5.220   3.903  10.803
11746POPC  H11A69444   5.154   3.879  10.716
11746POPC  H11B69445   5.158   3.965  10.872
11746POPC     P69446   5.200   3.710  10.987
11746POPC   O1369447   5.297   3.608  11.032
11746POPC   O1469448   5.070   3.659  10.940
11746POPC   O1269449   5.263   3.782  10.863
11746POPC   O1169450   5.184   3.826  11.094
11746POPC    C169451   5.274   3.937  11.109
11746POPC    HA69452   5.218   4.031  11.092
11746POPC    HB69453   5.355   3.932  11.033
11746POPC    C269454   5.348   3.942  11.246
11746POPC    HS69455   5.457   3.956  11.224
11746POPC   O2169456   5.319   3.823  11.316
11746POPC   C2169457   5.399   3.727  11.284
11746POPC   O2269458   5.495   3.736  11.208
11746POPC   C2269459   5.361   3.616  11.380
11746POPC   H2R69460   5.428   3.529  11.365
11746POPC   H2S69461   5.257   3.583  11.359
11746POPC    C369462   5.314   4.051  11.348
11746POPC    HX69463   5.210   4.024  11.375
11746POPC    HY69464   5.315   4.151  11.301
11746POPC   O3169465   5.403   4.043  11.463
11746POPC   C3169466   5.338   4.054  11.580
11746POPC   O3269467   5.226   4.098  11.593
11746POPC   C3269468   5.420   4.000  11.700
11746POPC   H2X69469   5.384   3.897  11.716
11746POPC   H2Y69470   5.386   4.062  11.786
11746POPC   C2369471   5.375   3.670  11.524
11746POPC   H3R69472   5.285   3.726  11.556
11746POPC   H3S69473   5.462   3.741  11.527
11746POPC   C2469474   5.410   3.558  11.617
11746POPC   H4R69475   5.483   3.498  11.559
11746POPC   H4S69476   5.324   3.489  11.633
11746POPC   C2569477   5.476   3.602  11.749
11746POPC   H5R69478   5.545   3.687  11.727
11746POPC   H5S69479   5.539   3.524  11.797
11746POPC   C2669480   5.376   3.647  11.852
11746POPC   H6R69481   5.333   3.737  11.807
11746POPC   H6S69482   5.428   3.672  11.947
11746POPC   C2769483   5.256   3.557  11.881
11746POPC   H7R69484   5.293   3.465  11.931
11746POPC   H7S69485   5.204   3.528  11.787
11746POPC   C2869486   5.150   3.627  11.969
11746POPC   H8R69487   5.193   3.635  12.071
11746POPC   H8S69488   5.063   3.559  11.981
11746POPC   C2969489   5.101   3.760  11.915
11746POPC   H9169490   5.009   3.752  11.853
11746POPC  C21069491   5.158   3.882  11.927
11746POPC  H10169492   5.107   3.967  11.880
11746POPC  C21169493   5.286   3.919  11.998
11746POPC  H11R69494   5.303   4.029  11.990
11746POPC  H11S69495   5.372   3.874  11.947
11746POPC  C21269496   5.296   3.886  12.147
11746POPC  H12R69497   5.398   3.905  12.188
11746POPC  H12S69498   5.274   3.780  12.168
11746POPC  C21369499   5.194   3.974  12.216
11746POPC  H13R69500   5.108   3.984  12.147
11746POPC  H13S69501   5.238   4.075  12.232
11746POPC  C21469502   5.139   3.915  12.345
11746POPC  H14R69503   5.138   3.804  12.338
11746POPC  H14S69504   5.033   3.947  12.355
11746POPC  C21569505   5.223   3.963  12.462
11746POPC  H15R69506   5.311   4.020  12.424
11746POPC  H15S69507   5.266   3.877  12.515
11746POPC  C21669508   5.142   4.052  12.555
11746POPC  H16R69509   5.070   3.994  12.616
11746POPC  H16S69510   5.082   4.123  12.493
11746POPC  C21769511   5.229   4.135  12.649
11746POPC  H17R69512   5.312   4.182  12.595
11746POPC  H17S69513   5.275   4.069  12.725
11746POPC  C21869514   5.141   4.244  12.707
11746POPC  H18R69515   5.119   4.318  12.627
11746POPC  H18S69516   5.188   4.296  12.793
11746POPC  H18T69517   5.045   4.200  12.739
11746POPC   C3369518   5.576   3.998  11.703
11746POPC   H3X69519   5.613   4.073  11.629
11746POPC   H3Y69520   5.615   3.899  11.672
11746POPC   C3469521   5.633   4.036  11.842
11746POPC   H4X69522   5.571   4.120  11.881
11746POPC   H4Y69523   5.736   4.074  11.829
11746POPC   C3569524   5.637   3.928  11.952
11746POPC   H5X69525   5.643   3.827  11.906
11746POPC   H5Y69526   5.545   3.934  12.012
11746POPC   C3669527   5.751   3.943  12.054
11746POPC   H6X69528   5.765   4.051  12.080
11746POPC   H6Y69529   5.844   3.908  12.008
11746POPC   C3769530   5.730   3.864  12.185
11746POPC   H7X69531   5.664   3.924  12.252
11746POPC   H7Y69532   5.829   3.855  12.236
11746POPC   C3869533   5.669   3.724  12.171
11746POPC   H8X69534   5.732   3.661  12.105
11746POPC   H8Y69535   5.569   3.733  12.124
11746POPC   C3969536   5.654   3.656  12.309
11746POPC   H9X69537   5.609   3.728  12.380
11746POPC   H9Y69538   5.756   3.630  12.346
11746POPC  C31069539   5.568   3.528  12.309
11746POPC  H10X69540   5.582   3.478  12.407
11746POPC  H10Y69541   5.606   3.459  12.230
11746POPC  C31169542   5.417   3.550  12.287
11746POPC  H11X69543   5.369   3.451  12.274
11746POPC  H11Y69544   5.402   3.606  12.192
11746POPC  C31269545   5.342   3.623  12.401
11746POPC  H12X69546   5.234   3.626  12.372
11746POPC  H12Y69547   5.379   3.727  12.410
11746POPC  C31369548   5.353   3.551  12.537
11746POPC  H13X69549   5.453   3.574  12.579
11746POPC  H13Y69550   5.351   3.442  12.514
11746POPC  C31469551   5.241   3.573  12.642
11746POPC  H14X69552   5.258   3.496  12.720
11746POPC  H14Y69553   5.142   3.551  12.597
11746POPC  C31569554   5.233   3.708  12.717
11746POPC  H15X69555   5.174   3.691  12.810
11746POPC  H15Y69556   5.172   3.780  12.659
11746POPC  C31669557   5.366   3.771  12.758
11746POPC  H16X69558   5.431   3.788  12.669
11746POPC  H16Y69559   5.419   3.704  12.829
11746POPC  H16Z69560   5.350   3.868  12.809
11747POPC     N69561   4.483   3.379  10.747
11747POPC   C1269562   4.366   3.402  10.842
11747POPC  H12A69563   4.333   3.310  10.887
11747POPC  H12B69564   4.281   3.441  10.786
11747POPC   C1369565   4.610   3.385  10.825
11747POPC  H13A69566   4.608   3.316  10.907
11747POPC  H13B69567   4.699   3.376  10.765
11747POPC  H13C69568   4.617   3.485  10.873
11747POPC   C1469569   4.467   3.254  10.668
11747POPC  H14A69570   4.370   3.253  10.620
11747POPC  H14B69571   4.542   3.250  10.589
11747POPC  H14C69572   4.476   3.165  10.729
11747POPC   C1569573   4.488   3.493  10.650
11747POPC  H15A69574   4.474   3.586  10.706
11747POPC  H15B69575   4.404   3.491  10.581
11747POPC  H15C69576   4.581   3.498  10.596
11747POPC   C1169577   4.393   3.505  10.954
11747POPC  H11A69578   4.462   3.460  11.029
11747POPC  H11B69579   4.299   3.530  11.006
11747POPC     P69580   4.530   3.730  10.969
11747POPC   O1369581   4.476   3.733  11.106
11747POPC   O1469582   4.526   3.850  10.883
11747POPC   O1269583   4.448   3.621  10.893
11747POPC   O1169584   4.677   3.670  10.970
11747POPC    C169585   4.775   3.766  11.016
11747POPC    HA69586   4.751   3.873  10.991
11747POPC    HB69587   4.869   3.748  10.961
11747POPC    C269588   4.810   3.761  11.169
11747POPC    HS69589   4.919   3.736  11.176
11747POPC   O2169590   4.735   3.669  11.249
11747POPC   C2169591   4.752   3.541  11.236
11747POPC   O2269592   4.826   3.482  11.159
11747POPC   C2269593   4.676   3.469  11.350
11747POPC   H2R69594   4.710   3.512  11.446
11747POPC   H2S69595   4.710   3.363  11.346
11747POPC    C369596   4.794   3.902  11.232
11747POPC    HX69597   4.844   3.975  11.165
11747POPC    HY69598   4.852   3.899  11.327
11747POPC   O3169599   4.657   3.946  11.253
11747POPC   C3169600   4.610   3.914  11.372
11747POPC   O3269601   4.672   3.857  11.461
11747POPC   C3269602   4.471   3.973  11.394
11747POPC   H2X69603   4.402   3.938  11.314
11747POPC   H2Y69604   4.484   4.083  11.385
11747POPC   C2369605   4.521   3.468  11.343
11747POPC   H3R69606   4.482   3.372  11.384
11747POPC   H3S69607   4.488   3.475  11.237
11747POPC   C2469608   4.453   3.581  11.422
11747POPC   H4R69609   4.360   3.611  11.368
11747POPC   H4S69610   4.519   3.670  11.423
11747POPC   C2569611   4.412   3.544  11.566
11747POPC   H5R69612   4.352   3.451  11.564
11747POPC   H5S69613   4.346   3.625  11.606
11747POPC   C2669614   4.530   3.529  11.663
11747POPC   H6R69615   4.588   3.625  11.662
11747POPC   H6S69616   4.599   3.448  11.629
11747POPC   C2769617   4.484   3.499  11.806
11747POPC   H7R69618   4.396   3.563  11.828
11747POPC   H7S69619   4.564   3.527  11.879
11747POPC   C2869620   4.451   3.350  11.825
11747POPC   H8R69621   4.546   3.295  11.845
11747POPC   H8S69622   4.413   3.309  11.729
11747POPC   C2969623   4.348   3.326  11.933
11747POPC   H9169624   4.244   3.338  11.899
11747POPC  C21069625   4.372   3.297  12.062
11747POPC  H10169626   4.286   3.283  12.129
11747POPC  C21169627   4.506   3.282  12.129
11747POPC  H11R69628   4.590   3.279  12.056
11747POPC  H11S69629   4.510   3.186  12.186
11747POPC  C21269630   4.529   3.400  12.224
11747POPC  H12R69631   4.443   3.411  12.294
11747POPC  H12S69632   4.534   3.494  12.164
11747POPC  C21369633   4.657   3.389  12.308
11747POPC  H13R69634   4.675   3.489  12.354
11747POPC  H13S69635   4.744   3.366  12.243
11747POPC  C21469636   4.647   3.287  12.423
11747POPC  H14R69637   4.667   3.185  12.384
11747POPC  H14S69638   4.544   3.288  12.464
11747POPC  C21569639   4.744   3.320  12.538
11747POPC  H15R69640   4.720   3.421  12.578
11747POPC  H15S69641   4.848   3.324  12.497
11747POPC  C21669642   4.738   3.219  12.653
11747POPC  H16R69643   4.752   3.117  12.610
11747POPC  H16S69644   4.638   3.222  12.700
11747POPC  C21769645   4.847   3.243  12.759
11747POPC  H17R69646   4.828   3.342  12.807
11747POPC  H17S69647   4.946   3.249  12.709
11747POPC  C21869648   4.852   3.134  12.867
11747POPC  H18R69649   4.919   3.164  12.950
11747POPC  H18S69650   4.890   3.039  12.824
11747POPC  H18T69651   4.751   3.115  12.909
11747POPC   C3369652   4.424   3.936  11.536
11747POPC   H3X69653   4.504   3.966  11.606
11747POPC   H3Y69654   4.413   3.826  11.544
11747POPC   C3469655   4.293   3.999  11.585
11747POPC   H4X69656   4.209   3.938  11.546
11747POPC   H4Y69657   4.282   4.102  11.545
11747POPC   C3569658   4.282   4.009  11.738
11747POPC   H5X69659   4.175   4.013  11.766
11747POPC   H5Y69660   4.322   4.106  11.771
11747POPC   C3669661   4.353   3.897  11.815
11747POPC   H6X69662   4.462   3.894  11.793
11747POPC   H6Y69663   4.310   3.799  11.782
11747POPC   C3769664   4.336   3.913  11.966
11747POPC   H7X69665   4.295   3.818  12.007
11747POPC   H7Y69666   4.262   3.995  11.982
11747POPC   C3869667   4.462   3.940  12.049
11747POPC   H8X69668   4.429   3.983  12.146
11747POPC   H8Y69669   4.528   4.013  12.000
11747POPC   C3969670   4.538   3.810  12.073
11747POPC   H9X69671   4.568   3.769  11.973
11747POPC   H9Y69672   4.470   3.736  12.121
11747POPC  C31069673   4.663   3.827  12.160
11747POPC  H10X69674   4.730   3.901  12.112
11747POPC  H10Y69675   4.717   3.730  12.161
11747POPC  C31169676   4.632   3.870  12.305
11747POPC  H11X69677   4.526   3.901  12.315
11747POPC  H11Y69678   4.694   3.958  12.329
11747POPC  C31269679   4.661   3.759  12.407
11747POPC  H12X69680   4.751   3.703  12.372
11747POPC  H12Y69681   4.576   3.688  12.410
11747POPC  C31369682   4.694   3.813  12.547
11747POPC  H13X69683   4.764   3.899  12.535
11747POPC  H13Y69684   4.749   3.735  12.603
11747POPC  C31469685   4.572   3.859  12.628
11747POPC  H14X69686   4.506   3.922  12.564
11747POPC  H14Y69687   4.608   3.923  12.712
11747POPC  C31569688   4.491   3.744  12.689
11747POPC  H15X69689   4.463   3.673  12.609
11747POPC  H15Y69690   4.396   3.786  12.731
11747POPC  C31669691   4.564   3.670  12.801
11747POPC  H16X69692   4.503   3.585  12.838
11747POPC  H16Y69693   4.584   3.738  12.886
11747POPC  H16Z69694   4.660   3.628  12.765
11748POPC     N69695   4.415   5.720  10.762
11748POPC   C1269696   4.281   5.736  10.833
11748POPC  H12A69697   4.299   5.723  10.940
11748POPC  H12B69698   4.216   5.658  10.798
11748POPC   C1369699   4.437   5.825  10.659
11748POPC  H13A69700   4.442   5.923  10.706
11748POPC  H13B69701   4.532   5.809  10.609
11748POPC  H13C69702   4.356   5.829  10.587
11748POPC   C1469703   4.528   5.734  10.860
11748POPC  H14A69704   4.527   5.659  10.938
11748POPC  H14B69705   4.624   5.727  10.808
11748POPC  H14C69706   4.523   5.833  10.907
11748POPC   C1569707   4.427   5.586  10.696
11748POPC  H15A69708   4.526   5.579  10.651
11748POPC  H15B69709   4.356   5.573  10.615
11748POPC  H15C69710   4.419   5.504  10.766
11748POPC   C1169711   4.203   5.869  10.821
11748POPC  H11A69712   4.103   5.858  10.868
11748POPC  H11B69713   4.184   5.892  10.714
11748POPC     P69714   4.292   5.994  11.035
11748POPC   O1369715   4.305   5.858  11.092
11748POPC   O1469716   4.186   6.084  11.086
11748POPC   O1269717   4.273   5.976  10.880
11748POPC   O1169718   4.432   6.065  11.036
11748POPC    C169719   4.465   6.145  10.923
11748POPC    HA69720   4.381   6.213  10.893
11748POPC    HB69721   4.490   6.081  10.835
11748POPC    C269722   4.585   6.235  10.957
11748POPC    HS69723   4.624   6.277  10.862
11748POPC   O2169724   4.690   6.162  11.025
11748POPC   C2169725   4.741   6.057  10.964
11748POPC   O2269726   4.726   6.024  10.847
11748POPC   C2269727   4.839   5.988  11.061
11748POPC   H2R69728   4.923   6.059  11.073
11748POPC   H2S69729   4.878   5.898  11.010
11748POPC    C369730   4.536   6.355  11.046
11748POPC    HX69731   4.453   6.404  10.990
11748POPC    HY69732   4.618   6.429  11.056
11748POPC   O3169733   4.492   6.308  11.175
11748POPC   C3169734   4.397   6.378  11.234
11748POPC   O3269735   4.367   6.493  11.208
11748POPC   C3269736   4.329   6.294  11.343
11748POPC   H2X69737   4.233   6.259  11.298
11748POPC   H2Y69738   4.308   6.361  11.429
11748POPC   C2369739   4.786   5.951  11.203
11748POPC   H3R69740   4.723   6.032  11.245
11748POPC   H3S69741   4.876   5.942  11.268
11748POPC   C2469742   4.714   5.814  11.211
11748POPC   H4R69743   4.777   5.739  11.158
11748POPC   H4S69744   4.616   5.822  11.159
11748POPC   C2569745   4.692   5.761  11.355
11748POPC   H5R69746   4.788   5.757  11.410
11748POPC   H5S69747   4.655   5.656  11.348
11748POPC   C2669748   4.589   5.842  11.436
11748POPC   H6R69749   4.494   5.840  11.377
11748POPC   H6S69750   4.622   5.948  11.444
11748POPC   C2769751   4.559   5.787  11.577
11748POPC   H7R69752   4.536   5.678  11.569
11748POPC   H7S69753   4.466   5.837  11.613
11748POPC   C2869754   4.669   5.811  11.682
11748POPC   H8R69755   4.692   5.920  11.685
11748POPC   H8S69756   4.761   5.759  11.650
11748POPC   C2969757   4.623   5.760  11.817
11748POPC   H9169758   4.562   5.668  11.812
11748POPC  C21069759   4.649   5.813  11.938
11748POPC  H10169760   4.607   5.762  12.026
11748POPC  C21169761   4.730   5.936  11.969
11748POPC  H11R69762   4.664   6.021  11.997
11748POPC  H11S69763   4.790   5.969  11.881
11748POPC  C21269764   4.826   5.907  12.086
11748POPC  H12R69765   4.895   5.824  12.054
11748POPC  H12S69766   4.770   5.871  12.175
11748POPC  C21369767   4.913   6.027  12.125
11748POPC  H13R69768   4.938   6.084  12.033
11748POPC  H13S69769   5.008   5.990  12.169
11748POPC  C21469770   4.848   6.124  12.226
11748POPC  H14R69771   4.750   6.157  12.188
11748POPC  H14S69772   4.914   6.213  12.233
11748POPC  C21569773   4.834   6.066  12.367
11748POPC  H15R69774   4.931   6.021  12.397
11748POPC  H15S69775   4.757   5.985  12.367
11748POPC  C21669776   4.795   6.172  12.471
11748POPC  H16R69777   4.870   6.255  12.470
11748POPC  H16S69778   4.801   6.125  12.572
11748POPC  C21769779   4.654   6.229  12.452
11748POPC  H17R69780   4.588   6.149  12.411
11748POPC  H17S69781   4.658   6.310  12.376
11748POPC  C21869782   4.593   6.281  12.582
11748POPC  H18R69783   4.572   6.197  12.652
11748POPC  H18S69784   4.497   6.333  12.559
11748POPC  H18T69785   4.660   6.354  12.632
11748POPC   C3369786   4.409   6.170  11.389
11748POPC   H3X69787   4.500   6.199  11.444
11748POPC   H3Y69788   4.440   6.110  11.299
11748POPC   C3469789   4.324   6.077  11.476
11748POPC   H4X69790   4.378   5.982  11.490
11748POPC   H4Y69791   4.229   6.052  11.422
11748POPC   C3569792   4.291   6.134  11.614
11748POPC   H5X69793   4.219   6.217  11.600
11748POPC   H5Y69794   4.382   6.178  11.661
11748POPC   C3669795   4.233   6.027  11.707
11748POPC   H6X69796   4.312   5.988  11.774
11748POPC   H6Y69797   4.196   5.942  11.646
11748POPC   C3769798   4.115   6.080  11.790
11748POPC   H7X69799   4.079   6.002  11.860
11748POPC   H7Y69800   4.032   6.100  11.719
11748POPC   C3869801   4.147   6.209  11.867
11748POPC   H8X69802   4.056   6.235  11.926
11748POPC   H8Y69803   4.165   6.292  11.796
11748POPC   C3969804   4.267   6.201  11.961
11748POPC   H9X69805   4.290   6.303  12.000
11748POPC   H9Y69806   4.356   6.165  11.905
11748POPC  C31069807   4.240   6.108  12.079
11748POPC  H10X69808   4.201   6.011  12.041
11748POPC  H10Y69809   4.161   6.154  12.143
11748POPC  C31169810   4.365   6.080  12.162
11748POPC  H11X69811   4.392   6.171  12.220
11748POPC  H11Y69812   4.450   6.057  12.093
11748POPC  C31269813   4.345   5.960  12.256
11748POPC  H12X69814   4.436   5.949  12.318
11748POPC  H12Y69815   4.334   5.868  12.194
11748POPC  C31369816   4.220   5.976  12.344
11748POPC  H13X69817   4.129   5.977  12.279
11748POPC  H13Y69818   4.224   6.074  12.395
11748POPC  C31469819   4.201   5.863  12.447
11748POPC  H14X69820   4.201   5.766  12.394
11748POPC  H14Y69821   4.101   5.876  12.495
11748POPC  C31569822   4.307   5.862  12.558
11748POPC  H15X69823   4.407   5.857  12.511
11748POPC  H15Y69824   4.294   5.771  12.621
11748POPC  C31669825   4.303   5.986  12.648
11748POPC  H16X69826   4.382   5.981  12.726
11748POPC  H16Y69827   4.204   5.995  12.698
11748POPC  H16Z69828   4.320   6.077  12.588
11749POPC     N69829   3.330   4.930  10.795
11749POPC   C1269830   3.431   4.815  10.779
11749POPC  H12A69831   3.530   4.848  10.810
11749POPC  H12B69832   3.436   4.789  10.674
11749POPC   C1369833   3.274   4.932  10.934
11749POPC  H13A69834   3.191   5.000  10.943
11749POPC  H13B69835   3.233   4.833  10.957
11749POPC  H13C69836   3.349   4.951  11.010
11749POPC   C1469837   3.392   5.061  10.762
11749POPC  H14A69838   3.467   5.087  10.835
11749POPC  H14B69839   3.438   5.059  10.663
11749POPC  H14C69840   3.315   5.138  10.757
11749POPC   C1569841   3.216   4.909  10.700
11749POPC  H15A69842   3.144   4.990  10.702
11749POPC  H15B69843   3.162   4.819  10.730
11749POPC  H15C69844   3.250   4.896  10.598
11749POPC   C1169845   3.404   4.682  10.856
11749POPC  H11A69846   3.405   4.704  10.965
11749POPC  H11B69847   3.493   4.616  10.841
11749POPC     P69848   3.155   4.597  10.898
11749POPC   O1369849   3.112   4.457  10.878
11749POPC   O1469850   3.060   4.702  10.856
11749POPC   O1269851   3.287   4.613  10.810
11749POPC   O1169852   3.209   4.626  11.042
11749POPC    C169853   3.168   4.569  11.165
11749POPC    HA69854   3.257   4.558  11.232
11749POPC    HB69855   3.124   4.468  11.151
11749POPC    C269856   3.067   4.662  11.237
11749POPC    HS69857   2.993   4.690  11.159
11749POPC   O2169858   3.135   4.777  11.293
11749POPC   C2169859   3.053   4.879  11.309
11749POPC   O2269860   2.939   4.885  11.266
11749POPC   C2269861   3.123   4.991  11.387
11749POPC   H2R69862   3.068   5.085  11.367
11749POPC   H2S69863   3.226   4.999  11.348
11749POPC    C369864   2.992   4.587  11.350
11749POPC    HX69865   2.937   4.502  11.306
11749POPC    HY69866   2.917   4.658  11.393
11749POPC   O3169867   3.087   4.538  11.447
11749POPC   C3169868   3.046   4.541  11.573
11749POPC   O3269869   2.935   4.574  11.610
11749POPC   C3269870   3.158   4.495  11.664
11749POPC   H2X69871   3.200   4.400  11.625
11749POPC   H2Y69872   3.110   4.476  11.762
11749POPC   C2369873   3.124   4.960  11.538
11749POPC   H3R69874   3.190   5.034  11.589
11749POPC   H3S69875   3.167   4.859  11.556
11749POPC   C2469876   2.984   4.970  11.601
11749POPC   H4R69877   2.913   4.903  11.548
11749POPC   H4S69878   2.946   5.074  11.591
11749POPC   C2569879   2.984   4.932  11.750
11749POPC   H5R69880   3.057   4.996  11.804
11749POPC   H5S69881   3.018   4.826  11.761
11749POPC   C2669882   2.846   4.946  11.815
11749POPC   H6R69883   2.773   4.875  11.770
11749POPC   H6S69884   2.809   5.050  11.796
11749POPC   C2769885   2.853   4.925  11.967
11749POPC   H7R69886   2.769   4.977  12.017
11749POPC   H7S69887   2.948   4.972  11.999
11749POPC   C2869888   2.850   4.776  12.008
11749POPC   H8R69889   2.893   4.719  11.923
11749POPC   H8S69890   2.743   4.746  12.016
11749POPC   C2969891   2.920   4.745  12.138
11749POPC   H9169892   2.907   4.820  12.217
11749POPC  C21069893   2.992   4.634  12.165
11749POPC  H10169894   3.033   4.621  12.266
11749POPC  C21169895   3.014   4.519  12.070
11749POPC  H11R69896   2.971   4.537  11.969
11749POPC  H11S69897   2.960   4.434  12.114
11749POPC  C21269898   3.157   4.464  12.049
11749POPC  H12R69899   3.229   4.546  12.063
11749POPC  H12S69900   3.168   4.428  11.945
11749POPC  C21369901   3.188   4.343  12.138
11749POPC  H13R69902   3.152   4.250  12.088
11749POPC  H13S69903   3.131   4.353  12.233
11749POPC  C21469904   3.338   4.330  12.169
11749POPC  H14R69905   3.390   4.305  12.074
11749POPC  H14S69906   3.351   4.246  12.241
11749POPC  C21569907   3.404   4.454  12.230
11749POPC  H15R69908   3.424   4.527  12.149
11749POPC  H15S69909   3.503   4.426  12.273
11749POPC  C21669910   3.321   4.521  12.339
11749POPC  H16R69911   3.215   4.531  12.308
11749POPC  H16S69912   3.355   4.625  12.354
11749POPC  C21769913   3.327   4.444  12.471
11749POPC  H17R69914   3.433   4.430  12.503
11749POPC  H17S69915   3.284   4.343  12.452
11749POPC  C21869916   3.249   4.514  12.580
11749POPC  H18R69917   3.147   4.542  12.545
11749POPC  H18S69918   3.301   4.608  12.610
11749POPC  H18T69919   3.239   4.448  12.669
11749POPC   C3369920   3.269   4.601  11.680
11749POPC   H3X69921   3.223   4.694  11.723
11749POPC   H3Y69922   3.313   4.627  11.581
11749POPC   C3469923   3.383   4.556  11.773
11749POPC   H4X69924   3.432   4.466  11.730
11749POPC   H4Y69925   3.342   4.526  11.872
11749POPC   C3569926   3.490   4.664  11.796
11749POPC   H5X69927   3.538   4.687  11.698
11749POPC   H5Y69928   3.569   4.621  11.862
11749POPC   C3669929   3.439   4.796  11.858
11749POPC   H6X69930   3.364   4.844  11.792
11749POPC   H6Y69931   3.525   4.867  11.865
11749POPC   C3769932   3.382   4.780  11.999
11749POPC   H7X69933   3.447   4.708  12.054
11749POPC   H7Y69934   3.279   4.737  11.993
11749POPC   C3869935   3.378   4.910  12.079
11749POPC   H8X69936   3.302   4.978  12.034
11749POPC   H8Y69937   3.478   4.960  12.072
11749POPC   C3969938   3.345   4.886  12.227
11749POPC   H9X69939   3.423   4.821  12.272
11749POPC   H9Y69940   3.248   4.832  12.232
11749POPC  C31069941   3.336   5.017  12.307
11749POPC  H10X69942   3.260   5.081  12.258
11749POPC  H10Y69943   3.433   5.071  12.301
11749POPC  C31169944   3.297   5.002  12.455
11749POPC  H11X69945   3.272   5.105  12.489
11749POPC  H11Y69946   3.384   4.971  12.516
11749POPC  C31269947   3.181   4.905  12.484
11749POPC  H12X69948   3.218   4.801  12.469
11749POPC  H12Y69949   3.099   4.920  12.411
11749POPC  C31369950   3.127   4.917  12.628
11749POPC  H13X69951   3.208   4.883  12.695
11749POPC  H13Y69952   3.043   4.846  12.641
11749POPC  C31469953   3.079   5.058  12.669
11749POPC  H14X69954   2.969   5.058  12.672
11749POPC  H14Y69955   3.108   5.134  12.594
11749POPC  C31569956   3.128   5.111  12.805
11749POPC  H15X69957   3.071   5.059  12.885
11749POPC  H15Y69958   3.099   5.219  12.808
11749POPC  C31669959   3.278   5.100  12.834
11749POPC  H16X69960   3.337   5.160  12.761
11749POPC  H16Y69961   3.312   4.995  12.829
11749POPC  H16Z69962   3.300   5.136  12.937
11750POPC     N69963   3.475   5.428  10.959
11750POPC   C1269964   3.497   5.412  10.809
11750POPC  H12A69965   3.403   5.383  10.763
11750POPC  H12B69966   3.571   5.336  10.790
11750POPC   C1369967   3.585   5.511  11.019
11750POPC  H13A69968   3.572   5.530  11.125
11750POPC  H13B69969   3.683   5.469  11.002
11750POPC  H13C69970   3.586   5.610  10.973
11750POPC   C1469971   3.346   5.503  10.977
11750POPC  H14A69972   3.259   5.443  10.953
11750POPC  H14B69973   3.336   5.542  11.077
11750POPC  H14C69974   3.345   5.589  10.910
11750POPC   C1569975   3.468   5.299  11.031
11750POPC  H15A69976   3.448   5.318  11.137
11750POPC  H15B69977   3.562   5.247  11.025
11750POPC  H15C69978   3.388   5.237  10.994
11750POPC   C1169979   3.543   5.540  10.735
11750POPC  H11A69980   3.551   5.518  10.627
11750POPC  H11B69981   3.647   5.564  10.768
11750POPC     P69982   3.503   5.794  10.773
11750POPC   O1369983   3.393   5.877  10.828
11750POPC   O1469984   3.569   5.834  10.647
11750POPC   O1269985   3.450   5.645  10.755
11750POPC   O1169986   3.614   5.774  10.888
11750POPC    C169987   3.734   5.854  10.886
11750POPC    HA69988   3.709   5.961  10.872
11750POPC    HB69989   3.797   5.824  10.800
11750POPC    C269990   3.826   5.847  11.015
11750POPC    HS69991   3.925   5.890  10.987
11750POPC   O2169992   3.843   5.710  11.057
11750POPC   C2169993   3.921   5.680  11.162
11750POPC   O2269994   3.979   5.756  11.235
11750POPC   C2269995   3.932   5.526  11.166
11750POPC   H2R69996   4.008   5.499  11.090
11750POPC   H2S69997   3.835   5.482  11.137
11750POPC    C369998   3.768   5.937  11.130
11750POPC    HX69999   3.795   6.041  11.101
11750POPC    HY70000   3.818   5.922  11.228
11750POPC   O3170001   3.624   5.931  11.144
11750POPC   C3170002   3.580   5.819  11.201
11750POPC   O3270003   3.648   5.734  11.254
11750POPC   C3270004   3.428   5.814  11.191
11750POPC   H2X70005   3.404   5.808  11.083
11750POPC   H2Y70006   3.386   5.908  11.231
11750POPC   C2370007   3.976   5.466  11.302
11750POPC   H3R70008   4.067   5.518  11.340
11750POPC   H3S70009   4.005   5.360  11.284
11750POPC   C2470010   3.866   5.468  11.408
11750POPC   H4R70011   3.874   5.375  11.470
11750POPC   H4S70012   3.765   5.469  11.361
11750POPC   C2570013   3.879   5.587  11.504
11750POPC   H5R70014   3.871   5.683  11.448
11750POPC   H5S70015   3.979   5.583  11.552
11750POPC   C2670016   3.771   5.587  11.613
11750POPC   H6R70017   3.753   5.483  11.648
11750POPC   H6S70018   3.678   5.626  11.569
11750POPC   C2770019   3.809   5.673  11.735
11750POPC   H7R70020   3.909   5.641  11.769
11750POPC   H7S70021   3.736   5.652  11.817
11750POPC   C2870022   3.811   5.824  11.705
11750POPC   H8R70023   3.874   5.843  11.615
11750POPC   H8S70024   3.864   5.873  11.790
11750POPC   C2970025   3.674   5.883  11.685
11750POPC   H9170026   3.636   5.881  11.582
11750POPC  C21070027   3.595   5.931  11.783
11750POPC  H10170028   3.496   5.972  11.757
11750POPC  C21170029   3.631   5.934  11.930
11750POPC  H11R70030   3.683   5.840  11.959
11750POPC  H11S70031   3.538   5.937  11.990
11750POPC  C21270032   3.722   6.052  11.969
11750POPC  H12R70033   3.672   6.148  11.944
11750POPC  H12S70034   3.817   6.046  11.911
11750POPC  C21370035   3.756   6.053  12.118
11750POPC  H13R70036   3.844   6.119  12.137
11750POPC  H13S70037   3.785   5.950  12.150
11750POPC  C21470038   3.638   6.104  12.200
11750POPC  H14R70039   3.543   6.065  12.157
11750POPC  H14S70040   3.635   6.214  12.190
11750POPC  C21570041   3.641   6.063  12.347
11750POPC  H15R70042   3.734   6.099  12.396
11750POPC  H15S70043   3.640   5.952  12.351
11750POPC  C21670044   3.518   6.119  12.420
11750POPC  H16R70045   3.427   6.080  12.370
11750POPC  H16S70046   3.517   6.230  12.411
11750POPC  C21770047   3.513   6.080  12.568
11750POPC  H17R70048   3.422   6.124  12.615
11750POPC  H17S70049   3.601   6.124  12.620
11750POPC  C21870050   3.514   5.929  12.589
11750POPC  H18R70051   3.431   5.883  12.530
11750POPC  H18S70052   3.500   5.903  12.695
11750POPC  H18T70053   3.610   5.886  12.554
11750POPC   C3370054   3.371   5.692  11.266
11750POPC   H3X70055   3.434   5.602  11.249
11750POPC   H3Y70056   3.270   5.668  11.226
11750POPC   C3470057   3.357   5.714  11.417
11750POPC   H4X70058   3.278   5.790  11.436
11750POPC   H4Y70059   3.452   5.754  11.459
11750POPC   C3570060   3.321   5.584  11.491
11750POPC   H5X70061   3.256   5.521  11.427
11750POPC   H5Y70062   3.264   5.608  11.584
11750POPC   C3670063   3.448   5.508  11.532
11750POPC   H6X70064   3.488   5.555  11.624
11750POPC   H6Y70065   3.524   5.521  11.452
11750POPC   C3770066   3.432   5.357  11.555
11750POPC   H7X70067   3.531   5.314  11.583
11750POPC   H7Y70068   3.401   5.309  11.459
11750POPC   C3870069   3.330   5.320  11.664
11750POPC   H8X70070   3.318   5.210  11.669
11750POPC   H8Y70071   3.232   5.361  11.634
11750POPC   C3970072   3.364   5.373  11.804
11750POPC   H9X70073   3.268   5.374  11.859
11750POPC   H9Y70074   3.402   5.477  11.803
11750POPC  C31070075   3.458   5.281  11.883
11750POPC  H10X70076   3.564   5.309  11.865
11750POPC  H10Y70077   3.444   5.177  11.845
11750POPC  C31170078   3.425   5.279  12.033
11750POPC  H11X70079   3.490   5.202  12.082
11750POPC  H11Y70080   3.320   5.246  12.045
11750POPC  C31270081   3.443   5.412  12.107
11750POPC  H12X70082   3.372   5.488  12.067
11750POPC  H12Y70083   3.546   5.450  12.089
11750POPC  C31370084   3.420   5.395  12.258
11750POPC  H13X70085   3.485   5.310  12.292
11750POPC  H13Y70086   3.315   5.365  12.276
11750POPC  C31470087   3.455   5.517  12.343
11750POPC  H14X70088   3.386   5.602  12.320
11750POPC  H14Y70089   3.558   5.550  12.317
11750POPC  C31570090   3.450   5.484  12.493
11750POPC  H15X70091   3.488   5.380  12.508
11750POPC  H15Y70092   3.344   5.486  12.527
11750POPC  C31670093   3.534   5.578  12.579
11750POPC  H16X70094   3.640   5.578  12.545
11750POPC  H16Y70095   3.531   5.548  12.686
11750POPC  H16Z70096   3.494   5.680  12.571
11751POPC     N70097   5.958   5.267  10.725
11751POPC   C1270098   6.019   5.311  10.857
11751POPC  H12A70099   6.103   5.375  10.834
11751POPC  H12B70100   6.055   5.224  10.910
11751POPC   C1370101   5.925   5.388  10.643
11751POPC  H13A70102   6.015   5.438  10.610
11751POPC  H13B70103   5.866   5.360  10.557
11751POPC  H13C70104   5.868   5.458  10.704
11751POPC   C1470105   6.053   5.184  10.646
11751POPC  H14A70106   6.141   5.242  10.618
11751POPC  H14B70107   6.091   5.098  10.700
11751POPC  H14C70108   6.005   5.146  10.556
11751POPC   C1570109   5.828   5.194  10.748
11751POPC  H15A70110   5.840   5.104  10.808
11751POPC  H15B70111   5.783   5.170  10.652
11751POPC  H15C70112   5.760   5.261  10.799
11751POPC   C1170113   5.927   5.393  10.952
11751POPC  H11A70114   5.987   5.422  11.042
11751POPC  H11B70115   5.843   5.329  10.986
11751POPC     P70116   5.853   5.646  10.946
11751POPC   O1370117   5.734   5.703  10.877
11751POPC   O1470118   5.980   5.721  10.933
11751POPC   O1270119   5.876   5.505  10.882
11751POPC   O1170120   5.826   5.605  11.096
11751POPC    C170121   5.718   5.535  11.157
11751POPC    HA70122   5.756   5.435  11.188
11751POPC    HB70123   5.633   5.518  11.087
11751POPC    C270124   5.665   5.604  11.289
11751POPC    HS70125   5.589   5.680  11.260
11751POPC   O2170126   5.775   5.666  11.359
11751POPC   C2170127   5.813   5.778  11.300
11751POPC   O2270128   5.752   5.837  11.213
11751POPC   C2270129   5.936   5.834  11.370
11751POPC   H2R70130   5.892   5.889  11.455
11751POPC   H2S70131   5.983   5.907  11.300
11751POPC    C370132   5.592   5.507  11.388
11751POPC    HX70133   5.651   5.412  11.391
11751POPC    HY70134   5.493   5.482  11.343
11751POPC   O3170135   5.570   5.564  11.520
11751POPC   C3170136   5.644   5.518  11.620
11751POPC   O3270137   5.729   5.432  11.612
11751POPC   C3270138   5.594   5.576  11.754
11751POPC   H2X70139   5.547   5.493  11.809
11751POPC   H2Y70140   5.516   5.652  11.735
11751POPC   C2370141   6.039   5.734  11.425
11751POPC   H3R70142   6.093   5.685  11.341
11751POPC   H3S70143   5.988   5.654  11.484
11751POPC   C2470144   6.136   5.808  11.519
11751POPC   H4R70145   6.080   5.844  11.608
11751POPC   H4S70146   6.174   5.897  11.464
11751POPC   C2570147   6.257   5.726  11.565
11751POPC   H5R70148   6.332   5.798  11.604
11751POPC   H5S70149   6.303   5.674  11.477
11751POPC   C2670150   6.227   5.625  11.676
11751POPC   H6R70151   6.144   5.559  11.644
11751POPC   H6S70152   6.194   5.680  11.767
11751POPC   C2770153   6.350   5.538  11.709
11751POPC   H7R70154   6.432   5.602  11.749
11751POPC   H7S70155   6.387   5.494  11.614
11751POPC   C2870156   6.323   5.423  11.807
11751POPC   H8R70157   6.415   5.361  11.815
11751POPC   H8S70158   6.243   5.357  11.764
11751POPC   C2970159   6.287   5.471  11.945
11751POPC   H9170160   6.372   5.494  12.011
11751POPC  C21070161   6.162   5.485  11.991
11751POPC  H10170162   6.147   5.524  12.093
11751POPC  C21170163   6.035   5.457  11.912
11751POPC  H11R70164   6.052   5.456  11.803
11751POPC  H11S70165   5.965   5.540  11.932
11751POPC  C21270166   5.965   5.325  11.949
11751POPC  H12R70167   6.037   5.241  11.938
11751POPC  H12S70168   5.880   5.307  11.879
11751POPC  C21370169   5.911   5.331  12.092
11751POPC  H13R70170   5.815   5.386  12.096
11751POPC  H13S70171   5.985   5.393  12.147
11751POPC  C21470172   5.900   5.198  12.167
11751POPC  H14R70173   5.958   5.118  12.116
11751POPC  H14S70174   5.793   5.167  12.169
11751POPC  C21570175   5.953   5.216  12.310
11751POPC  H15R70176   6.064   5.215  12.307
11751POPC  H15S70177   5.923   5.130  12.372
11751POPC  C21670178   5.908   5.349  12.374
11751POPC  H16R70179   5.813   5.384  12.328
11751POPC  H16S70180   5.988   5.424  12.354
11751POPC  C21770181   5.885   5.347  12.524
11751POPC  H17R70182   5.784   5.306  12.542
11751POPC  H17S70183   5.873   5.451  12.559
11751POPC  C21870184   5.994   5.271  12.603
11751POPC  H18R70185   6.004   5.166  12.567
11751POPC  H18S70186   5.965   5.266  12.710
11751POPC  H18T70187   6.092   5.319  12.594
11751POPC   C3370188   5.707   5.635  11.843
11751POPC   H3X70189   5.750   5.727  11.798
11751POPC   H3Y70190   5.788   5.560  11.851
11751POPC   C3470191   5.655   5.666  11.985
11751POPC   H4X70192   5.640   5.570  12.040
11751POPC   H4Y70193   5.554   5.713  11.973
11751POPC   C3570194   5.737   5.761  12.072
11751POPC   H5X70195   5.670   5.791  12.156
11751POPC   H5Y70196   5.764   5.855  12.019
11751POPC   C3670197   5.864   5.703  12.136
11751POPC   H6X70198   5.948   5.701  12.063
11751POPC   H6Y70199   5.844   5.600  12.171
11751POPC   C3770200   5.905   5.788  12.256
11751POPC   H7X70201   5.814   5.818  12.312
11751POPC   H7Y70202   5.955   5.880  12.218
11751POPC   C3870203   5.997   5.720  12.356
11751POPC   H8X70204   6.086   5.680  12.301
11751POPC   H8Y70205   5.947   5.633  12.404
11751POPC   C3970206   6.046   5.822  12.460
11751POPC   H9X70207   6.074   5.912  12.404
11751POPC   H9Y70208   6.139   5.785  12.506
11751POPC  C31070209   5.951   5.874  12.570
11751POPC  H10X70210   5.920   5.976  12.535
11751POPC  H10Y70211   6.006   5.891  12.665
11751POPC  C31170212   5.820   5.799  12.598
11751POPC  H11X70213   5.797   5.722  12.523
11751POPC  H11Y70214   5.744   5.879  12.590
11751POPC  C31270215   5.792   5.750  12.740
11751POPC  H12X70216   5.831   5.823  12.815
11751POPC  H12Y70217   5.843   5.653  12.757
11751POPC  C31370218   5.639   5.736  12.758
11751POPC  H13X70219   5.594   5.838  12.761
11751POPC  H13Y70220   5.617   5.687  12.855
11751POPC  C31470221   5.575   5.660  12.641
11751POPC  H14X70222   5.642   5.576  12.613
11751POPC  H14Y70223   5.566   5.726  12.552
11751POPC  C31570224   5.436   5.601  12.669
11751POPC  H15X70225   5.360   5.681  12.671
11751POPC  H15Y70226   5.436   5.552  12.769
11751POPC  C31670227   5.400   5.496  12.563
11751POPC  H16X70228   5.477   5.416  12.559
11751POPC  H16Y70229   5.391   5.542  12.463
11751POPC  H16Z70230   5.304   5.448  12.588
11752POPC     N70231   5.375   6.049  10.672
11752POPC   C1270232   5.304   5.943  10.755
11752POPC  H12A70233   5.359   5.850  10.750
11752POPC  H12B70234   5.205   5.927  10.712
11752POPC   C1370235   5.280   6.163  10.652
11752POPC  H13A70236   5.235   6.187  10.749
11752POPC  H13B70237   5.330   6.249  10.613
11752POPC  H13C70238   5.200   6.133  10.585
11752POPC   C1470239   5.494   6.099  10.748
11752POPC  H14A70240   5.549   6.176  10.695
11752POPC  H14B70241   5.459   6.139  10.844
11752POPC  H14C70242   5.561   6.018  10.773
11752POPC   C1570243   5.416   5.996  10.540
11752POPC  H15A70244   5.452   6.076  10.476
11752POPC  H15B70245   5.331   5.952  10.491
11752POPC  H15C70246   5.495   5.923  10.549
11752POPC   C1170247   5.281   5.975  10.905
11752POPC  H11A70248   5.380   5.969  10.958
11752POPC  H11B70249   5.217   5.897  10.951
11752POPC     P70250   5.261   6.201  11.034
11752POPC   O1370251   5.234   6.137  11.165
11752POPC   O1470252   5.210   6.336  11.007
11752POPC   O1270253   5.217   6.102  10.920
11752POPC   O1170254   5.417   6.209  11.007
11752POPC    C170255   5.489   6.326  11.049
11752POPC    HA70256   5.429   6.394  11.114
11752POPC    HB70257   5.521   6.385  10.960
11752POPC    C270258   5.612   6.286  11.132
11752POPC    HS70259   5.663   6.203  11.076
11752POPC   O2170260   5.564   6.241  11.261
11752POPC   C2170261   5.641   6.155  11.323
11752POPC   O2270262   5.751   6.119  11.281
11752POPC   C2270263   5.576   6.106  11.455
11752POPC   H2R70264   5.469   6.086  11.433
11752POPC   H2S70265   5.584   6.188  11.529
11752POPC    C370266   5.709   6.407  11.144
11752POPC    HX70267   5.731   6.445  11.042
11752POPC    HY70268   5.807   6.375  11.187
11752POPC   O3170269   5.644   6.514  11.216
11752POPC   C3170270   5.669   6.510  11.346
11752POPC   O3270271   5.762   6.452  11.399
11752POPC   C3270272   5.561   6.584  11.424
11752POPC   H2X70273   5.559   6.688  11.384
11752POPC   H2Y70274   5.591   6.587  11.530
11752POPC   C2370275   5.641   5.980  11.515
11752POPC   H3R70276   5.742   6.001  11.555
11752POPC   H3S70277   5.652   5.909  11.430
11752POPC   C2470278   5.564   5.897  11.620
11752POPC   H4R70279   5.628   5.808  11.637
11752POPC   H4S70280   5.468   5.862  11.575
11752POPC   C2570281   5.536   5.960  11.758
11752POPC   H5R70282   5.495   5.881  11.825
11752POPC   H5S70283   5.458   6.036  11.743
11752POPC   C2670284   5.654   6.030  11.828
11752POPC   H6R70285   5.692   6.101  11.753
11752POPC   H6S70286   5.734   5.957  11.851
11752POPC   C2770287   5.611   6.109  11.953
11752POPC   H7R70288   5.559   6.041  12.024
11752POPC   H7S70289   5.536   6.183  11.916
11752POPC   C2870290   5.714   6.198  12.028
11752POPC   H8R70291   5.653   6.273  12.084
11752POPC   H8S70292   5.775   6.256  11.957
11752POPC   C2970293   5.805   6.131  12.126
11752POPC   H9170294   5.913   6.133  12.102
11752POPC  C21070295   5.764   6.076  12.241
11752POPC  H10170296   5.839   6.033  12.309
11752POPC  C21170297   5.622   6.071  12.291
11752POPC  H11R70298   5.570   5.982  12.247
11752POPC  H11S70299   5.566   6.160  12.257
11752POPC  C21270300   5.609   6.061  12.444
11752POPC  H12R70301   5.628   5.956  12.469
11752POPC  H12S70302   5.504   6.080  12.473
11752POPC  C21370303   5.703   6.159  12.518
11752POPC  H13R70304   5.676   6.260  12.482
11752POPC  H13S70305   5.807   6.142  12.484
11752POPC  C21470306   5.712   6.154  12.672
11752POPC  H14R70307   5.817   6.175  12.701
11752POPC  H14S70308   5.688   6.052  12.708
11752POPC  C21570309   5.624   6.256  12.746
11752POPC  H15R70310   5.648   6.252  12.854
11752POPC  H15S70311   5.521   6.218  12.736
11752POPC  C21670312   5.630   6.403  12.698
11752POPC  H16R70313   5.545   6.455  12.748
11752POPC  H16S70314   5.610   6.411  12.590
11752POPC  C21770315   5.757   6.481  12.734
11752POPC  H17R70316   5.754   6.578  12.678
11752POPC  H17S70317   5.847   6.426  12.700
11752POPC  C21870318   5.766   6.514  12.883
11752POPC  H18R70319   5.766   6.419  12.942
11752POPC  H18S70320   5.679   6.574  12.915
11752POPC  H18T70321   5.859   6.570  12.905
11752POPC   C3370322   5.421   6.520  11.412
11752POPC   H3X70323   5.399   6.486  11.308
11752POPC   H3Y70324   5.347   6.597  11.437
11752POPC   C3470325   5.385   6.411  11.513
11752POPC   H4X70326   5.427   6.437  11.613
11752POPC   H4Y70327   5.429   6.314  11.481
11752POPC   C3570328   5.233   6.396  11.525
11752POPC   H5X70329   5.192   6.357  11.429
11752POPC   H5Y70330   5.188   6.497  11.542
11752POPC   C3670331   5.187   6.305  11.640
11752POPC   H6X70332   5.076   6.308  11.646
11752POPC   H6Y70333   5.226   6.345  11.737
11752POPC   C3770334   5.233   6.160  11.621
11752POPC   H7X70335   5.341   6.158  11.642
11752POPC   H7Y70336   5.221   6.132  11.513
11752POPC   C3870337   5.156   6.058  11.707
11752POPC   H8X70338   5.205   5.959  11.694
11752POPC   H8Y70339   5.053   6.049  11.666
11752POPC   C3970340   5.146   6.090  11.857
11752POPC   H9X70341   5.088   6.008  11.906
11752POPC   H9Y70342   5.090   6.185  11.872
11752POPC  C31070343   5.282   6.098  11.926
11752POPC  H10X70344   5.345   6.167  11.867
11752POPC  H10Y70345   5.328   5.997  11.923
11752POPC  C31170346   5.283   6.146  12.072
11752POPC  H11X70347   5.378   6.110  12.119
11752POPC  H11Y70348   5.200   6.100  12.130
11752POPC  C31270349   5.282   6.299  12.083
11752POPC  H12X70350   5.178   6.333  12.068
11752POPC  H12Y70351   5.345   6.342  12.002
11752POPC  C31370352   5.333   6.353  12.217
11752POPC  H13X70353   5.344   6.463  12.208
11752POPC  H13Y70354   5.435   6.313  12.237
11752POPC  C31470355   5.241   6.322  12.334
11752POPC  H14X70356   5.235   6.211  12.347
11752POPC  H14Y70357   5.138   6.358  12.312
11752POPC  C31570358   5.292   6.385  12.463
11752POPC  H15X70359   5.223   6.465  12.497
11752POPC  H15Y70360   5.390   6.435  12.442
11752POPC  C31670361   5.312   6.284  12.575
11752POPC  H16X70362   5.378   6.329  12.651
11752POPC  H16Y70363   5.362   6.193  12.537
11752POPC  H16Z70364   5.217   6.255  12.622
11753POPC     N70365   6.112   4.227  10.743
11753POPC   C1270366   6.085   4.166  10.879
11753POPC  H12A70367   6.025   4.234  10.937
11753POPC  H12B70368   6.181   4.158  10.932
11753POPC   C1370369   6.209   4.138  10.671
11753POPC  H13A70370   6.243   4.180  10.578
11753POPC  H13B70371   6.294   4.115  10.735
11753POPC  H13C70372   6.161   4.042  10.654
11753POPC   C1470373   5.988   4.235  10.662
11753POPC  H14A70374   5.915   4.299  10.711
11753POPC  H14B70375   6.009   4.274  10.562
11753POPC  H14C70376   5.947   4.135  10.654
11753POPC   C1570377   6.169   4.364  10.762
11753POPC  H15A70378   6.102   4.427  10.821
11753POPC  H15B70379   6.186   4.413  10.666
11753POPC  H15C70380   6.265   4.363  10.813
11753POPC   C1170381   6.023   4.024  10.889
11753POPC  H11A70382   5.931   4.020  10.826
11753POPC  H11B70383   5.989   4.008  10.994
11753POPC     P70384   6.234   3.886  10.947
11753POPC   O1370385   6.296   4.016  10.985
11753POPC   O1470386   6.319   3.786  10.878
11753POPC   O1270387   6.114   3.921  10.847
11753POPC   O1170388   6.164   3.820  11.075
11753POPC    C170389   6.220   3.700  11.132
11753POPC    HA70390   6.330   3.711  11.146
11753POPC    HB70391   6.198   3.614  11.064
11753POPC    C270392   6.160   3.662  11.272
11753POPC    HS70393   6.064   3.610  11.249
11753POPC   O2170394   6.141   3.779  11.353
11753POPC   C2170395   6.015   3.813  11.373
11753POPC   O2270396   5.920   3.778  11.306
11753POPC   C2270397   6.005   3.884  11.507
11753POPC   H2R70398   5.948   3.978  11.492
11753POPC   H2S70399   6.105   3.910  11.545
11753POPC    C370400   6.243   3.559  11.358
11753POPC    HX70401   6.284   3.479  11.293
11753POPC    HY70402   6.165   3.510  11.421
11753POPC   O3170403   6.341   3.615  11.451
11753POPC   C3170404   6.469   3.602  11.418
11753POPC   O3270405   6.507   3.564  11.308
11753POPC   C3270406   6.566   3.624  11.540
11753POPC   H2X70407   6.645   3.550  11.525
11753POPC   H2Y70408   6.510   3.592  11.628
11753POPC   C2370409   5.936   3.797  11.614
11753POPC   H3R70410   5.996   3.706  11.635
11753POPC   H3S70411   5.837   3.765  11.576
11753POPC   C2470412   5.916   3.875  11.745
11753POPC   H4R70413   5.825   3.835  11.794
11753POPC   H4S70414   5.900   3.983  11.723
11753POPC   C2570415   6.032   3.860  11.843
11753POPC   H5R70416   6.024   3.933  11.926
11753POPC   H5S70417   6.125   3.889  11.791
11753POPC   C2670418   6.040   3.718  11.901
11753POPC   H6R70419   6.127   3.664  11.857
11753POPC   H6S70420   5.949   3.660  11.873
11753POPC   C2770421   6.052   3.722  12.054
11753POPC   H7R70422   5.953   3.748  12.096
11753POPC   H7S70423   6.123   3.803  12.082
11753POPC   C2870424   6.100   3.590  12.115
11753POPC   H8R70425   6.202   3.569  12.078
11753POPC   H8S70426   6.035   3.508  12.079
11753POPC   C2970427   6.095   3.599  12.266
11753POPC   H9170428   6.003   3.561  12.313
11753POPC  C21070429   6.189   3.657  12.343
11753POPC  H10170430   6.174   3.662  12.452
11753POPC  C21170431   6.314   3.723  12.291
11753POPC  H11R70432   6.299   3.832  12.284
11753POPC  H11S70433   6.337   3.694  12.188
11753POPC  C21270434   6.437   3.694  12.377
11753POPC  H12R70435   6.527   3.725  12.318
11753POPC  H12S70436   6.448   3.586  12.397
11753POPC  C21370437   6.442   3.775  12.508
11753POPC  H13R70438   6.537   3.748  12.559
11753POPC  H13S70439   6.358   3.747  12.574
11753POPC  C21470440   6.440   3.926  12.480
11753POPC  H14R70441   6.338   3.955  12.450
11753POPC  H14S70442   6.510   3.945  12.396
11753POPC  C21570443   6.480   4.015  12.597
11753POPC  H15R70444   6.585   3.996  12.626
11753POPC  H15S70445   6.415   3.995  12.684
11753POPC  C21670446   6.472   4.163  12.560
11753POPC  H16R70447   6.471   4.223  12.653
11753POPC  H16S70448   6.379   4.185  12.502
11753POPC  C21770449   6.595   4.205  12.484
11753POPC  H17R70450   6.606   4.153  12.387
11753POPC  H17S70451   6.685   4.177  12.545
11753POPC  C21870452   6.600   4.354  12.465
11753POPC  H18R70453   6.529   4.393  12.388
11753POPC  H18S70454   6.704   4.371  12.435
11753POPC  H18T70455   6.586   4.407  12.560
11753POPC   C3370456   6.630   3.769  11.554
11753POPC   H3X70457   6.551   3.843  11.545
11753POPC   H3Y70458   6.687   3.776  11.459
11753POPC   C3470459   6.730   3.817  11.668
11753POPC   H4X70460   6.781   3.907  11.628
11753POPC   H4Y70461   6.807   3.737  11.673
11753POPC   C3570462   6.702   3.858  11.819
11753POPC   H5X70463   6.801   3.844  11.869
11753POPC   H5Y70464   6.638   3.786  11.870
11753POPC   C3670465   6.657   4.002  11.861
11753POPC   H6X70466   6.555   4.015  11.827
11753POPC   H6Y70467   6.719   4.079  11.811
11753POPC   C3770468   6.627   4.039  12.011
11753POPC   H7X70469   6.705   4.110  12.046
11753POPC   H7Y70470   6.633   3.948  12.074
11753POPC   C3870471   6.485   4.105  12.030
11753POPC   H8X70472   6.406   4.033  12.001
11753POPC   H8Y70473   6.477   4.191  11.960
11753POPC   C3970474   6.446   4.154  12.172
11753POPC   H9X70475   6.517   4.236  12.196
11753POPC   H9Y70476   6.464   4.072  12.244
11753POPC  C31070477   6.302   4.210  12.196
11753POPC  H10X70478   6.271   4.275  12.112
11753POPC  H10Y70479   6.311   4.276  12.285
11753POPC  C31170480   6.187   4.110  12.232
11753POPC  H11X70481   6.231   4.019  12.277
11753POPC  H11Y70482   6.134   4.079  12.139
11753POPC  C31270483   6.086   4.167  12.335
11753POPC  H12X70484   6.048   4.261  12.290
11753POPC  H12Y70485   6.141   4.195  12.426
11753POPC  C31370486   5.962   4.083  12.377
11753POPC  H13X70487   5.905   4.054  12.287
11753POPC  H13Y70488   5.895   4.150  12.436
11753POPC  C31470489   5.990   3.959  12.465
11753POPC  H14X70490   6.058   3.987  12.547
11753POPC  H14Y70491   6.042   3.884  12.401
11753POPC  C31570492   5.865   3.890  12.527
11753POPC  H15X70493   5.898   3.792  12.569
11753POPC  H15Y70494   5.790   3.868  12.448
11753POPC  C31670495   5.795   3.966  12.640
11753POPC  H16X70496   5.865   3.977  12.726
11753POPC  H16Y70497   5.707   3.911  12.677
11753POPC  H16Z70498   5.762   4.067  12.608
11754POPC     N70499   3.656   3.314  10.641
11754POPC   C1270500   3.717   3.222  10.745
11754POPC  H12A70501   3.824   3.224  10.736
11754POPC  H12B70502   3.682   3.121  10.730
11754POPC   C1370503   3.714   3.452  10.653
11754POPC  H13A70504   3.816   3.454  10.617
11754POPC  H13B70505   3.657   3.524  10.595
11754POPC  H13C70506   3.714   3.482  10.758
11754POPC   C1470507   3.684   3.261  10.504
11754POPC  H14A70508   3.640   3.324  10.428
11754POPC  H14B70509   3.791   3.254  10.486
11754POPC  H14C70510   3.645   3.160  10.492
11754POPC   C1570511   3.508   3.324  10.666
11754POPC  H15A70512   3.463   3.226  10.668
11754POPC  H15B70513   3.458   3.391  10.598
11754POPC  H15C70514   3.492   3.359  10.769
11754POPC   C1170515   3.681   3.253  10.891
11754POPC  H11A70516   3.689   3.362  10.906
11754POPC  H11B70517   3.755   3.200  10.956
11754POPC     P70518   3.503   3.237  11.069
11754POPC   O1370519   3.610   3.192  11.160
11754POPC   O1470520   3.365   3.188  11.095
11754POPC   O1270521   3.547   3.208  10.919
11754POPC   O1170522   3.500   3.395  11.065
11754POPC    C170523   3.479   3.475  11.181
11754POPC    HA70524   3.488   3.419  11.277
11754POPC    HB70525   3.377   3.519  11.176
11754POPC    C270526   3.584   3.588  11.178
11754POPC    HS70527   3.601   3.614  11.071
11754POPC   O2170528   3.704   3.536  11.239
11754POPC   C2170529   3.801   3.486  11.158
11754POPC   O2270530   3.809   3.502  11.038
11754POPC   C2270531   3.917   3.431  11.242
11754POPC   H2R70532   3.902   3.457  11.349
11754POPC   H2S70533   4.009   3.483  11.206
11754POPC    C370534   3.534   3.723  11.248
11754POPC    HX70535   3.442   3.747  11.189
11754POPC    HY70536   3.610   3.801  11.229
11754POPC   O3170537   3.503   3.724  11.391
11754POPC   C3170538   3.414   3.822  11.431
11754POPC   O3270539   3.368   3.905  11.354
11754POPC   C3270540   3.392   3.824  11.587
11754POPC   H2X70541   3.435   3.921  11.617
11754POPC   H2Y70542   3.457   3.747  11.627
11754POPC   C2370543   3.935   3.279  11.231
11754POPC   H3R70544   4.040   3.252  11.253
11754POPC   H3S70545   3.911   3.244  11.128
11754POPC   C2470546   3.843   3.210  11.332
11754POPC   H4R70547   3.820   3.109  11.295
11754POPC   H4S70548   3.745   3.263  11.338
11754POPC   C2570549   3.905   3.204  11.472
11754POPC   H5R70550   3.890   3.301  11.524
11754POPC   H5S70551   4.015   3.188  11.461
11754POPC   C2670552   3.851   3.088  11.557
11754POPC   H6R70553   3.910   3.085  11.651
11754POPC   H6S70554   3.871   2.992  11.507
11754POPC   C2770555   3.701   3.095  11.588
11754POPC   H7R70556   3.667   2.994  11.618
11754POPC   H7S70557   3.642   3.123  11.498
11754POPC   C2870558   3.680   3.195  11.702
11754POPC   H8R70559   3.672   3.295  11.654
11754POPC   H8S70560   3.775   3.198  11.760
11754POPC   C2970561   3.564   3.165  11.793
11754POPC   H9170562   3.479   3.110  11.750
11754POPC  C21070563   3.564   3.202  11.921
11754POPC  H10170564   3.476   3.184  11.985
11754POPC  C21170565   3.680   3.277  11.983
11754POPC  H11R70566   3.695   3.374  11.931
11754POPC  H11S70567   3.774   3.219  11.974
11754POPC  C21270568   3.658   3.305  12.132
11754POPC  H12R70569   3.651   3.210  12.188
11754POPC  H12S70570   3.561   3.358  12.141
11754POPC  C21370571   3.767   3.395  12.191
11754POPC  H13R70572   3.803   3.461  12.109
11754POPC  H13S70573   3.855   3.336  12.224
11754POPC  C21470574   3.720   3.488  12.304
11754POPC  H14R70575   3.718   3.439  12.403
11754POPC  H14S70576   3.616   3.522  12.282
11754POPC  C21570577   3.804   3.614  12.307
11754POPC  H15R70578   3.792   3.655  12.204
11754POPC  H15S70579   3.912   3.592  12.323
11754POPC  C21670580   3.751   3.722  12.402
11754POPC  H16R70581   3.645   3.726  12.373
11754POPC  H16S70582   3.800   3.819  12.380
11754POPC  C21770583   3.754   3.693  12.552
11754POPC  H17R70584   3.682   3.611  12.574
11754POPC  H17S70585   3.719   3.783  12.608
11754POPC  C21870586   3.892   3.654  12.600
11754POPC  H18R70587   3.965   3.736  12.586
11754POPC  H18S70588   3.926   3.567  12.539
11754POPC  H18T70589   3.890   3.624  12.706
11754POPC   C3370590   3.248   3.818  11.654
11754POPC   H3X70591   3.174   3.803  11.572
11754POPC   H3Y70592   3.230   3.919  11.697
11754POPC   C3470593   3.208   3.717  11.769
11754POPC   H4X70594   3.259   3.622  11.753
11754POPC   H4Y70595   3.100   3.696  11.757
11754POPC   C3570596   3.233   3.755  11.920
11754POPC   H5X70597   3.171   3.842  11.952
11754POPC   H5Y70598   3.334   3.796  11.926
11754POPC   C3670599   3.212   3.645  12.032
11754POPC   H6X70600   3.106   3.656  12.055
11754POPC   H6Y70601   3.251   3.676  12.130
11754POPC   C3770602   3.264   3.499  12.015
11754POPC   H7X70603   3.368   3.511  11.988
11754POPC   H7Y70604   3.213   3.451  11.929
11754POPC   C3870605   3.271   3.393  12.132
11754POPC   H8X70606   3.340   3.313  12.098
11754POPC   H8Y70607   3.173   3.344  12.144
11754POPC   C3970608   3.322   3.437  12.272
11754POPC   H9X70609   3.285   3.539  12.293
11754POPC   H9Y70610   3.432   3.447  12.270
11754POPC  C31070611   3.283   3.345  12.391
11754POPC  H10X70612   3.175   3.321  12.386
11754POPC  H10Y70613   3.300   3.404  12.484
11754POPC  C31170614   3.364   3.214  12.411
11754POPC  H11X70615   3.353   3.148  12.322
11754POPC  H11Y70616   3.322   3.159  12.498
11754POPC  C31270617   3.511   3.241  12.440
11754POPC  H12X70618   3.522   3.307  12.529
11754POPC  H12Y70619   3.551   3.298  12.354
11754POPC  C31370620   3.601   3.118  12.456
11754POPC  H13X70621   3.592   3.054  12.366
11754POPC  H13Y70622   3.571   3.058  12.544
11754POPC  C31470623   3.748   3.160  12.470
11754POPC  H14X70624   3.774   3.234  12.392
11754POPC  H14Y70625   3.814   3.075  12.447
11754POPC  C31570626   3.784   3.219  12.607
11754POPC  H15X70627   3.741   3.157  12.688
11754POPC  H15Y70628   3.737   3.320  12.615
11754POPC  C31670629   3.934   3.231  12.627
11754POPC  H16X70630   3.980   3.270  12.534
11754POPC  H16Y70631   3.981   3.133  12.649
11754POPC  H16Z70632   3.957   3.301  12.710
11755POPC     N70633   4.909   3.102  10.908
11755POPC   C1270634   4.971   2.970  10.953
11755POPC  H12A70635   4.926   2.934  11.044
11755POPC  H12B70636   5.076   2.989  10.975
11755POPC   C1370637   5.011   3.211  10.917
11755POPC  H13A70638   5.046   3.227  11.017
11755POPC  H13B70639   5.099   3.182  10.858
11755POPC  H13C70640   4.975   3.305  10.877
11755POPC   C1470641   4.869   3.094  10.763
11755POPC  H14A70642   4.857   3.192  10.719
11755POPC  H14B70643   4.949   3.044  10.707
11755POPC  H14C70644   4.780   3.035  10.747
11755POPC   C1570645   4.795   3.142  10.995
11755POPC  H15A70646   4.755   3.237  10.959
11755POPC  H15B70647   4.829   3.164  11.095
11755POPC  H15C70648   4.717   3.067  10.998
11755POPC   C1170649   4.974   2.854  10.849
11755POPC  H11A70650   4.872   2.841  10.812
11755POPC  H11B70651   5.003   2.757  10.896
11755POPC     P70652   5.214   2.907  10.780
11755POPC   O1370653   5.224   3.048  10.825
11755POPC   O1470654   5.302   2.867  10.670
11755POPC   O1270655   5.061   2.882  10.739
11755POPC   O1170656   5.224   2.809  10.907
11755POPC    C170657   5.327   2.806  11.007
11755POPC    HA70658   5.356   2.909  11.036
11755POPC    HB70659   5.415   2.755  10.962
11755POPC    C270660   5.297   2.728  11.143
11755POPC    HS70661   5.382   2.658  11.161
11755POPC   O2170662   5.176   2.651  11.131
11755POPC   C2170663   5.107   2.610  11.236
11755POPC   O2270664   5.150   2.588  11.348
11755POPC   C2270665   4.961   2.614  11.190
11755POPC   H2R70666   4.936   2.513  11.153
11755POPC   H2S70667   4.955   2.685  11.105
11755POPC    C370668   5.290   2.827  11.266
11755POPC    HX70669   5.384   2.886  11.267
11755POPC    HY70670   5.288   2.771  11.362
11755POPC   O3170671   5.176   2.916  11.256
11755POPC   C3170672   5.180   3.023  11.335
11755POPC   O3270673   5.260   3.042  11.424
11755POPC   C3270674   5.077   3.123  11.282
11755POPC   H2X70675   4.995   3.065  11.234
11755POPC   H2Y70676   5.129   3.182  11.204
11755POPC   C2370677   4.858   2.661  11.295
11755POPC   H3R70678   4.854   2.587  11.377
11755POPC   H3S70679   4.759   2.664  11.246
11755POPC   C2470680   4.880   2.797  11.362
11755POPC   H4R70681   4.888   2.874  11.283
11755POPC   H4S70682   4.976   2.798  11.417
11755POPC   C2570683   4.759   2.829  11.454
11755POPC   H5R70684   4.674   2.764  11.423
11755POPC   H5S70685   4.724   2.932  11.434
11755POPC   C2670686   4.774   2.810  11.608
11755POPC   H6R70687   4.737   2.709  11.634
11755POPC   H6S70688   4.706   2.881  11.659
11755POPC   C2770689   4.915   2.827  11.668
11755POPC   H7R70690   4.941   2.933  11.655
11755POPC   H7S70691   4.991   2.767  11.613
11755POPC   C2870692   4.930   2.791  11.818
11755POPC   H8R70693   4.922   2.682  11.830
11755POPC   H8S70694   4.846   2.839  11.875
11755POPC   C2970695   5.065   2.843  11.863
11755POPC   H9170696   5.109   2.913  11.791
11755POPC  C21070697   5.141   2.813  11.971
11755POPC  H10170698   5.236   2.866  11.980
11755POPC  C21170699   5.115   2.717  12.084
11755POPC  H11R70700   5.108   2.613  12.045
11755POPC  H11S70701   5.018   2.739  12.135
11755POPC  C21270702   5.230   2.722  12.188
11755POPC  H12R70703   5.228   2.819  12.242
11755POPC  H12S70704   5.327   2.714  12.135
11755POPC  C21370705   5.226   2.607  12.291
11755POPC  H13R70706   5.206   2.512  12.237
11755POPC  H13S70707   5.142   2.624  12.362
11755POPC  C21470708   5.357   2.590  12.371
11755POPC  H14R70709   5.442   2.573  12.301
11755POPC  H14S70710   5.347   2.498  12.433
11755POPC  C21570711   5.391   2.708  12.464
11755POPC  H15R70712   5.302   2.729  12.526
11755POPC  H15S70713   5.414   2.799  12.405
11755POPC  C21670714   5.510   2.676  12.556
11755POPC  H16R70715   5.604   2.682  12.498
11755POPC  H16S70716   5.499   2.571  12.592
11755POPC  C21770717   5.527   2.763  12.682
11755POPC  H17R70718   5.593   2.705  12.749
11755POPC  H17S70719   5.430   2.775  12.734
11755POPC  C21870720   5.594   2.899  12.663
11755POPC  H18R70721   5.692   2.889  12.612
11755POPC  H18S70722   5.610   2.949  12.761
11755POPC  H18T70723   5.528   2.964  12.603
11755POPC   C3370724   5.016   3.218  11.388
11755POPC   H3X70725   4.950   3.292  11.338
11755POPC   H3Y70726   5.096   3.273  11.442
11755POPC   C3470727   4.934   3.133  11.485
11755POPC   H4X70728   5.008   3.069  11.537
11755POPC   H4Y70729   4.870   3.067  11.423
11755POPC   C3570730   4.842   3.198  11.590
11755POPC   H5X70731   4.786   3.117  11.642
11755POPC   H5Y70732   4.766   3.263  11.541
11755POPC   C3670733   4.915   3.277  11.699
11755POPC   H6X70734   4.840   3.325  11.766
11755POPC   H6Y70735   4.975   3.358  11.652
11755POPC   C3770736   5.005   3.189  11.787
11755POPC   H7X70737   5.064   3.117  11.727
11755POPC   H7Y70738   4.941   3.130  11.857
11755POPC   C3870739   5.107   3.274  11.864
11755POPC   H8X70740   5.056   3.367  11.897
11755POPC   H8Y70741   5.189   3.302  11.794
11755POPC   C3970742   5.166   3.205  11.988
11755POPC   H9X70743   5.255   3.262  12.022
11755POPC   H9Y70744   5.200   3.103  11.962
11755POPC  C31070745   5.065   3.201  12.102
11755POPC  H10X70746   4.977   3.140  12.073
11755POPC  H10Y70747   5.029   3.305  12.123
11755POPC  C31170748   5.124   3.144  12.230
11755POPC  H11X70749   5.221   3.193  12.254
11755POPC  H11Y70750   5.146   3.036  12.213
11755POPC  C31270751   5.028   3.160  12.347
11755POPC  H12X70752   4.922   3.143  12.315
11755POPC  H12Y70753   5.035   3.264  12.385
11755POPC  C31370754   5.062   3.062  12.458
11755POPC  H13X70755   5.029   3.101  12.556
11755POPC  H13Y70756   5.173   3.054  12.459
11755POPC  C31470757   5.004   2.921  12.437
11755POPC  H14X70758   5.078   2.847  12.476
11755POPC  H14Y70759   4.991   2.899  12.329
11755POPC  C31570760   4.873   2.902  12.512
11755POPC  H15X70761   4.790   2.953  12.458
11755POPC  H15Y70762   4.882   2.949  12.612
11755POPC  C31670763   4.839   2.755  12.534
11755POPC  H16X70764   4.825   2.702  12.437
11755POPC  H16Y70765   4.747   2.747  12.594
11755POPC  H16Z70766   4.921   2.706  12.590
11756POPC     N70767   3.108   4.069  10.820
11756POPC   C1270768   3.087   4.012  10.960
11756POPC  H12A70769   3.002   4.060  11.006
11756POPC  H12B70770   3.175   4.034  11.021
11756POPC   C1370771   2.978   4.100  10.753
11756POPC  H13A70772   2.990   4.110  10.645
11756POPC  H13B70773   2.909   4.018  10.769
11756POPC  H13C70774   2.933   4.191  10.791
11756POPC   C1470775   3.190   4.192  10.830
11756POPC  H14A70776   3.216   4.230  10.732
11756POPC  H14B70777   3.134   4.271  10.880
11756POPC  H14C70778   3.280   4.176  10.886
11756POPC   C1570779   3.181   3.972  10.733
11756POPC  H15A70780   3.267   3.930  10.783
11756POPC  H15B70781   3.212   4.017  10.639
11756POPC  H15C70782   3.118   3.887  10.709
11756POPC   C1170783   3.062   3.862  10.976
11756POPC  H11A70784   3.068   3.837  11.085
11756POPC  H11B70785   3.145   3.805  10.926
11756POPC     P70786   2.907   3.674  10.906
11756POPC   O1370787   3.010   3.629  10.809
11756POPC   O1470788   2.765   3.654  10.867
11756POPC   O1270789   2.933   3.830  10.926
11756POPC   O1170790   2.936   3.617  11.053
11756POPC    C170791   2.847   3.660  11.158
11756POPC    HA70792   2.764   3.587  11.163
11756POPC    HB70793   2.795   3.756  11.133
11756POPC    C270794   2.912   3.667  11.302
11756POPC    HS70795   2.830   3.660  11.377
11756POPC   O2170796   2.987   3.790  11.324
11756POPC   C2170797   2.913   3.901  11.316
11756POPC   O2270798   2.793   3.907  11.299
11756POPC   C2270799   2.998   4.026  11.339
11756POPC   H2R70800   2.988   4.091  11.250
11756POPC   H2S70801   3.104   3.996  11.351
11756POPC    C370802   3.006   3.543  11.323
11756POPC    HX70803   3.083   3.551  11.243
11756POPC    HY70804   2.945   3.454  11.295
11756POPC   O3170805   3.061   3.518  11.457
11756POPC   C3170806   3.195   3.541  11.462
11756POPC   O3270807   3.252   3.611  11.382
11756POPC   C3270808   3.271   3.454  11.570
11756POPC   H2X70809   3.272   3.354  11.521
11756POPC   H2Y70810   3.208   3.445  11.660
11756POPC   C2370811   2.947   4.100  11.466
11756POPC   H3R70812   2.837   4.116  11.462
11756POPC   H3S70813   2.995   4.201  11.472
11756POPC   C2470814   2.986   4.019  11.589
11756POPC   H4R70815   3.097   4.019  11.590
11756POPC   H4S70816   2.952   3.914  11.577
11756POPC   C2570817   2.936   4.069  11.725
11756POPC   H5R70818   2.832   4.106  11.717
11756POPC   H5S70819   3.001   4.155  11.755
11756POPC   C2670820   2.947   3.958  11.832
11756POPC   H6R70821   2.955   4.004  11.932
11756POPC   H6S70822   3.042   3.906  11.813
11756POPC   C2770823   2.832   3.854  11.829
11756POPC   H7R70824   2.827   3.808  11.728
11756POPC   H7S70825   2.737   3.911  11.841
11756POPC   C2870826   2.836   3.743  11.938
11756POPC   H8R70827   2.730   3.721  11.964
11756POPC   H8S70828   2.883   3.785  12.030
11756POPC   C2970829   2.901   3.613  11.895
11756POPC   H9170830   2.916   3.607  11.787
11756POPC  C21070831   2.943   3.507  11.969
11756POPC  H10170832   2.992   3.425  11.913
11756POPC  C21170833   2.941   3.480  12.119
11756POPC  H11R70834   3.040   3.507  12.157
11756POPC  H11S70835   2.943   3.372  12.140
11756POPC  C21270836   2.838   3.546  12.213
11756POPC  H12R70837   2.738   3.501  12.197
11756POPC  H12S70838   2.831   3.654  12.189
11756POPC  C21370839   2.878   3.535  12.361
11756POPC  H13R70840   2.878   3.428  12.393
11756POPC  H13S70841   2.802   3.589  12.422
11756POPC  C21470842   3.017   3.596  12.388
11756POPC  H14R70843   3.023   3.693  12.334
11756POPC  H14S70844   3.092   3.529  12.344
11756POPC  C21570845   3.059   3.616  12.533
11756POPC  H15R70846   3.149   3.555  12.556
11756POPC  H15S70847   2.983   3.577  12.601
11756POPC  C21670848   3.086   3.763  12.562
11756POPC  H16R70849   3.155   3.800  12.483
11756POPC  H16S70850   3.137   3.777  12.659
11756POPC  C21770851   2.958   3.847  12.559
11756POPC  H17R70852   2.890   3.816  12.477
11756POPC  H17S70853   2.986   3.950  12.536
11756POPC  C21870854   2.882   3.850  12.690
11756POPC  H18R70855   2.834   3.753  12.707
11756POPC  H18S70856   2.803   3.927  12.687
11756POPC  H18T70857   2.948   3.873  12.777
11756POPC   C3370858   3.424   3.484  11.606
11756POPC   H3X70859   3.465   3.566  11.546
11756POPC   H3Y70860   3.477   3.394  11.566
11756POPC   C3470861   3.478   3.493  11.756
11756POPC   H4X70862   3.573   3.436  11.757
11756POPC   H4Y70863   3.406   3.435  11.815
11756POPC   C3570864   3.528   3.628  11.823
11756POPC   H5X70865   3.445   3.696  11.822
11756POPC   H5Y70866   3.602   3.676  11.757
11756POPC   C3670867   3.587   3.632  11.970
11756POPC   H6X70868   3.691   3.596  11.958
11756POPC   H6Y70869   3.545   3.555  12.035
11756POPC   C3770870   3.582   3.769  12.051
11756POPC   H7X70871   3.552   3.848  11.979
11756POPC   H7Y70872   3.682   3.796  12.088
11756POPC   C3870873   3.475   3.767  12.167
11756POPC   H8X70874   3.467   3.661  12.200
11756POPC   H8Y70875   3.387   3.800  12.111
11756POPC   C3970876   3.446   3.854  12.296
11756POPC   H9X70877   3.524   3.866  12.371
11756POPC   H9Y70878   3.366   3.792  12.345
11756POPC  C31070879   3.376   3.992  12.285
11756POPC  H10X70880   3.294   3.989  12.211
11756POPC  H10Y70881   3.452   4.064  12.249
11756POPC  C31170882   3.324   4.042  12.423
11756POPC  H11X70883   3.391   4.124  12.458
11756POPC  H11Y70884   3.332   3.960  12.498
11756POPC  C31270885   3.179   4.094  12.424
11756POPC  H12X70886   3.111   4.013  12.390
11756POPC  H12Y70887   3.172   4.174  12.347
11756POPC  C31370888   3.130   4.154  12.559
11756POPC  H13X70889   3.212   4.216  12.601
11756POPC  H13Y70890   3.112   4.076  12.635
11756POPC  C31470891   3.006   4.247  12.544
11756POPC  H14X70892   2.991   4.267  12.435
11756POPC  H14Y70893   3.028   4.344  12.592
11756POPC  C31570894   2.872   4.198  12.603
11756POPC  H15X70895   2.848   4.098  12.561
11756POPC  H15Y70896   2.791   4.265  12.567
11756POPC  C31670897   2.867   4.195  12.756
11756POPC  H16X70898   2.781   4.135  12.792
11756POPC  H16Y70899   2.857   4.298  12.796
11756POPC  H16Z70900   2.960   4.150  12.797
11757POPC     N70901   5.855   3.397  10.714
11757POPC   C1270902   5.988   3.373  10.789
11757POPC  H12A70903   6.061   3.447  10.762
11757POPC  H12B70904   6.028   3.275  10.761
11757POPC   C1370905   5.776   3.505  10.777
11757POPC  H13A70906   5.673   3.503  10.742
11757POPC  H13B70907   5.773   3.490  10.886
11757POPC  H13C70908   5.819   3.603  10.761
11757POPC   C1470909   5.879   3.427  10.569
11757POPC  H14A70910   5.945   3.353  10.524
11757POPC  H14B70911   5.786   3.422  10.514
11757POPC  H14C70912   5.923   3.525  10.556
11757POPC   C1570913   5.776   3.270  10.715
11757POPC  H15A70914   5.757   3.240  10.818
11757POPC  H15B70915   5.834   3.190  10.670
11757POPC  H15C70916   5.681   3.277  10.663
11757POPC   C1170917   5.986   3.368  10.944
11757POPC  H11A70918   5.938   3.459  10.987
11757POPC  H11B70919   6.091   3.368  10.984
11757POPC     P70920   5.986   3.110  10.986
11757POPC   O1370921   6.089   3.107  11.093
11757POPC   O1470922   6.033   3.088  10.847
11757POPC   O1270923   5.916   3.252  10.988
11757POPC   O1170924   5.867   3.012  11.018
11757POPC    C170925   5.760   2.984  10.928
11757POPC    HA70926   5.786   2.894  10.869
11757POPC    HB70927   5.741   3.066  10.856
11757POPC    C270928   5.628   2.956  11.005
11757POPC    HS70929   5.557   2.913  10.932
11757POPC   O2170930   5.570   3.073  11.065
11757POPC   C2170931   5.528   3.171  10.989
11757POPC   O2270932   5.509   3.165  10.869
11757POPC   C2270933   5.507   3.295  11.075
11757POPC   H2R70934   5.431   3.271  11.153
11757POPC   H2S70935   5.467   3.376  11.011
11757POPC    C370936   5.652   2.850  11.119
11757POPC    HX70937   5.689   2.758  11.069
11757POPC    HY70938   5.556   2.825  11.168
11757POPC   O3170939   5.749   2.891  11.217
11757POPC   C3170940   5.715   2.995  11.295
11757POPC   O3270941   5.601   3.031  11.319
11757POPC   C3270942   5.838   3.046  11.367
11757POPC   H2X70943   5.926   3.005  11.319
11757POPC   H2Y70944   5.829   3.017  11.474
11757POPC   C2370945   5.637   3.342  11.146
11757POPC   H3R70946   5.726   3.327  11.082
11757POPC   H3S70947   5.649   3.278  11.235
11757POPC   C2470948   5.629   3.491  11.182
11757POPC   H4R70949   5.521   3.505  11.199
11757POPC   H4S70950   5.652   3.554  11.092
11757POPC   C2570951   5.708   3.548  11.304
11757POPC   H5R70952   5.664   3.642  11.341
11757POPC   H5S70953   5.809   3.575  11.265
11757POPC   C2670954   5.726   3.450  11.420
11757POPC   H6R70955   5.829   3.416  11.397
11757POPC   H6S70956   5.650   3.370  11.411
11757POPC   C2770957   5.736   3.485  11.570
11757POPC   H7R70958   5.672   3.571  11.592
11757POPC   H7S70959   5.840   3.520  11.589
11757POPC   C2870960   5.708   3.360  11.665
11757POPC   H8R70961   5.738   3.395  11.766
11757POPC   H8S70962   5.780   3.281  11.637
11757POPC   C2970963   5.572   3.293  11.674
11757POPC   H9170964   5.492   3.359  11.702
11757POPC  C21070965   5.529   3.166  11.682
11757POPC  H10170966   5.420   3.151  11.688
11757POPC  C21170967   5.606   3.037  11.684
11757POPC  H11R70968   5.648   3.015  11.584
11757POPC  H11S70969   5.534   2.954  11.706
11757POPC  C21270970   5.714   3.034  11.793
11757POPC  H12R70971   5.800   3.095  11.758
11757POPC  H12S70972   5.750   2.930  11.804
11757POPC  C21370973   5.672   3.088  11.932
11757POPC  H13R70974   5.656   3.198  11.927
11757POPC  H13S70975   5.759   3.071  11.998
11757POPC  C21470976   5.548   3.023  11.997
11757POPC  H14R70977   5.563   2.913  11.998
11757POPC  H14S70978   5.457   3.045  11.937
11757POPC  C21570979   5.526   3.071  12.142
11757POPC  H15R70980   5.450   3.004  12.190
11757POPC  H15S70981   5.484   3.174  12.142
11757POPC  C21670982   5.655   3.069  12.226
11757POPC  H16R70983   5.716   3.159  12.201
11757POPC  H16S70984   5.714   2.979  12.197
11757POPC  C21770985   5.634   3.062  12.377
11757POPC  H17R70986   5.733   3.048  12.426
11757POPC  H17S70987   5.573   2.972  12.398
11757POPC  C21870988   5.567   3.186  12.439
11757POPC  H18R70989   5.559   3.175  12.549
11757POPC  H18S70990   5.465   3.201  12.398
11757POPC  H18T70991   5.629   3.275  12.419
11757POPC   C3370992   5.879   3.192  11.366
11757POPC   H3X70993   5.805   3.231  11.437
11757POPC   H3Y70994   5.866   3.235  11.264
11757POPC   C3470995   6.023   3.221  11.416
11757POPC   H4X70996   6.057   3.315  11.368
11757POPC   H4Y70997   6.091   3.140  11.382
11757POPC   C3570998   6.030   3.240  11.569
11757POPC   H5X70999   5.992   3.147  11.616
11757POPC   H5Y71000   5.965   3.325  11.596
11757POPC   C3671001   6.166   3.275  11.632
11757POPC   H6X71002   6.183   3.384  11.623
11757POPC   H6Y71003   6.247   3.222  11.576
11757POPC   C3771004   6.175   3.234  11.780
11757POPC   H7X71005   6.269   3.276  11.824
11757POPC   H7Y71006   6.185   3.123  11.782
11757POPC   C3871007   6.057   3.273  11.872
11757POPC   H8X71008   5.961   3.265  11.816
11757POPC   H8Y71009   6.069   3.379  11.903
11757POPC   C3971010   6.043   3.181  11.995
11757POPC   H9X71011   6.132   3.116  12.004
11757POPC   H9Y71012   5.958   3.112  11.980
11757POPC  C31071013   6.028   3.252  12.130
11757POPC  H10X71014   5.936   3.315  12.132
11757POPC  H10Y71015   6.116   3.318  12.144
11757POPC  C31171016   6.024   3.154  12.248
11757POPC  H11X71017   6.108   3.082  12.237
11757POPC  H11Y71018   5.930   3.095  12.246
11757POPC  C31271019   6.039   3.226  12.382
11757POPC  H12X71020   5.955   3.298  12.395
11757POPC  H12Y71021   6.134   3.285  12.379
11757POPC  C31371022   6.045   3.133  12.503
11757POPC  H13X71023   6.128   3.059  12.489
11757POPC  H13Y71024   5.952   3.073  12.511
11757POPC  C31471025   6.071   3.212  12.631
11757POPC  H14X71026   6.122   3.308  12.608
11757POPC  H14Y71027   6.141   3.154  12.695
11757POPC  C31571028   5.941   3.237  12.709
11757POPC  H15X71029   5.880   3.144  12.708
11757POPC  H15Y71030   5.882   3.316  12.658
11757POPC  C31671031   5.966   3.276  12.854
11757POPC  H16X71032   5.870   3.272  12.912
11757POPC  H16Y71033   6.008   3.379  12.862
11757POPC  H16Z71034   6.038   3.207  12.902
11758POPC     N71035   6.735   4.722  10.877
11758POPC   C1271036   6.733   4.875  10.887
11758POPC  H12A71037   6.835   4.913  10.892
11758POPC  H12B71038   6.682   4.904  10.978
11758POPC   C1371039   6.594   4.673  10.892
11758POPC  H13A71040   6.550   4.709  10.985
11758POPC  H13B71041   6.531   4.720  10.815
11758POPC  H13C71042   6.582   4.566  10.887
11758POPC   C1471043   6.787   4.684  10.743
11758POPC  H14A71044   6.719   4.726  10.669
11758POPC  H14B71045   6.885   4.727  10.726
11758POPC  H14C71046   6.791   4.576  10.730
11758POPC   C1571047   6.823   4.662  10.982
11758POPC  H15A71048   6.823   4.554  10.972
11758POPC  H15B71049   6.787   4.687  11.081
11758POPC  H15C71050   6.924   4.700  10.972
11758POPC   C1171051   6.663   4.954  10.774
11758POPC  H11A71052   6.708   4.931  10.675
11758POPC  H11B71053   6.680   5.064  10.789
11758POPC     P71054   6.416   4.998  10.858
11758POPC   O1371055   6.333   4.895  10.926
11758POPC   O1471056   6.342   5.096  10.776
11758POPC   O1271057   6.524   4.925  10.768
11758POPC   O1171058   6.503   5.072  10.968
11758POPC    C171059   6.433   5.166  11.052
11758POPC    HA71060   6.331   5.129  11.079
11758POPC    HB71061   6.424   5.264  10.998
11758POPC    C271062   6.505   5.194  11.188
11758POPC    HS71063   6.590   5.263  11.168
11758POPC   O2171064   6.551   5.070  11.244
11758POPC   C2171065   6.670   5.032  11.201
11758POPC   O2271066   6.745   5.094  11.128
11758POPC   C2271067   6.702   4.894  11.260
11758POPC   H2R71068   6.810   4.876  11.243
11758POPC   H2S71069   6.642   4.819  11.204
11758POPC    C371070   6.408   5.267  11.288
11758POPC    HX71071   6.305   5.247  11.253
11758POPC    HY71072   6.425   5.377  11.280
11758POPC   O3171073   6.416   5.220  11.424
11758POPC   C3171074   6.529   5.247  11.489
11758POPC   O3271075   6.616   5.323  11.453
11758POPC   C3271076   6.526   5.164  11.619
11758POPC   H2X71077   6.494   5.061  11.591
11758POPC   H2Y71078   6.446   5.206  11.683
11758POPC   C2371079   6.669   4.882  11.411
11758POPC   H3R71080   6.560   4.901  11.425
11758POPC   H3S71081   6.724   4.960  11.468
11758POPC   C2471082   6.702   4.744  11.468
11758POPC   H4R71083   6.811   4.727  11.457
11758POPC   H4S71084   6.649   4.666  11.409
11758POPC   C2571085   6.661   4.729  11.615
11758POPC   H5R71086   6.706   4.811  11.676
11758POPC   H5S71087   6.701   4.633  11.655
11758POPC   C2671088   6.508   4.730  11.633
11758POPC   H6R71089   6.462   4.658  11.562
11758POPC   H6S71090   6.472   4.832  11.606
11758POPC   C2771091   6.461   4.695  11.774
11758POPC   H7R71092   6.515   4.757  11.848
11758POPC   H7S71093   6.486   4.589  11.795
11758POPC   C2871094   6.309   4.716  11.795
11758POPC   H8R71095   6.283   4.675  11.895
11758POPC   H8S71096   6.254   4.656  11.720
11758POPC   C2971097   6.271   4.862  11.783
11758POPC   H9171098   6.281   4.904  11.681
11758POPC  C21071099   6.233   4.944  11.883
11758POPC  H10171100   6.212   5.050  11.860
11758POPC  C21171101   6.219   4.906  12.028
11758POPC  H11R71102   6.172   4.806  12.039
11758POPC  H11S71103   6.153   4.978  12.080
11758POPC  C21271104   6.357   4.904  12.098
11758POPC  H12R71105   6.405   5.004  12.089
11758POPC  H12S71106   6.423   4.831  12.046
11758POPC  C21371107   6.350   4.864  12.246
11758POPC  H13R71108   6.454   4.851  12.283
11758POPC  H13S71109   6.301   4.764  12.252
11758POPC  C21471110   6.273   4.962  12.336
11758POPC  H14R71111   6.276   4.921  12.440
11758POPC  H14S71112   6.167   4.967  12.304
11758POPC  C21571113   6.330   5.105  12.344
11758POPC  H15R71114   6.266   5.164  12.414
11758POPC  H15S71115   6.324   5.154  12.245
11758POPC  C21671116   6.474   5.109  12.398
11758POPC  H16R71117   6.497   5.004  12.428
11758POPC  H16S71118   6.479   5.168  12.491
11758POPC  C21771119   6.578   5.159  12.295
11758POPC  H17R71120   6.527   5.226  12.223
11758POPC  H17S71121   6.610   5.070  12.237
11758POPC  C21871122   6.704   5.231  12.347
11758POPC  H18R71123   6.732   5.199  12.449
11758POPC  H18S71124   6.691   5.340  12.354
11758POPC  H18T71125   6.791   5.211  12.280
11758POPC   C3371126   6.657   5.152  11.703
11758POPC   H3X71127   6.694   5.252  11.733
11758POPC   H3Y71128   6.736   5.104  11.641
11758POPC   C3471129   6.633   5.065  11.829
11758POPC   H4X71130   6.573   4.977  11.798
11758POPC   H4Y71131   6.572   5.122  11.903
11758POPC   C3571132   6.759   5.011  11.900
11758POPC   H5X71133   6.815   5.094  11.948
11758POPC   H5Y71134   6.826   4.965  11.823
11758POPC   C3671135   6.729   4.901  12.004
11758POPC   H6X71136   6.677   4.817  11.954
11758POPC   H6Y71137   6.662   4.940  12.083
11758POPC   C3771138   6.856   4.844  12.071
11758POPC   H7X71139   6.889   4.918  12.147
11758POPC   H7Y71140   6.936   4.838  11.993
11758POPC   C3871141   6.843   4.703  12.133
11758POPC   H8X71142   6.945   4.669  12.158
11758POPC   H8Y71143   6.801   4.632  12.059
11758POPC   C3971144   6.765   4.697  12.265
11758POPC   H9X71145   6.656   4.688  12.245
11758POPC   H9Y71146   6.779   4.792  12.319
11758POPC  C31071147   6.812   4.582  12.358
11758POPC  H10X71148   6.920   4.563  12.351
11758POPC  H10Y71149   6.765   4.493  12.313
11758POPC  C31171150   6.778   4.615  12.506
11758POPC  H11X71151   6.668   4.633  12.511
11758POPC  H11Y71152   6.831   4.711  12.523
11758POPC  C31271153   6.823   4.531  12.628
11758POPC  H12X71154   6.928   4.552  12.654
11758POPC  H12Y71155   6.817   4.423  12.607
11758POPC  C31371156   6.735   4.561  12.754
11758POPC  H13X71157   6.694   4.466  12.793
11758POPC  H13Y71158   6.649   4.624  12.722
11758POPC  C31471159   6.802   4.636  12.871
11758POPC  H14X71160   6.852   4.727  12.830
11758POPC  H14Y71161   6.880   4.572  12.918
11758POPC  C31571162   6.702   4.682  12.979
11758POPC  H15X71163   6.619   4.736  12.928
11758POPC  H15Y71164   6.751   4.755  13.046
11758POPC  C31671165   6.639   4.571  13.065
11758POPC  H16X71166   6.569   4.615  13.139
11758POPC  H16Y71167   6.717   4.515  13.121
11758POPC  H16Z71168   6.582   4.499  13.002
11759POPC     N71169   3.512   6.306  11.011
11759POPC   C1271170   3.647   6.243  10.980
11759POPC  H12A71171   3.631   6.153  10.921
11759POPC  H12B71172   3.692   6.211  11.073
11759POPC   C1371173   3.436   6.327  10.884
11759POPC  H13A71174   3.331   6.353  10.900
11759POPC  H13B71175   3.483   6.403  10.822
11759POPC  H13C71176   3.432   6.236  10.825
11759POPC   C1471177   3.427   6.219  11.098
11759POPC  H14A71178   3.470   6.198  11.195
11759POPC  H14B71179   3.330   6.267  11.113
11759POPC  H14C71180   3.404   6.126  11.048
11759POPC   C1571181   3.532   6.440  11.074
11759POPC  H15A71182   3.575   6.432  11.173
11759POPC  H15B71183   3.438   6.493  11.083
11759POPC  H15C71184   3.597   6.499  11.011
11759POPC   C1171185   3.753   6.327  10.903
11759POPC  H11A71186   3.842   6.262  10.887
11759POPC  H11B71187   3.784   6.412  10.966
11759POPC     P71188   3.781   6.417  10.650
11759POPC   O1371189   3.675   6.436  10.550
11759POPC   O1471190   3.885   6.315  10.621
11759POPC   O1271191   3.703   6.373  10.779
11759POPC   O1171192   3.841   6.556  10.696
11759POPC    C171193   3.757   6.648  10.766
11759POPC    HA71194   3.671   6.601  10.819
11759POPC    HB71195   3.717   6.723  10.694
11759POPC    C271196   3.842   6.717  10.873
11759POPC    HS71197   3.927   6.763  10.817
11759POPC   O2171198   3.885   6.620  10.970
11759POPC   C2171199   4.016   6.612  10.989
11759POPC   O2271200   4.099   6.680  10.933
11759POPC   C2271201   4.044   6.514  11.102
11759POPC   H2R71202   4.151   6.525  11.125
11759POPC   H2S71203   4.027   6.410  11.066
11759POPC    C371204   3.764   6.832  10.943
11759POPC    HX71205   3.742   6.905  10.863
11759POPC    HY71206   3.833   6.883  11.015
11759POPC   O3171207   3.637   6.794  11.003
11759POPC   C3171208   3.645   6.764  11.133
11759POPC   O3271209   3.749   6.758  11.196
11759POPC   C3271210   3.504   6.757  11.194
11759POPC   H2X71211   3.445   6.680  11.143
11759POPC   H2Y71212   3.456   6.855  11.172
11759POPC   C2371213   3.961   6.546  11.228
11759POPC   H3R71214   3.852   6.535  11.207
11759POPC   H3S71215   3.979   6.653  11.255
11759POPC   C2471216   3.996   6.462  11.350
11759POPC   H4R71217   3.960   6.518  11.439
11759POPC   H4S71218   4.106   6.453  11.361
11759POPC   C2571219   3.930   6.322  11.347
11759POPC   H5R71220   3.990   6.257  11.279
11759POPC   H5S71221   3.828   6.331  11.305
11759POPC   C2671222   3.921   6.258  11.487
11759POPC   H6R71223   4.022   6.264  11.532
11759POPC   H6S71224   3.895   6.150  11.478
11759POPC   C2771225   3.820   6.327  11.581
11759POPC   H7R71226   3.716   6.298  11.554
11759POPC   H7S71227   3.829   6.437  11.569
11759POPC   C2871228   3.850   6.297  11.729
11759POPC   H8R71229   3.959   6.315  11.738
11759POPC   H8S71230   3.834   6.188  11.745
11759POPC   C2971231   3.777   6.374  11.835
11759POPC   H9171232   3.670   6.349  11.845
11759POPC  C21071233   3.829   6.466  11.920
11759POPC  H10171234   3.764   6.511  11.996
11759POPC  C21171235   3.971   6.514  11.928
11759POPC  H11R71236   3.973   6.624  11.921
11759POPC  H11S71237   4.032   6.478  11.842
11759POPC  C21271238   4.046   6.483  12.058
11759POPC  H12R71239   4.153   6.511  12.043
11759POPC  H12S71240   4.041   6.374  12.080
11759POPC  C21371241   3.995   6.559  12.181
11759POPC  H13R71242   3.899   6.512  12.212
11759POPC  H13S71243   3.975   6.665  12.155
11759POPC  C21471244   4.091   6.557  12.301
11759POPC  H14R71245   4.036   6.590  12.392
11759POPC  H14S71246   4.171   6.633  12.283
11759POPC  C21571247   4.153   6.419  12.320
11759POPC  H15R71248   4.212   6.393  12.230
11759POPC  H15S71249   4.072   6.343  12.331
11759POPC  C21671250   4.250   6.409  12.438
11759POPC  H16R71251   4.332   6.480  12.420
11759POPC  H16S71252   4.294   6.307  12.436
11759POPC  C21771253   4.190   6.438  12.577
11759POPC  H17R71254   4.079   6.443  12.570
11759POPC  H17S71255   4.223   6.540  12.609
11759POPC  C21871256   4.232   6.336  12.682
11759POPC  H18R71257   4.155   6.257  12.694
11759POPC  H18S71258   4.249   6.385  12.780
11759POPC  H18T71259   4.326   6.286  12.653
11759POPC   C3371260   3.502   6.738  11.348
11759POPC   H3X71261   3.397   6.750  11.384
11759POPC   H3Y71262   3.562   6.819  11.396
11759POPC   C3471263   3.555   6.603  11.399
11759POPC   H4X71264   3.657   6.586  11.357
11759POPC   H4Y71265   3.491   6.518  11.367
11759POPC   C3571266   3.571   6.603  11.551
11759POPC   H5X71267   3.606   6.705  11.580
11759POPC   H5Y71268   3.650   6.532  11.583
11759POPC   C3671269   3.445   6.574  11.632
11759POPC   H6X71270   3.409   6.470  11.614
11759POPC   H6Y71271   3.365   6.645  11.601
11759POPC   C3771272   3.476   6.594  11.781
11759POPC   H7X71273   3.551   6.675  11.791
11759POPC   H7Y71274   3.522   6.501  11.821
11759POPC   C3871275   3.357   6.635  11.868
11759POPC   H8X71276   3.287   6.548  11.878
11759POPC   H8Y71277   3.304   6.718  11.818
11759POPC   C3971278   3.401   6.679  12.008
11759POPC   H9X71279   3.313   6.706  12.070
11759POPC   H9Y71280   3.466   6.769  12.000
11759POPC  C31071281   3.479   6.567  12.077
11759POPC  H10X71282   3.579   6.563  12.029
11759POPC  H10Y71283   3.429   6.469  12.059
11759POPC  C31171284   3.498   6.587  12.226
11759POPC  H11X71285   3.405   6.558  12.280
11759POPC  H11Y71286   3.517   6.695  12.247
11759POPC  C31271287   3.618   6.508  12.279
11759POPC  H12X71288   3.708   6.541  12.225
11759POPC  H12Y71289   3.603   6.399  12.261
11759POPC  C31371290   3.633   6.533  12.428
11759POPC  H13X71291   3.610   6.441  12.486
11759POPC  H13Y71292   3.558   6.612  12.451
11759POPC  C31471293   3.764   6.593  12.477
11759POPC  H14X71294   3.798   6.673  12.408
11759POPC  H14Y71295   3.842   6.514  12.480
11759POPC  C31571296   3.744   6.653  12.616
11759POPC  H15X71297   3.677   6.586  12.674
11759POPC  H15Y71298   3.691   6.751  12.608
11759POPC  C31671299   3.873   6.668  12.693
11759POPC  H16X71300   3.938   6.737  12.637
11759POPC  H16Y71301   3.926   6.571  12.699
11759POPC  H16Z71302   3.857   6.706  12.796
11760POPC     N71303   4.364   2.664  10.721
11760POPC   C1271304   4.362   2.633  10.870
11760POPC  H12A71305   4.461   2.642  10.911
11760POPC  H12B71306   4.325   2.532  10.883
11760POPC   C1371307   4.228   2.653  10.660
11760POPC  H13A71308   4.161   2.724  10.709
11760POPC  H13B71309   4.229   2.671  10.554
11760POPC  H13C71310   4.183   2.557  10.680
11760POPC   C1471311   4.413   2.803  10.694
11760POPC  H14A71312   4.417   2.821  10.587
11760POPC  H14B71313   4.345   2.874  10.740
11760POPC  H14C71314   4.513   2.815  10.734
11760POPC   C1571315   4.454   2.572  10.647
11760POPC  H15A71316   4.446   2.590  10.540
11760POPC  H15B71317   4.430   2.468  10.664
11760POPC  H15C71318   4.558   2.593  10.673
11760POPC   C1171319   4.265   2.712  10.958
11760POPC  H11A71320   4.292   2.821  10.955
11760POPC  H11B71321   4.274   2.678  11.064
11760POPC     P71322   4.029   2.798  10.918
11760POPC   O1371323   3.897   2.738  10.888
11760POPC   O1471324   4.075   2.907  10.828
11760POPC   O1271325   4.134   2.682  10.912
11760POPC   O1171326   4.056   2.834  11.066
11760POPC    C171327   4.003   2.943  11.136
11760POPC    HA71328   3.898   2.966  11.107
11760POPC    HB71329   4.065   3.033  11.117
11760POPC    C271330   4.006   2.907  11.287
11760POPC    HS71331   3.992   3.000  11.344
11760POPC   O2171332   4.130   2.844  11.329
11760POPC   C2171333   4.231   2.930  11.324
11760POPC   O2271334   4.224   3.047  11.292
11760POPC   C2271335   4.362   2.867  11.372
11760POPC   H2R71336   4.438   2.889  11.294
11760POPC   H2S71337   4.352   2.757  11.382
11760POPC    C371338   3.886   2.814  11.320
11760POPC    HX71339   3.793   2.869  11.296
11760POPC    HY71340   3.888   2.796  11.430
11760POPC   O3171341   3.892   2.695  11.241
11760POPC   C3171342   3.896   2.582  11.306
11760POPC   O3271343   3.863   2.564  11.422
11760POPC   C3271344   3.968   2.481  11.218
11760POPC   H2X71345   4.013   2.535  11.131
11760POPC   H2Y71346   3.894   2.408  11.180
11760POPC   C2371347   4.407   2.931  11.506
11760POPC   H3R71348   4.367   3.035  11.516
11760POPC   H3S71349   4.518   2.940  11.511
11760POPC   C2471350   4.363   2.845  11.624
11760POPC   H4R71351   4.436   2.761  11.633
11760POPC   H4S71352   4.265   2.800  11.599
11760POPC   C2571353   4.354   2.919  11.758
11760POPC   H5R71354   4.432   2.998  11.764
11760POPC   H5S71355   4.375   2.846  11.840
11760POPC   C2671356   4.215   2.977  11.787
11760POPC   H6R71357   4.188   3.053  11.710
11760POPC   H6S71358   4.218   3.029  11.886
11760POPC   C2771359   4.106   2.869  11.793
11760POPC   H7R71360   4.144   2.782  11.851
11760POPC   H7S71361   4.086   2.833  11.690
11760POPC   C2871362   3.976   2.917  11.858
11760POPC   H8R71363   3.964   3.026  11.839
11760POPC   H8S71364   3.987   2.909  11.969
11760POPC   C2971365   3.857   2.842  11.804
11760POPC   H9171366   3.791   2.906  11.745
11760POPC  C21071367   3.815   2.715  11.824
11760POPC  H10171368   3.723   2.685  11.773
11760POPC  C21171369   3.874   2.606  11.910
11760POPC  H11R71370   3.950   2.546  11.854
11760POPC  H11S71371   3.793   2.535  11.937
11760POPC  C21271372   3.933   2.654  12.044
11760POPC  H12R71373   4.028   2.708  12.026
11760POPC  H12S71374   3.956   2.565  12.107
11760POPC  C21371375   3.833   2.745  12.118
11760POPC  H13R71376   3.741   2.685  12.116
11760POPC  H13S71377   3.813   2.838  12.062
11760POPC  C21471378   3.863   2.787  12.262
11760POPC  H14R71379   3.780   2.855  12.291
11760POPC  H14S71380   3.957   2.845  12.268
11760POPC  C21571381   3.865   2.668  12.357
11760POPC  H15R71382   3.952   2.603  12.334
11760POPC  H15S71383   3.775   2.606  12.334
11760POPC  C21671384   3.864   2.702  12.507
11760POPC  H16R71385   3.966   2.680  12.548
11760POPC  H16S71386   3.789   2.635  12.553
11760POPC  C21771387   3.827   2.845  12.546
11760POPC  H17R71388   3.728   2.869  12.502
11760POPC  H17S71389   3.905   2.910  12.501
11760POPC  C21871390   3.822   2.877  12.696
11760POPC  H18R71391   3.807   2.787  12.758
11760POPC  H18S71392   3.738   2.947  12.719
11760POPC  H18T71393   3.915   2.929  12.726
11760POPC   C3371394   4.078   2.415  11.302
11760POPC   H3X71395   4.136   2.345  11.237
11760POPC   H3Y71396   4.031   2.355  11.383
11760POPC   C3471397   4.173   2.518  11.363
11760POPC   H4X71398   4.121   2.582  11.438
11760POPC   H4Y71399   4.209   2.586  11.283
11760POPC   C3571400   4.292   2.450  11.430
11760POPC   H5X71401   4.365   2.528  11.460
11760POPC   H5Y71402   4.336   2.385  11.352
11760POPC   C3671403   4.260   2.360  11.551
11760POPC   H6X71404   4.356   2.323  11.594
11760POPC   H6Y71405   4.204   2.271  11.514
11760POPC   C3771406   4.177   2.428  11.661
11760POPC   H7X71407   4.142   2.352  11.733
11760POPC   H7Y71408   4.086   2.475  11.618
11760POPC   C3871409   4.255   2.531  11.744
11760POPC   H8X71410   4.181   2.584  11.807
11760POPC   H8Y71411   4.301   2.604  11.675
11760POPC   C3971412   4.364   2.467  11.832
11760POPC   H9X71413   4.454   2.451  11.768
11760POPC   H9Y71414   4.329   2.368  11.867
11760POPC  C31071415   4.405   2.550  11.955
11760POPC  H10X71416   4.427   2.654  11.922
11760POPC  H10Y71417   4.498   2.508  11.998
11760POPC  C31171418   4.298   2.553  12.065
11760POPC  H11X71419   4.286   2.451  12.110
11760POPC  H11Y71420   4.201   2.580  12.019
11760POPC  C31271421   4.328   2.655  12.176
11760POPC  H12X71422   4.352   2.752  12.126
11760POPC  H12Y71423   4.416   2.624  12.235
11760POPC  C31371424   4.208   2.678  12.270
11760POPC  H13X71425   4.177   2.580  12.314
11760POPC  H13Y71426   4.124   2.714  12.207
11760POPC  C31471427   4.227   2.781  12.381
11760POPC  H14X71428   4.300   2.741  12.454
11760POPC  H14Y71429   4.131   2.793  12.437
11760POPC  C31571430   4.273   2.920  12.333
11760POPC  H15X71431   4.190   2.963  12.272
11760POPC  H15Y71432   4.361   2.908  12.266
11760POPC  C31671433   4.311   3.017  12.445
11760POPC  H16X71434   4.226   3.031  12.515
11760POPC  H16Y71435   4.340   3.115  12.403
11760POPC  H16Z71436   4.397   2.976  12.502
11761POPC     N71437   4.633   6.922  10.810
11761POPC   C1271438   4.607   6.811  10.912
11761POPC  H12A71439   4.611   6.853  11.012
11761POPC  H12B71440   4.689   6.738  10.905
11761POPC   C1371441   4.735   7.019  10.863
11761POPC  H13A71442   4.766   7.088  10.786
11761POPC  H13B71443   4.698   7.075  10.948
11761POPC  H13C71444   4.824   6.965  10.895
11761POPC   C1471445   4.688   6.864  10.684
11761POPC  H14A71446   4.690   6.936  10.603
11761POPC  H14B71447   4.789   6.826  10.696
11761POPC  H14C71448   4.627   6.780  10.650
11761POPC   C1571449   4.506   6.993  10.773
11761POPC  H15A71450   4.441   6.920  10.724
11761POPC  H15B71451   4.526   7.074  10.704
11761POPC  H15C71452   4.457   7.030  10.862
11761POPC   C1171453   4.475   6.728  10.904
11761POPC  H11A71454   4.389   6.794  10.927
11761POPC  H11B71455   4.475   6.650  10.985
11761POPC     P71456   4.534   6.540  10.730
11761POPC   O1371457   4.586   6.567  10.594
11761POPC   O1471458   4.452   6.419  10.748
11761POPC   O1271459   4.455   6.669  10.775
11761POPC   O1171460   4.661   6.537  10.831
11761POPC    C171461   4.785   6.489  10.778
11761POPC    HA71462   4.808   6.538  10.681
11761POPC    HB71463   4.779   6.379  10.760
11761POPC    C271464   4.915   6.514  10.864
11761POPC    HS71465   4.997   6.455  10.817
11761POPC   O2171466   4.899   6.482  11.004
11761POPC   C2171467   4.926   6.354  11.030
11761POPC   O2271468   4.939   6.269  10.943
11761POPC   C2271469   4.937   6.336  11.183
11761POPC   H2R71470   5.019   6.402  11.218
11761POPC   H2S71471   4.966   6.231  11.202
11761POPC    C371472   4.963   6.662  10.853
11761POPC    HX71473   4.935   6.703  10.753
11761POPC    HY71474   5.075   6.660  10.853
11761POPC   O3171475   4.908   6.746  10.956
11761POPC   C3171476   4.984   6.748  11.067
11761POPC   O3271477   5.101   6.714  11.073
11761POPC   C3271478   4.896   6.792  11.183
11761POPC   H2X71479   4.795   6.748  11.171
11761POPC   H2Y71480   4.887   6.902  11.179
11761POPC   C2371481   4.804   6.370  11.257
11761POPC   H3R71482   4.727   6.307  11.208
11761POPC   H3S71483   4.775   6.476  11.243
11761POPC   C2471484   4.794   6.330  11.406
11761POPC   H4R71485   4.849   6.236  11.425
11761POPC   H4S71486   4.686   6.310  11.425
11761POPC   C2571487   4.838   6.440  11.503
11761POPC   H5R71488   4.809   6.539  11.462
11761POPC   H5S71489   4.949   6.439  11.511
11761POPC   C2671490   4.773   6.431  11.641
11761POPC   H6R71491   4.825   6.505  11.706
11761POPC   H6S71492   4.788   6.330  11.684
11761POPC   C2771493   4.623   6.466  11.641
11761POPC   H7R71494   4.563   6.381  11.602
11761POPC   H7S71495   4.609   6.551  11.570
11761POPC   C2871496   4.567   6.514  11.777
11761POPC   H8R71497   4.475   6.574  11.756
11761POPC   H8S71498   4.640   6.586  11.821
11761POPC   C2971499   4.530   6.404  11.873
11761POPC   H9171500   4.448   6.340  11.836
11761POPC  C21071501   4.586   6.375  11.991
11761POPC  H10171502   4.549   6.290  12.050
11761POPC  C21171503   4.701   6.450  12.053
11761POPC  H11R71504   4.702   6.440  12.164
11761POPC  H11S71505   4.694   6.559  12.031
11761POPC  C21271506   4.832   6.395  11.995
11761POPC  H12R71507   4.825   6.388  11.885
11761POPC  H12S71508   4.848   6.290  12.029
11761POPC  C21371509   4.957   6.477  12.026
11761POPC  H13R71510   5.039   6.434  11.964
11761POPC  H13S71511   4.983   6.464  12.133
11761POPC  C21471512   4.948   6.626  11.991
11761POPC  H14R71513   4.879   6.676  12.061
11761POPC  H14S71514   4.907   6.636  11.888
11761POPC  C21571515   5.085   6.695  11.997
11761POPC  H15R71516   5.073   6.802  11.969
11761POPC  H15S71517   5.155   6.648  11.923
11761POPC  C21671518   5.146   6.686  12.137
11761POPC  H16R71519   5.165   6.579  12.162
11761POPC  H16S71520   5.072   6.724  12.211
11761POPC  C21771521   5.277   6.763  12.156
11761POPC  H17R71522   5.257   6.871  12.136
11761POPC  H17S71523   5.353   6.727  12.083
11761POPC  C21871524   5.330   6.747  12.297
11761POPC  H18R71525   5.373   6.646  12.313
11761POPC  H18S71526   5.246   6.760  12.370
11761POPC  H18T71527   5.408   6.823  12.319
11761POPC   C3371528   4.955   6.746  11.318
11761POPC   H3X71529   5.065   6.753  11.316
11761POPC   H3Y71530   4.932   6.638  11.331
11761POPC   C3471531   4.904   6.829  11.436
11761POPC   H4X71532   4.942   6.934  11.427
11761POPC   H4Y71533   4.944   6.786  11.531
11761POPC   C3571534   4.751   6.835  11.443
11761POPC   H5X71535   4.711   6.731  11.446
11761POPC   H5Y71536   4.709   6.883  11.352
11761POPC   C3671537   4.700   6.910  11.567
11761POPC   H6X71538   4.729   7.017  11.559
11761POPC   H6Y71539   4.750   6.868  11.657
11761POPC   C3771540   4.548   6.897  11.582
11761POPC   H7X71541   4.523   6.789  11.595
11761POPC   H7Y71542   4.499   6.931  11.488
11761POPC   C3871543   4.491   6.975  11.700
11761POPC   H8X71544   4.380   6.959  11.702
11761POPC   H8Y71545   4.509   7.083  11.686
11761POPC   C3971546   4.549   6.930  11.835
11761POPC   H9X71547   4.654   6.967  11.843
11761POPC   H9Y71548   4.552   6.819  11.838
11761POPC  C31071549   4.467   6.982  11.953
11761POPC  H10X71550   4.363   6.944  11.948
11761POPC  H10Y71551   4.463   7.093  11.946
11761POPC  C31171552   4.530   6.944  12.087
11761POPC  H11X71553   4.492   7.014  12.166
11761POPC  H11Y71554   4.640   6.959  12.080
11761POPC  C31271555   4.501   6.801  12.133
11761POPC  H12X71556   4.538   6.727  12.059
11761POPC  H12Y71557   4.390   6.788  12.141
11761POPC  C31371558   4.564   6.773  12.270
11761POPC  H13X71559   4.554   6.864  12.334
11761POPC  H13Y71560   4.673   6.752  12.258
11761POPC  C31471561   4.497   6.657  12.345
11761POPC  H14X71562   4.518   6.561  12.293
11761POPC  H14Y71563   4.387   6.675  12.341
11761POPC  C31571564   4.537   6.647  12.493
11761POPC  H15X71565   4.479   6.565  12.542
11761POPC  H15Y71566   4.508   6.742  12.544
11761POPC  C31671567   4.685   6.621  12.516
11761POPC  H16X71568   4.744   6.708  12.482
11761POPC  H16Y71569   4.720   6.532  12.459
11761POPC  H16Z71570   4.705   6.604  12.624
11762POPC     N71571   2.616   5.119  10.893
11762POPC   C1271572   2.517   5.230  10.863
11762POPC  H12A71573   2.502   5.286  10.955
11762POPC  H12B71574   2.420   5.190  10.834
11762POPC   C1371575   2.728   5.175  10.976
11762POPC  H13A71576   2.800   5.099  11.004
11762POPC  H13B71577   2.779   5.253  10.919
11762POPC  H13C71578   2.691   5.225  11.065
11762POPC   C1471579   2.546   5.008  10.967
11762POPC  H14A71580   2.495   5.042  11.056
11762POPC  H14B71581   2.472   4.960  10.905
11762POPC  H14C71582   2.617   4.932  10.998
11762POPC   C1571583   2.677   5.067  10.766
11762POPC  H15A71584   2.727   5.149  10.715
11762POPC  H15B71585   2.603   5.026  10.697
11762POPC  H15C71586   2.752   4.992  10.787
11762POPC   C1171587   2.554   5.337  10.757
11762POPC  H11A71588   2.468   5.409  10.751
11762POPC  H11B71589   2.558   5.286  10.659
11762POPC     P71590   2.677   5.523  10.888
11762POPC   O1371591   2.591   5.630  10.835
11762POPC   O1471592   2.812   5.558  10.937
11762POPC   O1271593   2.680   5.405  10.781
11762POPC   O1171594   2.596   5.449  10.999
11762POPC    C171595   2.523   5.521  11.096
11762POPC    HA71596   2.415   5.527  11.066
11762POPC    HB71597   2.562   5.624  11.106
11762POPC    C271598   2.536   5.447  11.229
11762POPC    HS71599   2.495   5.509  11.310
11762POPC   O2171600   2.673   5.411  11.257
11762POPC   C2171601   2.742   5.513  11.300
11762POPC   O2271602   2.704   5.627  11.309
11762POPC   C2271603   2.871   5.461  11.363
11762POPC   H2R71604   2.947   5.540  11.351
11762POPC   H2S71605   2.905   5.371  11.310
11762POPC    C371606   2.455   5.317  11.226
11762POPC    HX71607   2.496   5.255  11.143
11762POPC    HY71608   2.348   5.342  11.205
11762POPC   O3171609   2.471   5.252  11.353
11762POPC   C3171610   2.426   5.128  11.353
11762POPC   O3271611   2.370   5.073  11.260
11762POPC   C3271612   2.461   5.059  11.484
11762POPC   H2X71613   2.560   5.094  11.519
11762POPC   H2Y71614   2.468   4.950  11.461
11762POPC   C2371615   2.848   5.432  11.514
11762POPC   H3R71616   2.770   5.353  11.526
11762POPC   H3S71617   2.810   5.525  11.564
11762POPC   C2471618   2.976   5.388  11.583
11762POPC   H4R71619   3.059   5.454  11.549
11762POPC   H4S71620   3.001   5.284  11.550
11762POPC   C2571621   2.971   5.393  11.737
11762POPC   H5R71622   3.043   5.318  11.778
11762POPC   H5S71623   2.869   5.367  11.773
11762POPC   C2671624   3.014   5.531  11.790
11762POPC   H6R71625   2.935   5.604  11.764
11762POPC   H6S71626   3.107   5.562  11.736
11762POPC   C2771627   3.046   5.539  11.940
11762POPC   H7R71628   3.078   5.643  11.965
11762POPC   H7S71629   3.134   5.475  11.959
11762POPC   C2871630   2.933   5.498  12.034
11762POPC   H8R71631   2.884   5.405  11.999
11762POPC   H8S71632   2.855   5.576  12.033
11762POPC   C2971633   2.993   5.482  12.171
11762POPC   H9171634   3.004   5.573  12.232
11762POPC  C21071635   3.038   5.365  12.219
11762POPC  H10171636   3.087   5.363  12.318
11762POPC  C21171637   3.037   5.233  12.147
11762POPC  H11R71638   3.140   5.192  12.144
11762POPC  H11S71639   3.008   5.242  12.039
11762POPC  C21271640   2.943   5.129  12.211
11762POPC  H12R71641   2.985   5.028  12.192
11762POPC  H12S71642   2.844   5.137  12.161
11762POPC  C21371643   2.920   5.141  12.363
11762POPC  H13R71644   2.882   5.242  12.388
11762POPC  H13S71645   3.019   5.129  12.410
11762POPC  C21471646   2.820   5.037  12.417
11762POPC  H14R71647   2.829   5.031  12.527
11762POPC  H14S71648   2.845   4.938  12.376
11762POPC  C21571649   2.673   5.074  12.387
11762POPC  H15R71650   2.662   5.103  12.280
11762POPC  H15S71651   2.650   5.164  12.448
11762POPC  C21671652   2.572   4.963  12.419
11762POPC  H16R71653   2.624   4.880  12.472
11762POPC  H16S71654   2.532   4.921  12.324
11762POPC  C21771655   2.455   5.009  12.508
11762POPC  H17R71656   2.496   5.043  12.605
11762POPC  H17S71657   2.390   4.921  12.529
11762POPC  C21871658   2.368   5.122  12.450
11762POPC  H18R71659   2.325   5.091  12.352
11762POPC  H18S71660   2.429   5.213  12.434
11762POPC  H18T71661   2.285   5.147  12.519
11762POPC   C3371662   2.352   5.077  11.593
11762POPC   H3X71663   2.372   5.003  11.674
11762POPC   H3Y71664   2.251   5.053  11.552
11762POPC   C3471665   2.351   5.217  11.655
11762POPC   H4X71666   2.270   5.219  11.732
11762POPC   H4Y71667   2.324   5.293  11.578
11762POPC   C3571668   2.483   5.259  11.722
11762POPC   H5X71669   2.559   5.284  11.645
11762POPC   H5Y71670   2.522   5.176  11.785
11762POPC   C3671671   2.454   5.381  11.809
11762POPC   H6X71672   2.371   5.352  11.878
11762POPC   H6Y71673   2.416   5.462  11.743
11762POPC   C3771674   2.567   5.437  11.894
11762POPC   H7X71675   2.647   5.481  11.831
11762POPC   H7Y71676   2.612   5.354  11.953
11762POPC   C3871677   2.509   5.543  11.990
11762POPC   H8X71678   2.403   5.514  12.013
11762POPC   H8Y71679   2.506   5.642  11.940
11762POPC   C3971680   2.582   5.550  12.123
11762POPC   H9X71681   2.677   5.605  12.107
11762POPC   H9Y71682   2.606   5.448  12.160
11762POPC  C31071683   2.505   5.626  12.231
11762POPC  H10X71684   2.417   5.567  12.266
11762POPC  H10Y71685   2.467   5.720  12.187
11762POPC  C31171686   2.598   5.659  12.348
11762POPC  H11X71687   2.559   5.746  12.406
11762POPC  H11Y71688   2.697   5.688  12.306
11762POPC  C31271689   2.623   5.541  12.441
11762POPC  H12X71690   2.655   5.453  12.379
11762POPC  H12Y71691   2.529   5.512  12.493
11762POPC  C31371692   2.734   5.570  12.542
11762POPC  H13X71693   2.696   5.641  12.619
11762POPC  H13Y71694   2.819   5.619  12.490
11762POPC  C31471695   2.784   5.441  12.609
11762POPC  H14X71696   2.863   5.466  12.682
11762POPC  H14Y71697   2.832   5.379  12.531
11762POPC  C31571698   2.672   5.358  12.674
11762POPC  H15X71699   2.602   5.323  12.595
11762POPC  H15Y71700   2.612   5.422  12.743
11762POPC  C31671701   2.725   5.236  12.750
11762POPC  H16X71702   2.760   5.264  12.851
11762POPC  H16Y71703   2.811   5.192  12.695
11762POPC  H16Z71704   2.646   5.159  12.760
11763POPC     N71705   6.155   6.131  10.866
11763POPC   C1271706   6.075   6.217  10.962
11763POPC  H12A71707   6.140   6.287  11.015
11763POPC  H12B71708   6.032   6.154  11.039
11763POPC   C1371709   6.238   6.219  10.777
11763POPC  H13A71710   6.176   6.279  10.711
11763POPC  H13B71711   6.295   6.292  10.834
11763POPC  H13C71712   6.305   6.160  10.715
11763POPC   C1471713   6.247   6.039  10.940
11763POPC  H14A71714   6.321   5.999  10.871
11763POPC  H14B71715   6.302   6.095  11.015
11763POPC  H14C71716   6.193   5.958  10.987
11763POPC   C1571717   6.065   6.048  10.779
11763POPC  H15A71718   6.009   5.976  10.839
11763POPC  H15B71719   6.122   5.992  10.708
11763POPC  H15C71720   5.998   6.112  10.724
11763POPC   C1171721   5.960   6.304  10.906
11763POPC  H11A71722   5.916   6.360  10.991
11763POPC  H11B71723   5.881   6.236  10.869
11763POPC     P71724   6.082   6.527  10.837
11763POPC   O1371725   5.998   6.642  10.798
11763POPC   O1471726   6.216   6.519  10.778
11763POPC   O1271727   6.003   6.392  10.802
11763POPC   O1171728   6.096   6.520  10.995
11763POPC    C171729   6.226   6.537  11.053
11763POPC    HA71730   6.255   6.644  11.051
11763POPC    HB71731   6.304   6.478  10.998
11763POPC    C271732   6.231   6.484  11.198
11763POPC    HS71733   6.339   6.474  11.225
11763POPC   O2171734   6.159   6.358  11.203
11763POPC   C2171735   6.214   6.269  11.283
11763POPC   O2271736   6.332   6.266  11.315
11763POPC   C2271737   6.107   6.173  11.334
11763POPC   H2R71738   6.142   6.069  11.322
11763POPC   H2S71739   6.013   6.186  11.276
11763POPC    C371740   6.169   6.583  11.300
11763POPC    HX71741   6.063   6.603  11.272
11763POPC    HY71742   6.225   6.679  11.298
11763POPC   O3171743   6.172   6.521  11.429
11763POPC   C3171744   6.232   6.575  11.533
11763POPC   O3271745   6.272   6.689  11.543
11763POPC   C3271746   6.230   6.467  11.643
11763POPC   H2X71747   6.247   6.369  11.596
11763POPC   H2Y71748   6.128   6.472  11.684
11763POPC   C2371749   6.082   6.209  11.481
11763POPC   H3R71750   6.059   6.318  11.485
11763POPC   H3S71751   6.173   6.188  11.541
11763POPC   C2471752   5.964   6.139  11.548
11763POPC   H4R71753   5.986   6.031  11.545
11763POPC   H4S71754   5.870   6.161  11.493
11763POPC   C2571755   5.950   6.177  11.695
11763POPC   H5R71756   6.051   6.161  11.740
11763POPC   H5S71757   5.886   6.106  11.748
11763POPC   C2671758   5.910   6.323  11.723
11763POPC   H6R71759   5.961   6.389  11.651
11763POPC   H6S71760   5.947   6.344  11.826
11763POPC   C2771761   5.763   6.366  11.717
11763POPC   H7R71762   5.698   6.297  11.774
11763POPC   H7S71763   5.726   6.363  11.613
11763POPC   C2871764   5.741   6.506  11.781
11763POPC   H8R71765   5.775   6.498  11.887
11763POPC   H8S71766   5.631   6.523  11.787
11763POPC   C2971767   5.804   6.627  11.715
11763POPC   H9171768   5.750   6.667  11.629
11763POPC  C21071769   5.922   6.683  11.746
11763POPC  H10171770   5.958   6.770  11.688
11763POPC  C21171771   6.017   6.639  11.854
11763POPC  H11R71772   6.120   6.657  11.814
11763POPC  H11S71773   6.007   6.530  11.869
11763POPC  C21271774   6.013   6.700  11.994
11763POPC  H12R71775   5.930   6.657  12.053
11763POPC  H12S71776   5.994   6.809  11.983
11763POPC  C21371777   6.149   6.682  12.066
11763POPC  H13R71778   6.188   6.783  12.090
11763POPC  H13S71779   6.223   6.638  11.998
11763POPC  C21471780   6.146   6.602  12.197
11763POPC  H14R71781   6.116   6.497  12.177
11763POPC  H14S71782   6.068   6.648  12.261
11763POPC  C21571783   6.282   6.604  12.270
11763POPC  H15R71784   6.324   6.706  12.264
11763POPC  H15S71785   6.353   6.538  12.215
11763POPC  C21671786   6.280   6.564  12.419
11763POPC  H16R71787   6.382   6.578  12.461
11763POPC  H16S71788   6.257   6.456  12.426
11763POPC  C21771789   6.180   6.644  12.505
11763POPC  H17R71790   6.078   6.629  12.465
11763POPC  H17S71791   6.204   6.751  12.495
11763POPC  C21871792   6.178   6.611  12.655
11763POPC  H18R71793   6.189   6.502  12.672
11763POPC  H18S71794   6.081   6.644  12.699
11763POPC  H18T71795   6.260   6.663  12.708
11763POPC   C3371796   6.325   6.480  11.762
11763POPC   H3X71797   6.336   6.589  11.786
11763POPC   H3Y71798   6.424   6.439  11.734
11763POPC   C3471799   6.276   6.408  11.890
11763POPC   H4X71800   6.168   6.422  11.906
11763POPC   H4Y71801   6.328   6.454  11.976
11763POPC   C3571802   6.304   6.258  11.897
11763POPC   H5X71803   6.413   6.245  11.878
11763POPC   H5Y71804   6.250   6.203  11.817
11763POPC   C3671805   6.269   6.201  12.036
11763POPC   H6X71806   6.160   6.183  12.047
11763POPC   H6Y71807   6.297   6.280  12.111
11763POPC   C3771808   6.351   6.076  12.071
11763POPC   H7X71809   6.449   6.096  12.025
11763POPC   H7Y71810   6.309   5.984  12.025
11763POPC   C3871811   6.382   6.058  12.220
11763POPC   H8X71812   6.339   6.144  12.276
11763POPC   H8Y71813   6.493   6.062  12.235
11763POPC   C3971814   6.335   5.926  12.280
11763POPC   H9X71815   6.358   5.841  12.212
11763POPC   H9Y71816   6.225   5.930  12.281
11763POPC  C31071817   6.395   5.902  12.421
11763POPC  H10X71818   6.501   5.869  12.413
11763POPC  H10Y71819   6.338   5.820  12.470
11763POPC  C31171820   6.393   6.022  12.515
11763POPC  H11X71821   6.457   6.103  12.474
11763POPC  H11Y71822   6.436   5.993  12.614
11763POPC  C31271823   6.250   6.070  12.533
11763POPC  H12X71824   6.195   5.997  12.596
11763POPC  H12Y71825   6.201   6.073  12.433
11763POPC  C31371826   6.233   6.210  12.590
11763POPC  H13X71827   6.298   6.281  12.536
11763POPC  H13Y71828   6.267   6.208  12.695
11763POPC  C31471829   6.085   6.250  12.577
11763POPC  H14X71830   6.067   6.342  12.637
11763POPC  H14Y71831   6.022   6.170  12.620
11763POPC  C31571832   6.044   6.275  12.431
11763POPC  H15X71833   6.003   6.181  12.387
11763POPC  H15Y71834   6.135   6.298  12.372
11763POPC  C31671835   5.944   6.389  12.411
11763POPC  H16X71836   5.840   6.353  12.408
11763POPC  H16Y71837   5.963   6.441  12.315
11763POPC  H16Z71838   5.952   6.463  12.493
11764POPC     N71839   2.611   4.505  10.721
11764POPC   C1271840   2.661   4.484  10.864
11764POPC  H12A71841   2.719   4.569  10.897
11764POPC  H12B71842   2.725   4.397  10.865
11764POPC   C1371843   2.719   4.556  10.631
11764POPC  H13A71844   2.742   4.660  10.649
11764POPC  H13B71845   2.810   4.498  10.640
11764POPC  H13C71846   2.685   4.551  10.527
11764POPC   C1471847   2.560   4.374  10.665
11764POPC  H14A71848   2.527   4.385  10.562
11764POPC  H14B71849   2.634   4.296  10.670
11764POPC  H14C71850   2.472   4.341  10.724
11764POPC   C1571851   2.493   4.598  10.721
11764POPC  H15A71852   2.417   4.563  10.792
11764POPC  H15B71853   2.445   4.600  10.623
11764POPC  H15C71854   2.520   4.698  10.748
11764POPC   C1171855   2.554   4.459  10.973
11764POPC  H11A71856   2.514   4.559  11.004
11764POPC  H11B71857   2.598   4.412  11.063
11764POPC     P71858   2.302   4.392  10.947
11764POPC   O1371859   2.229   4.355  10.824
11764POPC   O1471860   2.288   4.532  10.993
11764POPC   O1271861   2.456   4.371  10.919
11764POPC   O1171862   2.277   4.291  11.066
11764POPC    C171863   2.376   4.193  11.104
11764POPC    HA71864   2.477   4.210  11.063
11764POPC    HB71865   2.345   4.094  11.063
11764POPC    C271866   2.396   4.186  11.257
11764POPC    HS71867   2.296   4.163  11.301
11764POPC   O2171868   2.448   4.314  11.301
11764POPC   C2171869   2.398   4.359  11.413
11764POPC   O2271870   2.305   4.311  11.476
11764POPC   C2271871   2.483   4.477  11.460
11764POPC   H2R71872   2.449   4.568  11.408
11764POPC   H2S71873   2.589   4.456  11.433
11764POPC    C371874   2.496   4.073  11.297
11764POPC    HX71875   2.588   4.090  11.237
11764POPC    HY71876   2.458   3.973  11.266
11764POPC   O3171877   2.536   4.071  11.436
11764POPC   C3171878   2.438   4.036  11.519
11764POPC   O3271879   2.323   4.013  11.490
11764POPC   C3271880   2.489   4.030  11.661
11764POPC   H2X71881   2.590   4.075  11.668
11764POPC   H2Y71882   2.493   3.923  11.693
11764POPC   C2371883   2.471   4.493  11.613
11764POPC   H3R71884   2.502   4.396  11.660
11764POPC   H3S71885   2.365   4.510  11.643
11764POPC   C2471886   2.556   4.607  11.672
11764POPC   H4R71887   2.506   4.704  11.651
11764POPC   H4S71888   2.656   4.609  11.624
11764POPC   C2571889   2.576   4.589  11.823
11764POPC   H5R71890   2.477   4.568  11.870
11764POPC   H5S71891   2.611   4.685  11.867
11764POPC   C2671892   2.677   4.477  11.855
11764POPC   H6R71893   2.779   4.517  11.835
11764POPC   H6S71894   2.662   4.391  11.787
11764POPC   C2771895   2.673   4.422  11.999
11764POPC   H7R71896   2.570   4.390  12.027
11764POPC   H7S71897   2.700   4.507  12.066
11764POPC   C2871898   2.774   4.307  12.022
11764POPC   H8R71899   2.802   4.316  12.129
11764POPC   H8S71900   2.863   4.332  11.960
11764POPC   C2971901   2.738   4.165  11.992
11764POPC   H9171902   2.714   4.145  11.886
11764POPC  C21071903   2.738   4.061  12.079
11764POPC  H10171904   2.710   3.961  12.043
11764POPC  C21171905   2.775   4.067  12.224
11764POPC  H11R71906   2.842   4.153  12.246
11764POPC  H11S71907   2.832   3.976  12.252
11764POPC  C21271908   2.649   4.078  12.311
11764POPC  H12R71909   2.579   4.154  12.270
11764POPC  H12S71910   2.680   4.114  12.411
11764POPC  C21371911   2.576   3.944  12.328
11764POPC  H13R71912   2.651   3.862  12.338
11764POPC  H13S71913   2.516   3.924  12.237
11764POPC  C21471914   2.486   3.945  12.453
11764POPC  H14R71915   2.406   3.869  12.442
11764POPC  H14S71916   2.436   4.043  12.462
11764POPC  C21571917   2.564   3.915  12.581
11764POPC  H15R71918   2.632   4.000  12.598
11764POPC  H15S71919   2.628   3.826  12.562
11764POPC  C21671920   2.477   3.895  12.707
11764POPC  H16R71921   2.454   3.790  12.731
11764POPC  H16S71922   2.376   3.933  12.682
11764POPC  C21771923   2.529   3.971  12.831
11764POPC  H17R71924   2.440   3.997  12.893
11764POPC  H17S71925   2.573   4.067  12.796
11764POPC  C21871926   2.629   3.900  12.924
11764POPC  H18R71927   2.586   3.806  12.963
11764POPC  H18S71928   2.654   3.965  13.010
11764POPC  H18T71929   2.724   3.876  12.876
11764POPC   C3371930   2.386   4.108  11.745
11764POPC   H3X71931   2.289   4.056  11.745
11764POPC   H3Y71932   2.368   4.208  11.700
11764POPC   C3471933   2.434   4.129  11.887
11764POPC   H4X71934   2.517   4.202  11.881
11764POPC   H4Y71935   2.470   4.034  11.931
11764POPC   C3571936   2.328   4.191  11.978
11764POPC   H5X71937   2.371   4.194  12.080
11764POPC   H5Y71938   2.237   4.127  11.981
11764POPC   C3671939   2.289   4.332  11.931
11764POPC   H6X71940   2.232   4.326  11.836
11764POPC   H6Y71941   2.383   4.388  11.910
11764POPC   C3771942   2.211   4.410  12.037
11764POPC   H7X71943   2.123   4.350  12.069
11764POPC   H7Y71944   2.172   4.504  11.990
11764POPC   C3871945   2.301   4.449  12.155
11764POPC   H8X71946   2.356   4.541  12.125
11764POPC   H8Y71947   2.379   4.371  12.174
11764POPC   C3971948   2.231   4.473  12.289
11764POPC   H9X71949   2.226   4.380  12.347
11764POPC   H9Y71950   2.126   4.503  12.270
11764POPC  C31071951   2.300   4.584  12.370
11764POPC  H10X71952   2.235   4.614  12.455
11764POPC  H10Y71953   2.311   4.672  12.303
11764POPC  C31171954   2.437   4.548  12.430
11764POPC  H11X71955   2.494   4.644  12.440
11764POPC  H11Y71956   2.496   4.483  12.362
11764POPC  C31271957   2.422   4.491  12.571
11764POPC  H12X71958   2.496   4.409  12.590
11764POPC  H12Y71959   2.320   4.448  12.582
11764POPC  C31371960   2.436   4.602  12.675
11764POPC  H13X71961   2.383   4.575  12.769
11764POPC  H13Y71962   2.386   4.693  12.634
11764POPC  C31471963   2.583   4.633  12.704
11764POPC  H14X71964   2.640   4.627  12.609
11764POPC  H14Y71965   2.624   4.555  12.772
11764POPC  C31571966   2.610   4.771  12.762
11764POPC  H15X71967   2.566   4.779  12.864
11764POPC  H15Y71968   2.563   4.851  12.702
11764POPC  C31671969   2.761   4.792  12.768
11764POPC  H16X71970   2.789   4.861  12.851
11764POPC  H16Y71971   2.798   4.833  12.671
11764POPC  H16Z71972   2.811   4.694  12.786
11765POPC     N71973   2.649   6.226  10.893
11765POPC   C1271974   2.779   6.240  10.969
11765POPC  H12A71975   2.829   6.143  10.967
11765POPC  H12B71976   2.758   6.265  11.072
11765POPC   C1371977   2.578   6.358  10.891
11765POPC  H13A71978   2.637   6.430  10.833
11765POPC  H13B71979   2.483   6.352  10.837
11765POPC  H13C71980   2.564   6.401  10.988
11765POPC   C1471981   2.682   6.187  10.752
11765POPC  H14A71982   2.594   6.192  10.690
11765POPC  H14B71983   2.755   6.257  10.710
11765POPC  H14C71984   2.725   6.088  10.746
11765POPC   C1571985   2.559   6.120  10.949
11765POPC  H15A71986   2.525   6.145  11.048
11765POPC  H15B71987   2.608   6.023  10.955
11765POPC  H15C71988   2.473   6.107  10.883
11765POPC   C1171989   2.883   6.343  10.915
11765POPC  H11A71990   2.961   6.359  10.994
11765POPC  H11B71991   2.833   6.442  10.904
11765POPC     P71992   3.052   6.190  10.795
11765POPC   O1371993   3.166   6.241  10.873
11765POPC   O1471994   3.078   6.144  10.657
11765POPC   O1271995   2.942   6.304  10.790
11765POPC   O1171996   2.975   6.080  10.877
11765POPC    C171997   3.047   5.973  10.939
11765POPC    HA71998   3.154   5.998  10.958
11765POPC    HB71999   3.044   5.885  10.872
11765POPC    C272000   2.983   5.937  11.076
11765POPC    HS72001   2.885   5.888  11.051
11765POPC   O2172002   2.967   6.058  11.153
11765POPC   C2172003   2.858   6.060  11.228
11765POPC   O2272004   2.770   5.975  11.228
11765POPC   C2272005   2.856   6.190  11.309
11765POPC   H2R72006   2.881   6.273  11.239
11765POPC   H2S72007   2.936   6.185  11.385
11765POPC    C372008   3.070   5.832  11.152
11765POPC    HX72009   3.167   5.881  11.178
11765POPC    HY72010   3.094   5.752  11.079
11765POPC   O3172011   3.003   5.772  11.266
11765POPC   C3172012   3.013   5.843  11.379
11765POPC   O3272013   3.088   5.939  11.392
11765POPC   C3272014   2.920   5.793  11.489
11765POPC   H2X72015   2.948   5.689  11.513
11765POPC   H2Y72016   2.816   5.797  11.450
11765POPC   C2372017   2.719   6.218  11.374
11765POPC   H3R72018   2.637   6.188  11.306
11765POPC   H3S72019   2.710   6.329  11.389
11765POPC   C2472020   2.698   6.152  11.511
11765POPC   H4R72021   2.735   6.047  11.509
11765POPC   H4S72022   2.588   6.145  11.530
11765POPC   C2572023   2.761   6.231  11.629
11765POPC   H5R72024   2.743   6.339  11.610
11765POPC   H5S72025   2.871   6.216  11.630
11765POPC   C2672026   2.699   6.195  11.765
11765POPC   H6R72027   2.730   6.093  11.795
11765POPC   H6S72028   2.588   6.194  11.753
11765POPC   C2772029   2.734   6.288  11.882
11765POPC   H7R72030   2.663   6.265  11.965
11765POPC   H7S72031   2.716   6.393  11.852
11765POPC   C2872032   2.877   6.274  11.939
11765POPC   H8R72033   2.904   6.167  11.941
11765POPC   H8S72034   2.874   6.308  12.045
11765POPC   C2972035   2.977   6.357  11.865
11765POPC   H9172036   2.947   6.462  11.856
11765POPC  C21072037   3.097   6.321  11.816
11765POPC  H10172038   3.156   6.395  11.761
11765POPC  C21172039   3.162   6.185  11.824
11765POPC  H11R72040   3.197   6.154  11.723
11765POPC  H11S72041   3.091   6.106  11.858
11765POPC  C21272042   3.282   6.185  11.921
11765POPC  H12R72043   3.358   6.258  11.885
11765POPC  H12S72044   3.329   6.085  11.920
11765POPC  C21372045   3.246   6.220  12.067
11765POPC  H13R72046   3.188   6.315  12.072
11765POPC  H13S72047   3.340   6.236  12.124
11765POPC  C21472048   3.166   6.109  12.138
11765POPC  H14R72049   3.224   6.014  12.131
11765POPC  H14S72050   3.069   6.094  12.086
11765POPC  C21572051   3.139   6.139  12.286
11765POPC  H15R72052   3.062   6.220  12.294
11765POPC  H15S72053   3.232   6.178  12.334
11765POPC  C21672054   3.092   6.015  12.363
11765POPC  H16R72055   3.168   5.934  12.353
11765POPC  H16S72056   2.998   5.978  12.316
11765POPC  C21772057   3.067   6.040  12.512
11765POPC  H17R72058   3.002   6.129  12.523
11765POPC  H17S72059   3.164   6.066  12.561
11765POPC  C21872060   3.002   5.922  12.585
11765POPC  H18R72061   2.899   5.905  12.546
11765POPC  H18S72062   2.995   5.942  12.694
11765POPC  H18T72063   3.061   5.830  12.569
11765POPC   C3372064   2.935   5.881  11.615
11765POPC   H3X72065   2.926   5.989  11.590
11765POPC   H3Y72066   3.039   5.868  11.654
11765POPC   C3472067   2.835   5.848  11.727
11765POPC   H4X72068   2.801   5.743  11.718
11765POPC   H4Y72069   2.744   5.910  11.715
11765POPC   C3572070   2.901   5.871  11.865
11765POPC   H5X72071   2.934   5.977  11.871
11765POPC   H5Y72072   2.995   5.811  11.868
11765POPC   C3672073   2.818   5.837  11.989
11765POPC   H6X72074   2.882   5.778  12.059
11765POPC   H6Y72075   2.730   5.774  11.962
11765POPC   C3772076   2.776   5.962  12.068
11765POPC   H7X72077   2.707   6.023  12.005
11765POPC   H7Y72078   2.866   6.022  12.091
11765POPC   C3872079   2.708   5.930  12.201
11765POPC   H8X72080   2.776   5.875  12.268
11765POPC   H8Y72081   2.620   5.866  12.178
11765POPC   C3972082   2.656   6.055  12.271
11765POPC   H9X72083   2.574   6.026  12.341
11765POPC   H9Y72084   2.615   6.125  12.195
11765POPC  C31072085   2.760   6.130  12.353
11765POPC  H10X72086   2.850   6.151  12.291
11765POPC  H10Y72087   2.790   6.068  12.439
11765POPC  C31172088   2.703   6.262  12.402
11765POPC  H11X72089   2.596   6.250  12.430
11765POPC  H11Y72090   2.707   6.336  12.318
11765POPC  C31272091   2.779   6.317  12.523
11765POPC  H12X72092   2.770   6.427  12.513
11765POPC  H12Y72093   2.887   6.295  12.518
11765POPC  C31372094   2.717   6.278  12.659
11765POPC  H13X72095   2.609   6.301  12.652
11765POPC  H13Y72096   2.760   6.345  12.736
11765POPC  C31472097   2.722   6.132  12.711
11765POPC  H14X72098   2.828   6.102  12.722
11765POPC  H14Y72099   2.673   6.064  12.640
11765POPC  C31572100   2.650   6.124  12.848
11765POPC  H15X72101   2.543   6.102  12.833
11765POPC  H15Y72102   2.655   6.226  12.893
11765POPC  C31672103   2.703   6.027  12.954
11765POPC  H16X72104   2.814   6.023  12.955
11765POPC  H16Y72105   2.663   5.925  12.939
11765POPC  H16Z72106   2.670   6.060  13.055
11766POPC     N72107   6.902   5.817  10.683
11766POPC   C1272108   6.902   5.665  10.694
11766POPC  H12A72109   7.002   5.629  10.680
11766POPC  H12B72110   6.845   5.624  10.611
11766POPC   C1372111   6.767   5.875  10.715
11766POPC  H13A72112   6.694   5.843  10.641
11766POPC  H13B72113   6.732   5.836  10.812
11766POPC  H13C72114   6.767   5.983  10.719
11766POPC   C1472115   7.002   5.871  10.780
11766POPC  H14A72116   7.103   5.843  10.753
11766POPC  H14B72117   6.993   5.979  10.785
11766POPC  H14C72118   6.980   5.831  10.879
11766POPC   C1572119   6.937   5.858  10.543
11766POPC  H15A72120   6.939   5.966  10.532
11766POPC  H15B72121   6.866   5.817  10.472
11766POPC  H15C72122   7.035   5.820  10.515
11766POPC   C1172123   6.846   5.602  10.825
11766POPC  H11A72124   6.901   5.652  10.909
11766POPC  H11B72125   6.873   5.494  10.828
11766POPC     P72126   6.637   5.603  10.984
11766POPC   O1372127   6.537   5.494  10.983
11766POPC   O1472128   6.588   5.739  11.018
11766POPC   O1272129   6.704   5.616  10.837
11766POPC   O1172130   6.761   5.564  11.071
11766POPC    C172131   6.753   5.485  11.189
11766POPC    HA72132   6.802   5.386  11.173
11766POPC    HB72133   6.647   5.465  11.221
11766POPC    C272134   6.823   5.557  11.306
11766POPC    HS72135   6.822   5.488  11.393
11766POPC   O2172136   6.751   5.679  11.330
11766POPC   C2172137   6.757   5.719  11.454
11766POPC   O2272138   6.807   5.658  11.547
11766POPC   C2272139   6.686   5.852  11.469
11766POPC   H2R72140   6.614   5.865  11.386
11766POPC   H2S72141   6.760   5.934  11.467
11766POPC    C372142   6.970   5.592  11.270
11766POPC    HX72143   6.967   5.635  11.168
11766POPC    HY72144   7.031   5.499  11.264
11766POPC   O3172145   7.028   5.692  11.357
11766POPC   C3172146   7.085   5.644  11.467
11766POPC   O3272147   7.095   5.526  11.498
11766POPC   C3272148   7.142   5.758  11.552
11766POPC   H2X72149   7.242   5.780  11.512
11766POPC   H2Y72150   7.156   5.717  11.654
11766POPC   C2372151   6.616   5.844  11.604
11766POPC   H3R72152   6.692   5.820  11.682
11766POPC   H3S72153   6.543   5.760  11.604
11766POPC   C2472154   6.544   5.972  11.646
11766POPC   H4R72155   6.462   5.995  11.574
11766POPC   H4S72156   6.615   6.057  11.645
11766POPC   C2572157   6.486   5.952  11.785
11766POPC   H5R72158   6.424   5.860  11.789
11766POPC   H5S72159   6.421   6.038  11.809
11766POPC   C2672160   6.596   5.941  11.891
11766POPC   H6R72161   6.662   5.853  11.875
11766POPC   H6S72162   6.547   5.922  11.989
11766POPC   C2772163   6.678   6.070  11.900
11766POPC   H7R72164   6.611   6.156  11.879
11766POPC   H7S72165   6.757   6.071  11.822
11766POPC   C2872166   6.738   6.090  12.039
11766POPC   H8R72167   6.660   6.093  12.117
11766POPC   H8S72168   6.793   6.186  12.040
11766POPC   C2972169   6.834   5.978  12.059
11766POPC   H9172170   6.892   5.967  11.968
11766POPC  C21072171   6.835   5.878  12.148
11766POPC  H10172172   6.914   5.802  12.142
11766POPC  C21172173   6.734   5.857  12.255
11766POPC  H11R72174   6.678   5.951  12.276
11766POPC  H11S72175   6.779   5.824  12.350
11766POPC  C21272176   6.639   5.752  12.196
11766POPC  H12R72177   6.627   5.757  12.086
11766POPC  H12S72178   6.540   5.776  12.237
11766POPC  C21372179   6.667   5.608  12.235
11766POPC  H13R72180   6.739   5.604  12.320
11766POPC  H13S72181   6.716   5.556  12.149
11766POPC  C21472182   6.536   5.538  12.274
11766POPC  H14R72183   6.545   5.431  12.252
11766POPC  H14S72184   6.452   5.575  12.210
11766POPC  C21572185   6.504   5.562  12.423
11766POPC  H15R72186   6.444   5.653  12.434
11766POPC  H15S72187   6.600   5.581  12.475
11766POPC  C21672188   6.432   5.448  12.495
11766POPC  H16R72189   6.442   5.356  12.435
11766POPC  H16S72190   6.323   5.471  12.498
11766POPC  C21772191   6.483   5.425  12.639
11766POPC  H17R72192   6.418   5.349  12.688
11766POPC  H17S72193   6.472   5.521  12.694
11766POPC  C21872194   6.628   5.376  12.654
11766POPC  H18R72195   6.698   5.432  12.589
11766POPC  H18S72196   6.633   5.268  12.627
11766POPC  H18T72197   6.661   5.388  12.759
11766POPC   C3372198   7.058   5.889  11.561
11766POPC   H3X72199   6.967   5.882  11.499
11766POPC   H3Y72200   7.114   5.977  11.525
11766POPC   C3472201   7.020   5.920  11.706
11766POPC   H4X72202   6.982   5.824  11.750
11766POPC   H4Y72203   6.937   5.993  11.711
11766POPC   C3572204   7.141   5.972  11.786
11766POPC   H5X72205   7.160   6.079  11.761
11766POPC   H5Y72206   7.231   5.915  11.754
11766POPC   C3672207   7.120   5.955  11.936
11766POPC   H6X72208   7.050   5.869  11.944
11766POPC   H6Y72209   7.076   6.046  11.981
11766POPC   C3772210   7.238   5.907  12.019
11766POPC   H7X72211   7.300   5.991  12.057
11766POPC   H7Y72212   7.296   5.848  11.949
11766POPC   C3872213   7.202   5.807  12.129
11766POPC   H8X72214   7.292   5.747  12.156
11766POPC   H8Y72215   7.125   5.735  12.092
11766POPC   C3972216   7.153   5.879  12.253
11766POPC   H9X72217   7.069   5.947  12.228
11766POPC   H9Y72218   7.232   5.946  12.289
11766POPC  C31072219   7.111   5.784  12.365
11766POPC  H10X72220   7.196   5.722  12.399
11766POPC  H10Y72221   7.033   5.715  12.325
11766POPC  C31172222   7.051   5.862  12.482
11766POPC  H11X72223   6.981   5.939  12.443
11766POPC  H11Y72224   7.130   5.915  12.539
11766POPC  C31272225   6.975   5.766  12.573
11766POPC  H12X72226   7.045   5.727  12.648
11766POPC  H12Y72227   6.939   5.679  12.514
11766POPC  C31372228   6.856   5.829  12.644
11766POPC  H13X72229   6.795   5.887  12.573
11766POPC  H13Y72230   6.896   5.898  12.722
11766POPC  C31472231   6.770   5.718  12.707
11766POPC  H14X72232   6.835   5.654  12.771
11766POPC  H14Y72233   6.731   5.653  12.626
11766POPC  C31572234   6.653   5.770  12.789
11766POPC  H15X72235   6.611   5.686  12.847
11766POPC  H15Y72236   6.572   5.806  12.721
11766POPC  C31672237   6.690   5.883  12.885
11766POPC  H16X72238   6.716   5.975  12.829
11766POPC  H16Y72239   6.777   5.855  12.948
11766POPC  H16Z72240   6.603   5.905  12.951
11767POPC     N72241   5.426   6.830  10.689
11767POPC   C1272242   5.340   6.846  10.815
11767POPC  H12A72243   5.403   6.819  10.900
11767POPC  H12B72244   5.259   6.776  10.811
11767POPC   C1372245   5.557   6.899  10.713
11767POPC  H13A72246   5.624   6.887  10.629
11767POPC  H13B72247   5.540   7.005  10.733
11767POPC  H13C72248   5.603   6.863  10.805
11767POPC   C1472249   5.457   6.686  10.666
11767POPC  H14A72250   5.533   6.677  10.588
11767POPC  H14B72251   5.498   6.641  10.757
11767POPC  H14C72252   5.370   6.631  10.634
11767POPC   C1572253   5.365   6.890  10.567
11767POPC  H15A72254   5.433   6.880  10.482
11767POPC  H15B72255   5.346   6.995  10.584
11767POPC  H15C72256   5.272   6.842  10.541
11767POPC   C1172257   5.281   6.986  10.851
11767POPC  H11A72258   5.213   6.974  10.940
11767POPC  H11B72259   5.217   7.021  10.767
11767POPC     P72260   5.469   7.080  11.010
11767POPC   O1372261   5.563   7.194  11.011
11767POPC   O1472262   5.528   6.944  11.011
11767POPC   O1272263   5.380   7.084  10.878
11767POPC   O1172264   5.363   7.088  11.129
11767POPC    C172265   5.387   7.015  11.250
11767POPC    HA72266   5.428   7.084  11.328
11767POPC    HB72267   5.460   6.932  11.238
11767POPC    C272268   5.257   6.950  11.304
11767POPC    HS72269   5.213   6.888  11.223
11767POPC   O2172270   5.165   7.049  11.350
11767POPC   C2172271   5.097   7.111  11.257
11767POPC   O2272272   5.059   7.066  11.150
11767POPC   C2272273   5.067   7.251  11.310
11767POPC   H2R72274   4.994   7.245  11.393
11767POPC   H2S72275   5.020   7.309  11.228
11767POPC    C372276   5.289   6.858  11.423
11767POPC    HX72277   5.341   6.774  11.374
11767POPC    HY72278   5.192   6.824  11.468
11767POPC   O3172279   5.375   6.919  11.522
11767POPC   C3172280   5.383   6.848  11.635
11767POPC   O3272281   5.332   6.739  11.651
11767POPC   C3272282   5.464   6.924  11.739
11767POPC   H2X72283   5.497   7.020  11.694
11767POPC   H2Y72284   5.553   6.864  11.766
11767POPC   C2372285   5.198   7.321  11.355
11767POPC   H3R72286   5.172   7.428  11.360
11767POPC   H3S72287   5.276   7.311  11.275
11767POPC   C2472288   5.258   7.283  11.492
11767POPC   H4R72289   5.336   7.360  11.516
11767POPC   H4S72290   5.310   7.185  11.487
11767POPC   C2572291   5.155   7.280  11.606
11767POPC   H5R72292   5.087   7.193  11.592
11767POPC   H5S72293   5.096   7.373  11.597
11767POPC   C2672294   5.216   7.278  11.747
11767POPC   H6R72295   5.271   7.374  11.761
11767POPC   H6S72296   5.290   7.196  11.755
11767POPC   C2772297   5.112   7.265  11.860
11767POPC   H7R72298   5.088   7.158  11.878
11767POPC   H7S72299   5.019   7.315  11.825
11767POPC   C2872300   5.158   7.334  11.990
11767POPC   H8R72301   5.201   7.431  11.960
11767POPC   H8S72302   5.242   7.276  12.034
11767POPC   C2972303   5.050   7.361  12.092
11767POPC   H9172304   5.002   7.459  12.083
11767POPC  C21072305   5.008   7.279  12.189
11767POPC  H10172306   4.929   7.314  12.258
11767POPC  C21172307   5.058   7.140  12.217
11767POPC  H11R72308   5.094   7.131  12.322
11767POPC  H11S72309   5.144   7.114  12.151
11767POPC  C21272310   4.947   7.036  12.191
11767POPC  H12R72311   4.990   6.934  12.204
11767POPC  H12S72312   4.914   7.043  12.085
11767POPC  C21372313   4.823   7.048  12.282
11767POPC  H13R72314   4.755   6.965  12.256
11767POPC  H13S72315   4.768   7.143  12.261
11767POPC  C21472316   4.850   7.037  12.433
11767POPC  H14R72317   4.751   7.032  12.486
11767POPC  H14S72318   4.903   7.128  12.469
11767POPC  C21572319   4.932   6.912  12.469
11767POPC  H15R72320   5.037   6.929  12.437
11767POPC  H15S72321   4.894   6.826  12.411
11767POPC  C21672322   4.931   6.879  12.619
11767POPC  H16R72323   4.831   6.843  12.651
11767POPC  H16S72324   4.951   6.974  12.675
11767POPC  C21772325   5.039   6.777  12.658
11767POPC  H17R72326   5.049   6.778  12.769
11767POPC  H17S72327   5.137   6.812  12.616
11767POPC  C21872328   5.014   6.633  12.614
11767POPC  H18R72329   4.922   6.593  12.662
11767POPC  H18S72330   5.099   6.568  12.644
11767POPC  H18T72331   5.002   6.627  12.503
11767POPC   C3372332   5.379   6.953  11.865
11767POPC   H3X72333   5.363   6.860  11.923
11767POPC   H3Y72334   5.278   6.990  11.834
11767POPC   C3472335   5.442   7.061  11.954
11767POPC   H4X72336   5.364   7.099  12.024
11767POPC   H4Y72337   5.473   7.147  11.890
11767POPC   C3572338   5.561   7.011  12.035
11767POPC   H5X72339   5.631   6.956  11.968
11767POPC   H5Y72340   5.526   6.939  12.112
11767POPC   C3672341   5.640   7.124  12.104
11767POPC   H6X72342   5.677   7.196  12.027
11767POPC   H6Y72343   5.728   7.078  12.152
11767POPC   C3772344   5.557   7.201  12.209
11767POPC   H7X72345   5.514   7.128  12.281
11767POPC   H7Y72346   5.472   7.252  12.158
11767POPC   C3872347   5.638   7.307  12.286
11767POPC   H8X72348   5.571   7.353  12.363
11767POPC   H8Y72349   5.667   7.387  12.215
11767POPC   C3972350   5.765   7.254  12.354
11767POPC   H9X72351   5.813   7.337  12.410
11767POPC   H9Y72352   5.837   7.221  12.276
11767POPC  C31072353   5.742   7.137  12.452
11767POPC  H10X72354   5.841   7.108  12.495
11767POPC  H10Y72355   5.704   7.048  12.396
11767POPC  C31172356   5.646   7.170  12.566
11767POPC  H11X72357   5.541   7.168  12.528
11767POPC  H11Y72358   5.666   7.274  12.602
11767POPC  C31272359   5.659   7.075  12.686
11767POPC  H12X72360   5.585   7.105  12.764
11767POPC  H12Y72361   5.760   7.089  12.731
11767POPC  C31372362   5.640   6.926  12.654
11767POPC  H13X72363   5.652   6.870  12.750
11767POPC  H13Y72364   5.719   6.890  12.585
11767POPC  C31472365   5.502   6.894  12.594
11767POPC  H14X72366   5.502   6.927  12.487
11767POPC  H14Y72367   5.425   6.953  12.647
11767POPC  C31572368   5.462   6.746  12.603
11767POPC  H15X72369   5.538   6.682  12.555
11767POPC  H15Y72370   5.365   6.733  12.549
11767POPC  C31672371   5.435   6.700  12.746
11767POPC  H16X72372   5.362   6.769  12.793
11767POPC  H16Y72373   5.529   6.701  12.806
11767POPC  H16Z72374   5.392   6.598  12.748
11768POPC     N72375   6.599   3.556  10.947
11768POPC   C1272376   6.642   3.435  10.864
11768POPC  H12A72377   6.608   3.448  10.762
11768POPC  H12B72378   6.589   3.348  10.902
11768POPC   C1372379   6.617   3.682  10.869
11768POPC  H13A72380   6.611   3.770  10.931
11768POPC  H13B72381   6.714   3.679  10.820
11768POPC  H13C72382   6.540   3.691  10.794
11768POPC   C1472383   6.454   3.544  10.978
11768POPC  H14A72384   6.437   3.490  11.070
11768POPC  H14B72385   6.412   3.645  10.991
11768POPC  H14C72386   6.398   3.502  10.896
11768POPC   C1572387   6.673   3.570  11.076
11768POPC  H15A72388   6.780   3.576  11.061
11768POPC  H15B72389   6.649   3.488  11.143
11768POPC  H15C72390   6.640   3.659  11.129
11768POPC   C1172391   6.792   3.397  10.852
11768POPC  H11A72392   6.797   3.296  10.806
11768POPC  H11B72393   6.835   3.391  10.955
11768POPC     P72394   7.021   3.499  10.794
11768POPC   O1372395   7.081   3.581  10.685
11768POPC   O1472396   7.077   3.364  10.820
11768POPC   O1272397   6.864   3.486  10.767
11768POPC   O1172398   7.017   3.581  10.931
11768POPC    C172399   6.965   3.715  10.928
11768POPC    HA72400   6.869   3.719  10.985
11768POPC    HB72401   6.945   3.753  10.825
11768POPC    C272402   7.059   3.819  10.995
11768POPC    HS72403   7.150   3.829  10.931
11768POPC   O2172404   7.095   3.779  11.126
11768POPC   C2172405   7.188   3.687  11.135
11768POPC   O2272406   7.275   3.663  11.052
11768POPC   C2272407   7.160   3.607  11.262
11768POPC   H2R72408   7.171   3.678  11.346
11768POPC   H2S72409   7.235   3.526  11.272
11768POPC    C372410   6.991   3.959  11.003
11768POPC    HX72411   6.979   3.992  10.898
11768POPC    HY72412   7.064   4.027  11.052
11768POPC   O3172413   6.859   3.967  11.064
11768POPC   C3172414   6.849   3.972  11.195
11768POPC   O3272415   6.933   3.938  11.276
11768POPC   C3272416   6.716   4.038  11.236
11768POPC   H2X72417   6.632   3.977  11.200
11768POPC   H2Y72418   6.713   4.138  11.188
11768POPC   C2372419   7.016   3.548  11.261
11768POPC   H3R72420   7.008   3.475  11.177
11768POPC   H3S72421   6.941   3.628  11.242
11768POPC   C2472422   6.979   3.478  11.393
11768POPC   H4R72423   7.066   3.419  11.429
11768POPC   H4S72424   6.896   3.407  11.375
11768POPC   C2572425   6.937   3.578  11.501
11768POPC   H5R72426   6.831   3.560  11.525
11768POPC   H5S72427   6.945   3.682  11.463
11768POPC   C2672428   7.017   3.564  11.630
11768POPC   H6R72429   7.029   3.457  11.658
11768POPC   H6S72430   6.960   3.611  11.713
11768POPC   C2772431   7.153   3.635  11.618
11768POPC   H7R72432   7.144   3.719  11.545
11768POPC   H7S72433   7.228   3.564  11.575
11768POPC   C2872434   7.201   3.693  11.750
11768POPC   H8R72435   7.307   3.727  11.738
11768POPC   H8S72436   7.199   3.613  11.827
11768POPC   C2972437   7.114   3.811  11.787
11768POPC   H9172438   7.082   3.871  11.700
11768POPC  C21072439   7.073   3.846  11.909
11768POPC  H10172440   7.010   3.936  11.920
11768POPC  C21172441   7.106   3.776  12.037
11768POPC  H11R72442   7.059   3.675  12.034
11768POPC  H11S72443   7.059   3.832  12.121
11768POPC  C21272444   7.254   3.755  12.072
11768POPC  H12R72445   7.304   3.853  12.090
11768POPC  H12S72446   7.308   3.708  11.987
11768POPC  C21372447   7.273   3.665  12.195
11768POPC  H13R72448   7.379   3.629  12.197
11768POPC  H13S72449   7.207   3.576  12.183
11768POPC  C21472450   7.244   3.735  12.327
11768POPC  H14R72451   7.144   3.784  12.322
11768POPC  H14S72452   7.319   3.815  12.343
11768POPC  C21572453   7.245   3.641  12.448
11768POPC  H15R72454   7.345   3.594  12.458
11768POPC  H15S72455   7.170   3.560  12.431
11768POPC  C21672456   7.210   3.715  12.577
11768POPC  H16R72457   7.119   3.776  12.559
11768POPC  H16S72458   7.292   3.786  12.603
11768POPC  C21772459   7.182   3.622  12.696
11768POPC  H17R72460   7.275   3.566  12.720
11768POPC  H17S72461   7.105   3.548  12.666
11768POPC  C21872462   7.134   3.698  12.819
11768POPC  H18R72463   7.034   3.742  12.801
11768POPC  H18S72464   7.204   3.781  12.842
11768POPC  H18T72465   7.127   3.631  12.907
11768POPC   C3372466   6.711   4.057  11.390
11768POPC   H3X72467   6.794   4.123  11.422
11768POPC   H3Y72468   6.735   3.959  11.435
11768POPC   C3472469   6.580   4.109  11.457
11768POPC   H4X72470   6.568   4.217  11.435
11768POPC   H4Y72471   6.601   4.102  11.566
11768POPC   C3572472   6.450   4.033  11.419
11768POPC   H5X72473   6.479   3.936  11.374
11768POPC   H5Y72474   6.402   4.090  11.336
11768POPC   C3672475   6.338   4.000  11.525
11768POPC   H6X72476   6.295   3.905  11.488
11768POPC   H6Y72477   6.259   4.078  11.519
11768POPC   C3772478   6.372   3.974  11.675
11768POPC   H7X72479   6.330   4.052  11.741
11768POPC   H7Y72480   6.480   3.989  11.668
11768POPC   C3872481   6.353   3.828  11.734
11768POPC   H8X72482   6.432   3.773  11.685
11768POPC   H8Y72483   6.261   3.781  11.694
11768POPC   C3972484   6.382   3.782  11.882
11768POPC   H9X72485   6.289   3.783  11.941
11768POPC   H9Y72486   6.451   3.849  11.934
11768POPC  C31072487   6.444   3.637  11.880
11768POPC  H10X72488   6.534   3.636  11.816
11768POPC  H10Y72489   6.366   3.580  11.824
11768POPC  C31172490   6.480   3.548  12.004
11768POPC  H11X72491   6.471   3.446  11.958
11768POPC  H11Y72492   6.401   3.548  12.079
11768POPC  C31272493   6.620   3.534  12.073
11768POPC  H12X72494   6.682   3.464  12.013
11768POPC  H12Y72495   6.600   3.483  12.170
11768POPC  C31372496   6.710   3.655  12.107
11768POPC  H13X72497   6.652   3.735  12.157
11768POPC  H13Y72498   6.748   3.696  12.011
11768POPC  C31472499   6.840   3.624  12.187
11768POPC  H14X72500   6.894   3.720  12.202
11768POPC  H14Y72501   6.904   3.559  12.122
11768POPC  C31572502   6.834   3.554  12.324
11768POPC  H15X72503   6.939   3.525  12.348
11768POPC  H15Y72504   6.775   3.460  12.319
11768POPC  C31672505   6.785   3.640  12.441
11768POPC  H16X72506   6.845   3.619  12.533
11768POPC  H16Y72507   6.679   3.618  12.464
11768POPC  H16Z72508   6.794   3.749  12.418
11769POPC     N72509   5.874   2.310  10.881
11769POPC   C1272510   5.770   2.358  10.982
11769POPC  H12A72511   5.818   2.417  11.059
11769POPC  H12B72512   5.726   2.270  11.027
11769POPC   C1372513   5.822   2.191  10.806
11769POPC  H13A72514   5.893   2.155  10.733
11769POPC  H13B72515   5.794   2.111  10.873
11769POPC  H13C72516   5.730   2.221  10.755
11769POPC   C1472517   5.904   2.417  10.780
11769POPC  H14A72518   5.808   2.445  10.735
11769POPC  H14B72519   5.942   2.508  10.824
11769POPC  H14C72520   5.971   2.382  10.703
11769POPC   C1572521   5.992   2.270  10.957
11769POPC  H15A72522   6.028   2.348  11.022
11769POPC  H15B72523   6.076   2.242  10.891
11769POPC  H15C72524   5.972   2.184  11.019
11769POPC   C1172525   5.654   2.441  10.926
11769POPC  H11A72526   5.686   2.546  10.909
11769POPC  H11B72527   5.569   2.441  10.998
11769POPC     P72528   5.496   2.431  10.727
11769POPC   O1372529   5.501   2.367  10.592
11769POPC   O1472530   5.507   2.579  10.731
11769POPC   O1272531   5.619   2.379  10.804
11769POPC   O1172532   5.384   2.373  10.826
11769POPC    C172533   5.400   2.232  10.858
11769POPC    HA72534   5.505   2.197  10.860
11769POPC    HB72535   5.349   2.170  10.781
11769POPC    C272536   5.345   2.190  10.997
11769POPC    HS72537   5.234   2.190  10.989
11769POPC   O2172538   5.395   2.274  11.104
11769POPC   C2172539   5.306   2.305  11.197
11769POPC   O2272540   5.186   2.285  11.189
11769POPC   C2272541   5.381   2.363  11.319
11769POPC   H2R72542   5.386   2.473  11.303
11769POPC   H2S72543   5.485   2.324  11.317
11769POPC    C372544   5.393   2.044  11.022
11769POPC    HX72545   5.378   1.987  10.928
11769POPC    HY72546   5.329   1.999  11.100
11769POPC   O3172547   5.534   2.044  11.055
11769POPC   C3172548   5.576   1.937  11.120
11769POPC   O3272549   5.518   1.832  11.134
11769POPC   C3272550   5.703   1.972  11.195
11769POPC   H2X72551   5.790   1.977  11.127
11769POPC   H2Y72552   5.720   1.889  11.267
11769POPC   C2372553   5.320   2.336  11.460
11769POPC   H3R72554   5.306   2.228  11.478
11769POPC   H3S72555   5.219   2.384  11.466
11769POPC   C2472556   5.409   2.395  11.571
11769POPC   H4R72557   5.442   2.496  11.539
11769POPC   H4S72558   5.499   2.333  11.583
11769POPC   C2572559   5.346   2.410  11.710
11769POPC   H5R72560   5.257   2.475  11.702
11769POPC   H5S72561   5.418   2.465  11.775
11769POPC   C2672562   5.310   2.279  11.783
11769POPC   H6R72563   5.390   2.203  11.770
11769POPC   H6S72564   5.217   2.237  11.739
11769POPC   C2772565   5.289   2.304  11.935
11769POPC   H7R72566   5.233   2.399  11.949
11769POPC   H7S72567   5.389   2.316  11.982
11769POPC   C2872568   5.208   2.192  12.003
11769POPC   H8R72569   5.233   2.098  11.950
11769POPC   H8S72570   5.102   2.208  11.975
11769POPC   C2972571   5.211   2.175  12.153
11769POPC   H9172572   5.112   2.152  12.195
11769POPC  C21072573   5.312   2.187  12.242
11769POPC  H10172574   5.284   2.179  12.347
11769POPC  C21172575   5.459   2.218  12.231
11769POPC  H11R72576   5.502   2.203  12.332
11769POPC  H11S72577   5.459   2.328  12.212
11769POPC  C21272578   5.568   2.158  12.136
11769POPC  H12R72579   5.644   2.238  12.149
11769POPC  H12S72580   5.541   2.158  12.028
11769POPC  C21372581   5.668   2.047  12.179
11769POPC  H13R72582   5.727   2.082  12.266
11769POPC  H13S72583   5.745   2.046  12.097
11769POPC  C21472584   5.623   1.902  12.199
11769POPC  H14R72585   5.683   1.837  12.131
11769POPC  H14S72586   5.521   1.884  12.168
11769POPC  C21572587   5.624   1.842  12.340
11769POPC  H15R72588   5.710   1.773  12.342
11769POPC  H15S72589   5.535   1.777  12.351
11769POPC  C21672590   5.628   1.940  12.458
11769POPC  H16R72591   5.627   2.045  12.426
11769POPC  H16S72592   5.725   1.922  12.508
11769POPC  C21772593   5.515   1.930  12.561
11769POPC  H17R72594   5.546   1.863  12.644
11769POPC  H17S72595   5.428   1.883  12.514
11769POPC  C21872596   5.469   2.067  12.615
11769POPC  H18R72597   5.520   2.092  12.710
11769POPC  H18S72598   5.360   2.064  12.636
11769POPC  H18T72599   5.485   2.149  12.542
11769POPC   C3372600   5.682   2.103  11.274
11769POPC   H3X72601   5.577   2.110  11.311
11769POPC   H3Y72602   5.697   2.191  11.208
11769POPC   C3472603   5.776   2.109  11.394
11769POPC   H4X72604   5.877   2.127  11.354
11769POPC   H4Y72605   5.775   2.012  11.450
11769POPC   C3572606   5.746   2.223  11.490
11769POPC   H5X72607   5.800   2.205  11.586
11769POPC   H5Y72608   5.639   2.222  11.513
11769POPC   C3672609   5.793   2.355  11.429
11769POPC   H6X72610   5.707   2.424  11.417
11769POPC   H6Y72611   5.834   2.338  11.326
11769POPC   C3772612   5.904   2.421  11.511
11769POPC   H7X72613   5.993   2.436  11.446
11769POPC   H7Y72614   5.937   2.357  11.596
11769POPC   C3872615   5.859   2.557  11.564
11769POPC   H8X72616   5.832   2.621  11.477
11769POPC   H8Y72617   5.948   2.598  11.615
11769POPC   C3972618   5.741   2.555  11.660
11769POPC   H9X72619   5.666   2.482  11.625
11769POPC   H9Y72620   5.692   2.655  11.663
11769POPC  C31072621   5.787   2.519  11.801
11769POPC  H10X72622   5.839   2.606  11.847
11769POPC  H10Y72623   5.858   2.434  11.797
11769POPC  C31172624   5.668   2.479  11.886
11769POPC  H11X72625   5.613   2.397  11.835
11769POPC  H11Y72626   5.598   2.565  11.899
11769POPC  C31272627   5.710   2.426  12.022
11769POPC  H12X72628   5.761   2.328  12.007
11769POPC  H12Y72629   5.613   2.412  12.075
11769POPC  C31372630   5.800   2.514  12.109
11769POPC  H13X72631   5.750   2.612  12.128
11769POPC  H13Y72632   5.896   2.532  12.056
11769POPC  C31472633   5.829   2.443  12.243
11769POPC  H14X72634   5.919   2.489  12.290
11769POPC  H14Y72635   5.854   2.337  12.223
11769POPC  C31572636   5.712   2.450  12.342
11769POPC  H15X72637   5.617   2.437  12.286
11769POPC  H15Y72638   5.708   2.552  12.384
11769POPC  C31672639   5.715   2.346  12.454
11769POPC  H16X72640   5.801   2.365  12.522
11769POPC  H16Y72641   5.726   2.244  12.412
11769POPC  H16Z72642   5.621   2.351  12.514
11770POPC     N72643   2.778   3.086  10.790
11770POPC   C1272644   2.745   3.119  10.934
11770POPC  H12A72645   2.811   3.199  10.967
11770POPC  H12B72646   2.767   3.033  10.997
11770POPC   C1372647   2.782   3.213  10.710
11770POPC  H13A72648   2.690   3.269  10.730
11770POPC  H13B72649   2.863   3.278  10.741
11770POPC  H13C72650   2.789   3.196  10.604
11770POPC   C1472651   2.913   3.026  10.776
11770POPC  H14A72652   2.928   2.942  10.843
11770POPC  H14B72653   2.928   2.995  10.674
11770POPC  H14C72654   2.987   3.100  10.802
11770POPC   C1572655   2.670   3.000  10.732
11770POPC  H15A72656   2.690   2.977  10.628
11770POPC  H15B72657   2.575   3.055  10.735
11770POPC  H15C72658   2.658   2.909  10.788
11770POPC   C1172659   2.600   3.165  10.959
11770POPC  H11A72660   2.588   3.191  11.065
11770POPC  H11B72661   2.528   3.083  10.939
11770POPC     P72662   2.429   3.318  10.835
11770POPC   O1372663   2.368   3.197  10.775
11770POPC   O1472664   2.438   3.438  10.751
11770POPC   O1272665   2.574   3.282  10.882
11770POPC   O1172666   2.357   3.354  10.971
11770POPC    C172667   2.418   3.452  11.055
11770POPC    HA72668   2.368   3.551  11.036
11770POPC    HB72669   2.527   3.467  11.039
11770POPC    C272670   2.390   3.413  11.202
11770POPC    HS72671   2.409   3.503  11.265
11770POPC   O2172672   2.466   3.300  11.246
11770POPC   C2172673   2.591   3.321  11.274
11770POPC   O2272674   2.651   3.427  11.270
11770POPC   C2272675   2.654   3.189  11.316
11770POPC   H2R72676   2.752   3.182  11.263
11770POPC   H2S72677   2.590   3.103  11.287
11770POPC    C372678   2.242   3.371  11.213
11770POPC    HX72679   2.231   3.272  11.162
11770POPC    HY72680   2.180   3.443  11.157
11770POPC   O3172681   2.199   3.369  11.351
11770POPC   C3172682   2.214   3.253  11.414
11770POPC   O3272683   2.258   3.151  11.366
11770POPC   C3272684   2.158   3.265  11.555
11770POPC   H2X72685   2.089   3.180  11.570
11770POPC   H2Y72686   2.099   3.359  11.563
11770POPC   C2372687   2.680   3.193  11.467
11770POPC   H3R72688   2.674   3.297  11.507
11770POPC   H3S72689   2.785   3.166  11.484
11770POPC   C2472690   2.583   3.111  11.554
11770POPC   H4R72691   2.486   3.163  11.555
11770POPC   H4S72692   2.624   3.113  11.657
11770POPC   C2572693   2.544   2.965  11.522
11770POPC   H5R72694   2.632   2.907  11.488
11770POPC   H5S72695   2.468   2.963  11.440
11770POPC   C2672696   2.483   2.908  11.653
11770POPC   H6R72697   2.393   2.969  11.676
11770POPC   H6S72698   2.556   2.926  11.735
11770POPC   C2772699   2.443   2.760  11.661
11770POPC   H7R72700   2.536   2.699  11.650
11770POPC   H7S72701   2.374   2.733  11.579
11770POPC   C2872702   2.380   2.727  11.799
11770POPC   H8R72703   2.452   2.757  11.879
11770POPC   H8S72704   2.371   2.616  11.803
11770POPC   C2972705   2.242   2.783  11.827
11770POPC   H9172706   2.170   2.762  11.747
11770POPC  C21072707   2.198   2.855  11.932
11770POPC  H10172708   2.092   2.886  11.932
11770POPC  C21172709   2.271   2.902  12.056
11770POPC  H11R72710   2.374   2.861  12.063
11770POPC  H11S72711   2.217   2.871  12.148
11770POPC  C21272712   2.278   3.056  12.053
11770POPC  H12R72713   2.178   3.102  12.036
11770POPC  H12S72714   2.341   3.082  11.965
11770POPC  C21372715   2.340   3.123  12.177
11770POPC  H13R72716   2.414   3.053  12.222
11770POPC  H13S72717   2.264   3.145  12.255
11770POPC  C21472718   2.415   3.249  12.134
11770POPC  H14R72719   2.476   3.215  12.048
11770POPC  H14S72720   2.487   3.281  12.212
11770POPC  C21572721   2.329   3.368  12.086
11770POPC  H15R72722   2.259   3.334  12.007
11770POPC  H15S72723   2.394   3.447  12.042
11770POPC  C21672724   2.251   3.443  12.192
11770POPC  H16R72725   2.175   3.369  12.222
11770POPC  H16S72726   2.195   3.528  12.147
11770POPC  C21772727   2.336   3.495  12.309
11770POPC  H17R72728   2.434   3.445  12.314
11770POPC  H17S72729   2.283   3.470  12.403
11770POPC  C21872730   2.356   3.645  12.310
11770POPC  H18R72731   2.407   3.681  12.218
11770POPC  H18S72732   2.418   3.672  12.398
11770POPC  H18T72733   2.257   3.696  12.319
11770POPC   C3372734   2.265   3.263  11.664
11770POPC   H3X72735   2.315   3.164  11.670
11770POPC   H3Y72736   2.213   3.277  11.761
11770POPC   C3472737   2.370   3.375  11.652
11770POPC   H4X72738   2.319   3.468  11.623
11770POPC   H4Y72739   2.447   3.356  11.575
11770POPC   C3572740   2.430   3.400  11.789
11770POPC   H5X72741   2.424   3.304  11.846
11770POPC   H5Y72742   2.364   3.474  11.840
11770POPC   C3672743   2.571   3.453  11.800
11770POPC   H6X72744   2.565   3.562  11.825
11770POPC   H6Y72745   2.630   3.443  11.708
11770POPC   C3772746   2.639   3.385  11.919
11770POPC   H7X72747   2.576   3.386  12.008
11770POPC   H7Y72748   2.716   3.453  11.953
11770POPC   C3872749   2.695   3.243  11.897
11770POPC   H8X72750   2.755   3.243  11.803
11770POPC   H8Y72751   2.614   3.169  11.886
11770POPC   C3972752   2.788   3.209  12.014
11770POPC   H9X72753   2.776   3.294  12.084
11770POPC   H9Y72754   2.893   3.205  11.979
11770POPC  C31072755   2.759   3.091  12.108
11770POPC  H10X72756   2.745   2.995  12.053
11770POPC  H10Y72757   2.666   3.112  12.165
11770POPC  C31172758   2.879   3.080  12.204
11770POPC  H11X72759   2.910   3.183  12.235
11770POPC  H11Y72760   2.965   3.036  12.149
11770POPC  C31272761   2.851   3.002  12.332
11770POPC  H12X72762   2.943   2.947  12.363
11770POPC  H12Y72763   2.772   2.927  12.312
11770POPC  C31372764   2.810   3.096  12.447
11770POPC  H13X72765   2.733   3.168  12.410
11770POPC  H13Y72766   2.899   3.156  12.477
11770POPC  C31472767   2.755   3.022  12.568
11770POPC  H14X72768   2.751   3.091  12.655
11770POPC  H14Y72769   2.822   2.939  12.598
11770POPC  C31572770   2.614   2.969  12.544
11770POPC  H15X72771   2.619   2.880  12.478
11770POPC  H15Y72772   2.553   3.045  12.491
11770POPC  C31672773   2.545   2.934  12.675
11770POPC  H16X72774   2.521   3.024  12.736
11770POPC  H16Y72775   2.612   2.870  12.737
11770POPC  H16Z72776   2.449   2.881  12.656
11771POPC     N72777   3.254   2.343  10.771
11771POPC   C1272778   3.338   2.352  10.897
11771POPC  H12A72779   3.442   2.339  10.869
11771POPC  H12B72780   3.310   2.274  10.965
11771POPC   C1372781   3.118   2.401  10.796
11771POPC  H13A72782   3.078   2.366  10.891
11771POPC  H13B72783   3.127   2.508  10.807
11771POPC  H13C72784   3.050   2.378  10.714
11771POPC   C1472785   3.318   2.423  10.661
11771POPC  H14A72786   3.415   2.386  10.634
11771POPC  H14B72787   3.256   2.430  10.573
11771POPC  H14C72788   3.334   2.525  10.699
11771POPC   C1572789   3.235   2.202  10.731
11771POPC  H15A72790   3.178   2.198  10.638
11771POPC  H15B72791   3.179   2.148  10.805
11771POPC  H15C72792   3.329   2.152  10.712
11771POPC   C1172793   3.331   2.486  10.972
11771POPC  H11A72794   3.410   2.488  11.052
11771POPC  H11B72795   3.232   2.494  11.022
11771POPC     P72796   3.350   2.739  10.927
11771POPC   O1372797   3.333   2.823  10.806
11771POPC   O1472798   3.468   2.758  11.015
11771POPC   O1272799   3.350   2.590  10.879
11771POPC   O1172800   3.216   2.741  11.013
11771POPC    C172801   3.090   2.752  10.947
11771POPC    HA72802   3.078   2.674  10.868
11771POPC    HB72803   3.087   2.851  10.897
11771POPC    C272804   2.968   2.745  11.045
11771POPC    HS72805   2.882   2.798  10.996
11771POPC   O2172806   3.002   2.806  11.169
11771POPC   C2172807   3.023   2.936  11.160
11771POPC   O2272808   2.971   3.010  11.078
11771POPC   C2272809   3.119   2.981  11.271
11771POPC   H2R72810   3.172   3.070  11.230
11771POPC   H2S72811   3.194   2.902  11.288
11771POPC    C372812   2.917   2.602  11.076
11771POPC    HX72813   2.881   2.556  10.982
11771POPC    HY72814   2.828   2.610  11.143
11771POPC   O3172815   3.022   2.520  11.133
11771POPC   C3172816   3.042   2.538  11.264
11771POPC   O3272817   2.961   2.583  11.342
11771POPC   C3272818   3.185   2.496  11.298
11771POPC   H2X72819   3.254   2.559  11.237
11771POPC   H2Y72820   3.198   2.389  11.271
11771POPC   C2372821   3.046   3.019  11.402
11771POPC   H3R72822   2.968   3.096  11.381
11771POPC   H3S72823   3.119   3.065  11.471
11771POPC   C2472824   2.985   2.897  11.471
11771POPC   H4R72825   3.066   2.825  11.497
11771POPC   H4S72826   2.917   2.843  11.400
11771POPC   C2572827   2.902   2.930  11.595
11771POPC   H5R72828   2.826   3.005  11.569
11771POPC   H5S72829   2.965   2.977  11.673
11771POPC   C2672830   2.822   2.811  11.647
11771POPC   H6R72831   2.763   2.766  11.564
11771POPC   H6S72832   2.751   2.846  11.725
11771POPC   C2772833   2.909   2.701  11.707
11771POPC   H7R72834   2.965   2.651  11.625
11771POPC   H7S72835   2.842   2.624  11.753
11771POPC   C2872836   3.009   2.756  11.810
11771POPC   H8R72837   3.079   2.828  11.764
11771POPC   H8S72838   3.070   2.668  11.835
11771POPC   C2972839   2.949   2.810  11.937
11771POPC   H9172840   2.943   2.920  11.945
11771POPC  C21072841   2.904   2.732  12.037
11771POPC  H10172842   2.865   2.778  12.129
11771POPC  C21172843   2.907   2.582  12.034
11771POPC  H11R72844   2.942   2.541  11.937
11771POPC  H11S72845   2.804   2.542  12.048
11771POPC  C21272846   2.999   2.524  12.143
11771POPC  H12R72847   2.946   2.536  12.239
11771POPC  H12S72848   3.094   2.580  12.151
11771POPC  C21372849   3.028   2.375  12.122
11771POPC  H13R72850   3.100   2.364  12.038
11771POPC  H13S72851   2.935   2.323  12.090
11771POPC  C21472852   3.086   2.304  12.246
11771POPC  H14R72853   3.187   2.346  12.267
11771POPC  H14S72854   3.101   2.198  12.219
11771POPC  C21572855   3.003   2.309  12.376
11771POPC  H15R72856   3.035   2.400  12.429
11771POPC  H15S72857   3.033   2.223  12.440
11771POPC  C21672858   2.850   2.309  12.363
11771POPC  H16R72859   2.811   2.206  12.381
11771POPC  H16S72860   2.817   2.336  12.260
11771POPC  C21772861   2.779   2.406  12.459
11771POPC  H17R72862   2.800   2.372  12.563
11771POPC  H17S72863   2.670   2.394  12.440
11771POPC  C21872864   2.815   2.555  12.448
11771POPC  H18R72865   2.779   2.596  12.351
11771POPC  H18S72866   2.769   2.614  12.529
11771POPC  H18T72867   2.925   2.572  12.454
11771POPC   C3372868   3.211   2.519  11.447
11771POPC   H3X72869   3.137   2.460  11.506
11771POPC   H3Y72870   3.195   2.627  11.472
11771POPC   C3472871   3.352   2.479  11.493
11771POPC   H4X72872   3.422   2.562  11.471
11771POPC   H4Y72873   3.386   2.390  11.435
11771POPC   C3572874   3.354   2.446  11.643
11771POPC   H5X72875   3.458   2.420  11.675
11771POPC   H5Y72876   3.289   2.357  11.661
11771POPC   C3672877   3.303   2.563  11.729
11771POPC   H6X72878   3.206   2.598  11.687
11771POPC   H6Y72879   3.374   2.648  11.720
11771POPC   C3772880   3.276   2.527  11.876
11771POPC   H7X72881   3.204   2.443  11.879
11771POPC   H7Y72882   3.229   2.614  11.927
11771POPC   C3872883   3.399   2.496  11.962
11771POPC   H8X72884   3.443   2.399  11.931
11771POPC   H8Y72885   3.366   2.486  12.067
11771POPC   C3972886   3.507   2.606  11.953
11771POPC   H9X72887   3.553   2.597  11.853
11771POPC   H9Y72888   3.585   2.582  12.028
11771POPC  C31072889   3.459   2.752  11.970
11771POPC  H10X72890   3.383   2.775  11.892
11771POPC  H10Y72891   3.545   2.820  11.952
11771POPC  C31172892   3.398   2.787  12.107
11771POPC  H11X72893   3.327   2.708  12.137
11771POPC  H11Y72894   3.341   2.883  12.100
11771POPC  C31272895   3.506   2.806  12.214
11771POPC  H12X72896   3.559   2.902  12.200
11771POPC  H12Y72897   3.579   2.724  12.200
11771POPC  C31372898   3.461   2.787  12.358
11771POPC  H13X72899   3.360   2.829  12.373
11771POPC  H13Y72900   3.530   2.842  12.426
11771POPC  C31472901   3.471   2.639  12.396
11771POPC  H14X72902   3.578   2.608  12.397
11771POPC  H14Y72903   3.418   2.576  12.321
11771POPC  C31572904   3.412   2.613  12.532
11771POPC  H15X72905   3.448   2.689  12.604
11771POPC  H15Y72906   3.452   2.515  12.567
11771POPC  C31672907   3.259   2.612  12.524
11771POPC  H16X72908   3.213   2.617  12.624
11771POPC  H16Y72909   3.223   2.520  12.475
11771POPC  H16Z72910   3.222   2.699  12.465
11772POPC     N72911   4.646   2.289  10.811
11772POPC   C1272912   4.602   2.142  10.816
11772POPC  H12A72913   4.495   2.137  10.807
11772POPC  H12B72914   4.624   2.101  10.915
11772POPC   C1372915   4.781   2.306  10.873
11772POPC  H13A72916   4.783   2.277  10.978
11772POPC  H13B72917   4.851   2.234  10.829
11772POPC  H13C72918   4.823   2.404  10.861
11772POPC   C1472919   4.661   2.331  10.669
11772POPC  H14A72920   4.689   2.435  10.659
11772POPC  H14B72921   4.741   2.270  10.625
11772POPC  H14C72922   4.573   2.312  10.610
11772POPC   C1572923   4.542   2.369  10.882
11772POPC  H15A72924   4.569   2.474  10.880
11772POPC  H15B72925   4.531   2.338  10.985
11772POPC  H15C72926   4.448   2.355  10.831
11772POPC   C1172927   4.657   2.038  10.716
11772POPC  H11A72928   4.626   2.062  10.613
11772POPC  H11B72929   4.605   1.942  10.740
11772POPC     P72930   4.861   1.963  10.857
11772POPC   O1372931   4.931   2.073  10.926
11772POPC   O1472932   4.937   1.839  10.826
11772POPC   O1272933   4.798   2.023  10.724
11772POPC   O1172934   4.731   1.921  10.938
11772POPC    C172935   4.725   1.830  11.048
11772POPC    HA72936   4.815   1.767  11.052
11772POPC    HB72937   4.639   1.761  11.034
11772POPC    C272938   4.707   1.900  11.187
11772POPC    HS72939   4.599   1.899  11.212
11772POPC   O2172940   4.756   2.034  11.184
11772POPC   C2172941   4.672   2.122  11.143
11772POPC   O2272942   4.560   2.105  11.095
11772POPC   C2272943   4.716   2.256  11.190
11772POPC   H2R72944   4.661   2.333  11.133
11772POPC   H2S72945   4.826   2.270  11.177
11772POPC    C372946   4.780   1.833  11.306
11772POPC    HX72947   4.889   1.837  11.287
11772POPC    HY72948   4.751   1.726  11.312
11772POPC   O3172949   4.749   1.904  11.428
11772POPC   C3172950   4.803   1.852  11.538
11772POPC   O3272951   4.876   1.755  11.540
11772POPC   C3272952   4.761   1.928  11.664
11772POPC   H2X72953   4.855   1.966  11.709
11772POPC   H2Y72954   4.716   1.855  11.735
11772POPC   C2372955   4.674   2.261  11.337
11772POPC   H3R72956   4.762   2.220  11.392
11772POPC   H3S72957   4.588   2.195  11.363
11772POPC   C2472958   4.635   2.404  11.371
11772POPC   H4R72959   4.528   2.418  11.354
11772POPC   H4S72960   4.687   2.471  11.300
11772POPC   C2572961   4.675   2.446  11.511
11772POPC   H5R72962   4.604   2.408  11.588
11772POPC   H5S72963   4.668   2.557  11.514
11772POPC   C2672964   4.818   2.402  11.541
11772POPC   H6R72965   4.880   2.402  11.448
11772POPC   H6S72966   4.820   2.297  11.575
11772POPC   C2772967   4.886   2.496  11.639
11772POPC   H7R72968   4.811   2.532  11.713
11772POPC   H7S72969   4.923   2.581  11.579
11772POPC   C2872970   5.004   2.434  11.710
11772POPC   H8R72971   5.056   2.510  11.773
11772POPC   H8S72972   5.074   2.396  11.632
11772POPC   C2972973   4.951   2.321  11.791
11772POPC   H9172974   4.964   2.221  11.745
11772POPC  C21072975   4.889   2.330  11.909
11772POPC  H10172976   4.858   2.235  11.956
11772POPC  C21172977   4.856   2.449  11.995
11772POPC  H11R72978   4.749   2.478  11.987
11772POPC  H11S72979   4.920   2.537  11.975
11772POPC  C21272980   4.886   2.389  12.132
11772POPC  H12R72981   4.992   2.353  12.137
11772POPC  H12S72982   4.818   2.301  12.147
11772POPC  C21372983   4.864   2.472  12.258
11772POPC  H13R72984   4.765   2.523  12.255
11772POPC  H13S72985   4.943   2.549  12.270
11772POPC  C21472986   4.865   2.366  12.369
11772POPC  H14R72987   4.927   2.279  12.335
11772POPC  H14S72988   4.762   2.327  12.378
11772POPC  C21572989   4.924   2.404  12.504
11772POPC  H15R72990   4.906   2.511  12.525
11772POPC  H15S72991   5.034   2.389  12.501
11772POPC  C21672992   4.862   2.322  12.618
11772POPC  H16R72993   4.916   2.342  12.713
11772POPC  H16S72994   4.870   2.214  12.594
11772POPC  C21772995   4.714   2.352  12.639
11772POPC  H17R72996   4.655   2.324  12.549
11772POPC  H17S72997   4.706   2.461  12.655
11772POPC  C21872998   4.654   2.281  12.759
11772POPC  H18R72999   4.669   2.172  12.746
11772POPC  H18S73000   4.544   2.300  12.767
11772POPC  H18T73001   4.702   2.314  12.853
11772POPC   C3373002   4.662   2.046  11.639
11772POPC   H3X73003   4.559   2.010  11.621
11772POPC   H3Y73004   4.696   2.098  11.547
11772POPC   C3473005   4.667   2.153  11.749
11772POPC   H4X73006   4.673   2.253  11.703
11772POPC   H4Y73007   4.759   2.136  11.806
11772POPC   C3573008   4.547   2.162  11.842
11772POPC   H5X73009   4.453   2.166  11.783
11772POPC   H5Y73010   4.553   2.257  11.901
11772POPC   C3673011   4.545   2.048  11.942
11772POPC   H6X73012   4.541   1.950  11.888
11772POPC   H6Y73013   4.453   2.058  12.004
11772POPC   C3773014   4.666   2.047  12.034
11772POPC   H7X73015   4.678   2.148  12.080
11772POPC   H7Y73016   4.759   2.021  11.980
11772POPC   C3873017   4.640   1.946  12.143
11772POPC   H8X73018   4.615   1.847  12.097
11772POPC   H8Y73019   4.552   1.981  12.202
11772POPC   C3973020   4.755   1.926  12.237
11772POPC   H9X73021   4.798   2.024  12.269
11772POPC   H9Y73022   4.836   1.867  12.188
11772POPC  C31073023   4.698   1.853  12.357
11772POPC  H10X73024   4.652   1.756  12.325
11772POPC  H10Y73025   4.619   1.915  12.405
11772POPC  C31173026   4.809   1.824  12.453
11772POPC  H11X73027   4.867   1.918  12.473
11772POPC  H11Y73028   4.875   1.751  12.402
11772POPC  C31273029   4.759   1.767  12.584
11772POPC  H12X73030   4.849   1.727  12.637
11772POPC  H12Y73031   4.689   1.683  12.567
11772POPC  C31373032   4.695   1.874  12.672
11772POPC  H13X73033   4.586   1.884  12.650
11772POPC  H13Y73034   4.742   1.973  12.652
11772POPC  C31473035   4.718   1.837  12.818
11772POPC  H14X73036   4.823   1.800  12.827
11772POPC  H14Y73037   4.658   1.749  12.841
11772POPC  C31573038   4.708   1.954  12.917
11772POPC  H15X73039   4.783   2.027  12.878
11772POPC  H15Y73040   4.742   1.916  13.016
11772POPC  C31673041   4.578   2.033  12.939
11772POPC  H16X73042   4.518   2.036  12.846
11772POPC  H16Y73043   4.602   2.137  12.969
11772POPC  H16Z73044   4.518   1.991  13.021
11773POPC     N73045   3.988   7.143  10.800
11773POPC   C1273046   3.947   7.226  10.680
11773POPC  H12A73047   3.886   7.165  10.614
11773POPC  H12B73048   4.035   7.252  10.623
11773POPC   C1373049   4.034   7.008  10.756
11773POPC  H13A73050   3.958   6.959  10.696
11773POPC  H13B73051   4.122   7.014  10.693
11773POPC  H13C73052   4.058   6.942  10.838
11773POPC   C1473053   4.095   7.217  10.875
11773POPC  H14A73054   4.118   7.171  10.969
11773POPC  H14B73055   4.184   7.231  10.815
11773POPC  H14C73056   4.058   7.318  10.896
11773POPC   C1573057   3.870   7.135  10.891
11773POPC  H15A73058   3.889   7.073  10.976
11773POPC  H15B73059   3.781   7.104  10.839
11773POPC  H15C73060   3.848   7.236  10.930
11773POPC   C1173061   3.867   7.356  10.708
11773POPC  H11A73062   3.760   7.329  10.724
11773POPC  H11B73063   3.871   7.419  10.616
11773POPC     P73064   3.829   7.521  10.904
11773POPC   O1373065   3.748   7.605  10.812
11773POPC   O1473066   3.906   7.586  11.012
11773POPC   O1273067   3.923   7.429  10.817
11773POPC   O1173068   3.738   7.405  10.963
11773POPC    C173069   3.669   7.428  11.086
11773POPC    HA73070   3.578   7.364  11.087
11773POPC    HB73071   3.634   7.533  11.096
11773POPC    C273072   3.754   7.391  11.210
11773POPC    HS73073   3.847   7.452  11.209
11773POPC   O2173074   3.785   7.251  11.205
11773POPC   C2173075   3.871   7.207  11.295
11773POPC   O2273076   3.936   7.275  11.373
11773POPC   C2273077   3.871   7.055  11.287
11773POPC   H2R73078   3.973   7.018  11.269
11773POPC   H2S73079   3.807   7.025  11.200
11773POPC    C373080   3.673   7.425  11.337
11773POPC    HX73081   3.656   7.534  11.339
11773POPC    HY73082   3.734   7.398  11.427
11773POPC   O3173083   3.547   7.353  11.333
11773POPC   C3173084   3.489   7.353  11.452
11773POPC   O3273085   3.522   7.423  11.545
11773POPC   C3273086   3.385   7.242  11.460
11773POPC   H2X73087   3.399   7.170  11.377
11773POPC   H2Y73088   3.285   7.288  11.451
11773POPC   C2373089   3.810   6.990  11.412
11773POPC   H3R73090   3.754   6.900  11.380
11773POPC   H3S73091   3.736   7.057  11.459
11773POPC   C2473092   3.913   6.944  11.514
11773POPC   H4R73093   3.936   7.028  11.582
11773POPC   H4S73094   4.007   6.914  11.463
11773POPC   C2573095   3.860   6.822  11.590
11773POPC   H5R73096   3.867   6.732  11.525
11773POPC   H5S73097   3.752   6.838  11.611
11773POPC   C2673098   3.928   6.797  11.725
11773POPC   H6R73099   4.039   6.806  11.716
11773POPC   H6S73100   3.901   6.693  11.751
11773POPC   C2773101   3.870   6.892  11.830
11773POPC   H7R73102   3.761   6.873  11.826
11773POPC   H7S73103   3.888   6.997  11.796
11773POPC   C2873104   3.917   6.881  11.976
11773POPC   H8R73105   3.953   6.982  12.006
11773POPC   H8S73106   4.005   6.815  11.985
11773POPC   C2973107   3.802   6.838  12.065
11773POPC   H9173108   3.722   6.781  12.015
11773POPC  C21073109   3.791   6.863  12.196
11773POPC  H10173110   3.703   6.826  12.251
11773POPC  C21173111   3.891   6.939  12.278
11773POPC  H11R73112   3.979   6.971  12.218
11773POPC  H11S73113   3.932   6.871  12.356
11773POPC  C21273114   3.831   7.063  12.347
11773POPC  H12R73115   3.729   7.085  12.310
11773POPC  H12S73116   3.895   7.151  12.323
11773POPC  C21373117   3.828   7.047  12.499
11773POPC  H13R73118   3.787   6.947  12.523
11773POPC  H13S73119   3.761   7.123  12.546
11773POPC  C21473120   3.969   7.062  12.559
11773POPC  H14R73121   3.998   7.170  12.562
11773POPC  H14S73122   4.042   7.013  12.490
11773POPC  C21573123   3.985   6.999  12.697
11773POPC  H15R73124   3.894   6.938  12.717
11773POPC  H15S73125   3.988   7.077  12.775
11773POPC  C21673126   4.108   6.907  12.706
11773POPC  H16R73127   4.117   6.845  12.614
11773POPC  H16S73128   4.090   6.836  12.790
11773POPC  C21773129   4.240   6.979  12.730
11773POPC  H17R73130   4.223   7.065  12.799
11773POPC  H17S73131   4.276   7.020  12.633
11773POPC  C21873132   4.346   6.886  12.791
11773POPC  H18R73133   4.331   6.877  12.900
11773POPC  H18S73134   4.449   6.926  12.774
11773POPC  H18T73135   4.339   6.785  12.746
11773POPC   C3373136   3.399   7.170  11.595
11773POPC   H3X73137   3.318   7.095  11.611
11773POPC   H3Y73138   3.395   7.246  11.676
11773POPC   C3473139   3.533   7.098  11.604
11773POPC   H4X73140   3.614   7.173  11.590
11773POPC   H4Y73141   3.538   7.025  11.521
11773POPC   C3573142   3.565   7.023  11.734
11773POPC   H5X73143   3.675   7.012  11.726
11773POPC   H5Y73144   3.518   6.922  11.732
11773POPC   C3673145   3.536   7.089  11.870
11773POPC   H6X73146   3.569   7.018  11.950
11773POPC   H6Y73147   3.427   7.097  11.883
11773POPC   C3773148   3.609   7.223  11.896
11773POPC   H7X73149   3.541   7.297  11.941
11773POPC   H7Y73150   3.644   7.265  11.799
11773POPC   C3873151   3.729   7.203  11.991
11773POPC   H8X73152   3.778   7.110  11.956
11773POPC   H8Y73153   3.693   7.183  12.094
11773POPC   C3973154   3.838   7.311  11.991
11773POPC   H9X73155   3.866   7.335  11.886
11773POPC   H9Y73156   3.928   7.266  12.039
11773POPC  C31073157   3.807   7.440  12.068
11773POPC  H10X73158   3.730   7.499  12.013
11773POPC  H10Y73159   3.900   7.501  12.070
11773POPC  C31173160   3.762   7.418  12.213
11773POPC  H11X73161   3.828   7.342  12.260
11773POPC  H11Y73162   3.658   7.377  12.213
11773POPC  C31273163   3.767   7.546  12.296
11773POPC  H12X73164   3.718   7.628  12.238
11773POPC  H12Y73165   3.874   7.575  12.311
11773POPC  C31373166   3.698   7.537  12.433
11773POPC  H13X73167   3.591   7.511  12.419
11773POPC  H13Y73168   3.702   7.638  12.479
11773POPC  C31473169   3.763   7.437  12.530
11773POPC  H14X73170   3.874   7.446  12.524
11773POPC  H14Y73171   3.737   7.333  12.499
11773POPC  C31573172   3.719   7.462  12.675
11773POPC  H15X73173   3.610   7.442  12.683
11773POPC  H15Y73174   3.734   7.569  12.700
11773POPC  C31673175   3.794   7.378  12.779
11773POPC  H16X73176   3.903   7.402  12.777
11773POPC  H16Y73177   3.782   7.269  12.758
11773POPC  H16Z73178   3.756   7.399  12.881
11774POPC     N73179   7.174   4.186  10.674
11774POPC   C1273180   7.254   4.060  10.703
11774POPC  H12A73181   7.333   4.052  10.630
11774POPC  H12B73182   7.191   3.974  10.685
11774POPC   C1373183   7.263   4.304  10.654
11774POPC  H13A73184   7.325   4.316  10.744
11774POPC  H13B73185   7.330   4.293  10.570
11774POPC  H13C73186   7.208   4.396  10.644
11774POPC   C1473187   7.092   4.162  10.552
11774POPC  H14A73188   7.044   4.253  10.519
11774POPC  H14B73189   7.152   4.120  10.472
11774POPC  H14C73190   7.015   4.089  10.574
11774POPC   C1573191   7.085   4.217  10.791
11774POPC  H15A73192   7.003   4.147  10.798
11774POPC  H15B73193   7.045   4.317  10.785
11774POPC  H15C73194   7.147   4.211  10.881
11774POPC   C1173195   7.318   4.047  10.842
11774POPC  H11A73196   7.392   3.963  10.837
11774POPC  H11B73197   7.242   4.019  10.918
11774POPC     P73198   7.507   4.169  10.968
11774POPC   O1373199   7.615   4.124  10.878
11774POPC   O1473200   7.481   4.096  11.094
11774POPC   O1273201   7.376   4.170  10.882
11774POPC   O1173202   7.525   4.325  10.994
11774POPC    C173203   7.593   4.403  10.895
11774POPC    HA73204   7.531   4.413  10.803
11774POPC    HB73205   7.690   4.355  10.866
11774POPC    C273206   7.629   4.546  10.946
11774POPC    HS73207   7.721   4.578  10.892
11774POPC   O2173208   7.651   4.549  11.088
11774POPC   C2173209   7.734   4.455  11.133
11774POPC   O2273210   7.827   4.409  11.070
11774POPC   C2273211   7.708   4.435  11.283
11774POPC   H2R73212   7.706   4.536  11.329
11774POPC   H2S73213   7.793   4.378  11.324
11774POPC    C373214   7.518   4.650  10.910
11774POPC    HX73215   7.487   4.640  10.803
11774POPC    HY73216   7.561   4.751  10.922
11774POPC   O3173217   7.406   4.638  11.000
11774POPC   C3173218   7.316   4.546  10.971
11774POPC   O3273219   7.294   4.498  10.861
11774POPC   C3273220   7.235   4.517  11.098
11774POPC   H2X73221   7.136   4.564  11.083
11774POPC   H2Y73222   7.288   4.564  11.183
11774POPC   C2373223   7.576   4.364  11.323
11774POPC   H3R73224   7.565   4.268  11.267
11774POPC   H3S73225   7.489   4.427  11.294
11774POPC   C2473226   7.568   4.331  11.473
11774POPC   H4R73227   7.632   4.241  11.493
11774POPC   H4S73228   7.464   4.304  11.499
11774POPC   C2573229   7.616   4.443  11.566
11774POPC   H5R73230   7.557   4.535  11.548
11774POPC   H5S73231   7.722   4.468  11.542
11774POPC   C2673232   7.615   4.402  11.714
11774POPC   H6R73233   7.676   4.474  11.773
11774POPC   H6S73234   7.665   4.303  11.721
11774POPC   C2773235   7.475   4.389  11.776
11774POPC   H7R73236   7.486   4.368  11.884
11774POPC   H7S73237   7.432   4.299  11.729
11774POPC   C2873238   7.379   4.508  11.755
11774POPC   H8R73239   7.384   4.545  11.651
11774POPC   H8S73240   7.406   4.593  11.821
11774POPC   C2973241   7.239   4.461  11.779
11774POPC   H9173242   7.199   4.403  11.695
11774POPC  C21073243   7.160   4.481  11.885
11774POPC  H10173244   7.062   4.431  11.888
11774POPC  C21173245   7.196   4.558  12.009
11774POPC  H11R73246   7.102   4.600  12.049
11774POPC  H11S73247   7.262   4.644  11.987
11774POPC  C21273248   7.258   4.471  12.121
11774POPC  H12R73249   7.242   4.365  12.097
11774POPC  H12S73250   7.201   4.485  12.214
11774POPC  C21373251   7.408   4.494  12.147
11774POPC  H13R73252   7.441   4.586  12.095
11774POPC  H13S73253   7.463   4.409  12.101
11774POPC  C21473254   7.447   4.506  12.295
11774POPC  H14R73255   7.367   4.460  12.356
11774POPC  H14S73256   7.446   4.612  12.325
11774POPC  C21573257   7.581   4.441  12.331
11774POPC  H15R73258   7.613   4.376  12.247
11774POPC  H15S73259   7.564   4.373  12.418
11774POPC  C21673260   7.697   4.536  12.363
11774POPC  H16R73261   7.733   4.582  12.268
11774POPC  H16S73262   7.779   4.473  12.404
11774POPC  C21773263   7.669   4.650  12.463
11774POPC  H17R73264   7.590   4.717  12.423
11774POPC  H17S73265   7.760   4.714  12.470
11774POPC  C21873266   7.634   4.607  12.605
11774POPC  H18R73267   7.725   4.583  12.663
11774POPC  H18S73268   7.567   4.518  12.605
11774POPC  H18T73269   7.583   4.689  12.659
11774POPC   C3373270   7.215   4.368  11.133
11774POPC   H3X73271   7.313   4.321  11.156
11774POPC   H3Y73272   7.171   4.314  11.047
11774POPC   C3473273   7.122   4.354  11.256
11774POPC   H4X73274   7.025   4.402  11.232
11774POPC   H4Y73275   7.167   4.407  11.343
11774POPC   C3573276   7.098   4.208  11.294
11774POPC   H5X73277   7.091   4.150  11.200
11774POPC   H5Y73278   7.001   4.197  11.346
11774POPC   C3673279   7.208   4.145  11.381
11774POPC   H6X73280   7.304   4.200  11.364
11774POPC   H6Y73281   7.224   4.040  11.348
11774POPC   C3773282   7.172   4.144  11.530
11774POPC   H7X73283   7.075   4.092  11.544
11774POPC   H7Y73284   7.159   4.249  11.562
11774POPC   C3873285   7.278   4.075  11.619
11774POPC   H8X73286   7.378   4.113  11.590
11774POPC   H8Y73287   7.278   3.966  11.601
11774POPC   C3973288   7.251   4.105  11.767
11774POPC   H9X73289   7.148   4.075  11.794
11774POPC   H9Y73290   7.250   4.215  11.777
11774POPC  C31073291   7.352   4.054  11.872
11774POPC  H10X73292   7.455   4.086  11.844
11774POPC  H10Y73293   7.350   3.944  11.879
11774POPC  C31173294   7.314   4.119  12.007
11774POPC  H11X73295   7.210   4.088  12.033
11774POPC  H11Y73296   7.313   4.227  11.986
11774POPC  C31273297   7.405   4.095  12.129
11774POPC  H12X73298   7.472   4.183  12.143
11774POPC  H12Y73299   7.469   4.007  12.109
11774POPC  C31373300   7.327   4.070  12.261
11774POPC  H13X73301   7.396   4.023  12.335
11774POPC  H13Y73302   7.243   4.000  12.243
11774POPC  C31473303   7.272   4.198  12.325
11774POPC  H14X73304   7.205   4.248  12.253
11774POPC  H14Y73305   7.360   4.263  12.346
11774POPC  C31573306   7.193   4.184  12.456
11774POPC  H15X73307   7.257   4.139  12.534
11774POPC  H15Y73308   7.107   4.116  12.438
11774POPC  C31673309   7.141   4.321  12.504
11774POPC  H16X73310   7.224   4.394  12.511
11774POPC  H16Y73311   7.094   4.314  12.604
11774POPC  H16Z73312   7.065   4.361  12.433
11775POPC     N73313   6.695   2.907  10.890
11775POPC   C1273314   6.743   2.763  10.904
11775POPC  H12A73315   6.809   2.753  10.988
11775POPC  H12B73316   6.797   2.734  10.814
11775POPC   C1373317   6.593   2.915  10.781
11775POPC  H13A73318   6.502   2.861  10.811
11775POPC  H13B73319   6.564   3.016  10.755
11775POPC  H13C73320   6.626   2.862  10.692
11775POPC   C1473321   6.626   2.954  11.015
11775POPC  H14A73322   6.542   2.887  11.033
11775POPC  H14B73323   6.690   2.951  11.102
11775POPC  H14C73324   6.584   3.053  11.002
11775POPC   C1573325   6.810   2.996  10.856
11775POPC  H15A73326   6.878   3.006  10.939
11775POPC  H15B73327   6.776   3.094  10.823
11775POPC  H15C73328   6.867   2.954  10.772
11775POPC   C1173329   6.635   2.655  10.914
11775POPC  H11A73330   6.554   2.689  10.984
11775POPC  H11B73331   6.680   2.562  10.956
11775POPC     P73332   6.466   2.528  10.769
11775POPC   O1373333   6.523   2.395  10.801
11775POPC   O1473334   6.398   2.545  10.639
11775POPC   O1273335   6.586   2.630  10.782
11775POPC   O1173336   6.373   2.581  10.886
11775POPC    C173337   6.234   2.608  10.863
11775POPC    HA73338   6.193   2.541  10.783
11775POPC    HB73339   6.221   2.713  10.829
11775POPC    C273340   6.145   2.584  10.988
11775POPC    HS73341   6.049   2.544  10.950
11775POPC   O2173342   6.119   2.707  11.055
11775POPC   C2173343   6.040   2.693  11.158
11775POPC   O2273344   5.951   2.609  11.171
11775POPC   C2273345   6.082   2.794  11.261
11775POPC   H2R73346   6.004   2.868  11.240
11775POPC   H2S73347   6.178   2.842  11.232
11775POPC    C373348   6.206   2.481  11.090
11775POPC    HX73349   6.239   2.392  11.031
11775POPC    HY73350   6.126   2.448  11.160
11775POPC   O3173351   6.318   2.536  11.163
11775POPC   C3173352   6.365   2.448  11.251
11775POPC   O3273353   6.302   2.352  11.293
11775POPC   C3273354   6.507   2.485  11.290
11775POPC   H2X73355   6.515   2.595  11.299
11775POPC   H2Y73356   6.573   2.450  11.208
11775POPC   C2373357   6.086   2.747  11.409
11775POPC   H3R73358   6.192   2.746  11.442
11775POPC   H3S73359   6.048   2.643  11.417
11775POPC   C2473360   6.004   2.842  11.497
11775POPC   H4R73361   5.897   2.828  11.467
11775POPC   H4S73362   6.042   2.943  11.470
11775POPC   C2573363   6.008   2.845  11.649
11775POPC   H5R73364   5.939   2.773  11.698
11775POPC   H5S73365   5.970   2.944  11.683
11775POPC   C2673366   6.148   2.828  11.700
11775POPC   H6R73367   6.213   2.906  11.652
11775POPC   H6S73368   6.187   2.728  11.671
11775POPC   C2773369   6.154   2.843  11.851
11775POPC   H7R73370   6.081   2.774  11.898
11775POPC   H7S73371   6.127   2.945  11.882
11775POPC   C2873372   6.295   2.807  11.897
11775POPC   H8R73373   6.309   2.701  11.864
11775POPC   H8S73374   6.293   2.802  12.007
11775POPC   C2973375   6.407   2.889  11.838
11775POPC   H9173376   6.448   2.840  11.748
11775POPC  C21073377   6.461   3.008  11.871
11775POPC  H10173378   6.540   3.046  11.804
11775POPC  C21173379   6.429   3.107  11.981
11775POPC  H11R73380   6.323   3.137  11.975
11775POPC  H11S73381   6.487   3.200  11.961
11775POPC  C21273382   6.455   3.070  12.128
11775POPC  H12R73383   6.441   3.162  12.189
11775POPC  H12S73384   6.560   3.036  12.141
11775POPC  C21373385   6.357   2.963  12.178
11775POPC  H13R73386   6.402   2.865  12.150
11775POPC  H13S73387   6.259   2.976  12.128
11775POPC  C21473388   6.337   2.959  12.328
11775POPC  H14R73389   6.264   2.879  12.354
11775POPC  H14S73390   6.298   3.056  12.365
11775POPC  C21573391   6.471   2.929  12.392
11775POPC  H15R73392   6.541   3.012  12.369
11775POPC  H15S73393   6.513   2.837  12.345
11775POPC  C21673394   6.468   2.910  12.542
11775POPC  H16R73395   6.409   2.821  12.569
11775POPC  H16S73396   6.423   2.997  12.593
11775POPC  C21773397   6.614   2.894  12.581
11775POPC  H17R73398   6.664   2.992  12.566
11775POPC  H17S73399   6.662   2.821  12.511
11775POPC  C21873400   6.638   2.847  12.722
11775POPC  H18R73401   6.627   2.737  12.732
11775POPC  H18S73402   6.574   2.899  12.796
11775POPC  H18T73403   6.744   2.871  12.740
11775POPC   C3373404   6.546   2.416  11.423
11775POPC   H3X73405   6.652   2.440  11.446
11775POPC   H3Y73406   6.539   2.305  11.411
11775POPC   C3473407   6.458   2.459  11.541
11775POPC   H4X73408   6.353   2.427  11.525
11775POPC   H4Y73409   6.459   2.570  11.551
11775POPC   C3573410   6.507   2.395  11.671
11775POPC   H5X73411   6.614   2.423  11.688
11775POPC   H5Y73412   6.502   2.285  11.661
11775POPC   C3673413   6.426   2.438  11.794
11775POPC   H6X73414   6.318   2.419  11.777
11775POPC   H6Y73415   6.440   2.547  11.810
11775POPC   C3773416   6.473   2.362  11.919
11775POPC   H7X73417   6.580   2.387  11.938
11775POPC   H7Y73418   6.467   2.253  11.897
11775POPC   C3873419   6.393   2.390  12.046
11775POPC   H8X73420   6.425   2.317  12.124
11775POPC   H8Y73421   6.284   2.372  12.028
11775POPC   C3973422   6.414   2.531  12.100
11775POPC   H9X73423   6.358   2.600  12.034
11775POPC   H9Y73424   6.522   2.560  12.095
11775POPC  C31073425   6.363   2.552  12.242
11775POPC  H10X73426   6.263   2.506  12.252
11775POPC  H10Y73427   6.352   2.661  12.260
11775POPC  C31173428   6.458   2.496  12.350
11775POPC  H11X73429   6.559   2.540  12.336
11775POPC  H11Y73430   6.466   2.386  12.340
11775POPC  C31273431   6.404   2.532  12.488
11775POPC  H12X73432   6.310   2.474  12.503
11775POPC  H12Y73433   6.376   2.639  12.489
11775POPC  C31373434   6.499   2.507  12.604
11775POPC  H13X73435   6.579   2.584  12.608
11775POPC  H13Y73436   6.550   2.409  12.588
11775POPC  C31473437   6.420   2.499  12.735
11775POPC  H14X73438   6.476   2.436  12.807
11775POPC  H14Y73439   6.325   2.447  12.710
11775POPC  C31573440   6.381   2.631  12.802
11775POPC  H15X73441   6.342   2.701  12.725
11775POPC  H15Y73442   6.471   2.677  12.849
11775POPC  C31673443   6.275   2.617  12.911
11775POPC  H16X73444   6.180   2.581  12.866
11775POPC  H16Y73445   6.255   2.713  12.961
11775POPC  H16Z73446   6.306   2.545  12.990
11776POPC     N73447   1.718   3.738  10.845
11776POPC   C1273448   1.791   3.738  10.712
11776POPC  H12A73449   1.769   3.831  10.659
11776POPC  H12B73450   1.751   3.661  10.648
11776POPC   C1373451   1.774   3.633  10.933
11776POPC  H13A73452   1.776   3.539  10.880
11776POPC  H13B73453   1.877   3.657  10.961
11776POPC  H13C73454   1.716   3.621  11.024
11776POPC   C1473455   1.745   3.865  10.918
11776POPC  H14A73456   1.711   3.861  11.021
11776POPC  H14B73457   1.855   3.878  10.921
11776POPC  H14C73458   1.706   3.951  10.867
11776POPC   C1573459   1.572   3.715  10.827
11776POPC  H15A73460   1.553   3.613  10.795
11776POPC  H15B73461   1.533   3.783  10.752
11776POPC  H15C73462   1.521   3.728  10.922
11776POPC   C1173463   1.944   3.725  10.720
11776POPC  H11A73464   1.987   3.708  10.620
11776POPC  H11B73465   1.974   3.636  10.780
11776POPC     P73466   2.144   3.843  10.831
11776POPC   O1373467   2.234   3.831  10.714
11776POPC   O1473468   2.149   3.733  10.930
11776POPC   O1273469   1.996   3.846  10.774
11776POPC   O1173470   2.152   3.986  10.900
11776POPC    C173471   2.047   4.064  10.961
11776POPC    HA73472   1.947   4.040  10.921
11776POPC    HB73473   2.066   4.172  10.940
11776POPC    C273474   2.049   4.052  11.117
11776POPC    HS73475   2.146   4.096  11.150
11776POPC   O2173476   2.030   3.915  11.155
11776POPC   C2173477   2.147   3.858  11.180
11776POPC   O2273478   2.257   3.906  11.161
11776POPC   C2273479   2.127   3.730  11.258
11776POPC   H2R73480   2.188   3.652  11.209
11776POPC   H2S73481   2.021   3.700  11.261
11776POPC    C373482   1.947   4.137  11.198
11776POPC    HX73483   1.846   4.090  11.191
11776POPC    HY73484   1.945   4.240  11.157
11776POPC   O3173485   1.992   4.142  11.336
11776POPC   C3173486   1.912   4.208  11.419
11776POPC   O3273487   1.804   4.254  11.388
11776POPC   C3273488   1.977   4.214  11.558
11776POPC   H2X73489   2.016   4.318  11.571
11776POPC   H2Y73490   2.065   4.146  11.562
11776POPC   C2373491   2.182   3.765  11.396
11776POPC   H3R73492   2.110   3.833  11.448
11776POPC   H3S73493   2.279   3.819  11.384
11776POPC   C2473494   2.220   3.650  11.487
11776POPC   H4R73495   2.315   3.604  11.451
11776POPC   H4S73496   2.141   3.572  11.480
11776POPC   C2573497   2.234   3.700  11.631
11776POPC   H5R73498   2.220   3.811  11.632
11776POPC   H5S73499   2.337   3.682  11.669
11776POPC   C2673500   2.125   3.635  11.718
11776POPC   H6R73501   2.110   3.531  11.683
11776POPC   H6S73502   2.031   3.692  11.697
11776POPC   C2773503   2.144   3.625  11.870
11776POPC   H7R73504   2.184   3.526  11.897
11776POPC   H7S73505   2.042   3.627  11.915
11776POPC   C2873506   2.230   3.735  11.934
11776POPC   H8R73507   2.332   3.736  11.891
11776POPC   H8S73508   2.242   3.713  12.043
11776POPC   C2973509   2.157   3.864  11.911
11776POPC   H9173510   2.179   3.912  11.815
11776POPC  C21073511   2.061   3.914  11.990
11776POPC  H10173512   2.017   4.012  11.965
11776POPC  C21173513   2.010   3.850  12.117
11776POPC  H11R73514   2.051   3.748  12.134
11776POPC  H11S73515   1.900   3.839  12.111
11776POPC  C21273516   2.044   3.938  12.238
11776POPC  H12R73517   2.013   3.883  12.330
11776POPC  H12S73518   1.982   4.030  12.232
11776POPC  C21373519   2.191   3.979  12.252
11776POPC  H13R73520   2.245   3.980  12.155
11776POPC  H13S73521   2.243   3.904  12.315
11776POPC  C21473522   2.205   4.116  12.317
11776POPC  H14R73523   2.151   4.191  12.255
11776POPC  H14S73524   2.313   4.145  12.316
11776POPC  C21573525   2.151   4.113  12.460
11776POPC  H15R73526   2.176   4.013  12.501
11776POPC  H15S73527   2.040   4.122  12.457
11776POPC  C21673528   2.212   4.217  12.554
11776POPC  H16R73529   2.139   4.299  12.572
11776POPC  H16S73530   2.302   4.260  12.505
11776POPC  C21773531   2.258   4.158  12.688
11776POPC  H17R73532   2.365   4.129  12.675
11776POPC  H17S73533   2.198   4.068  12.711
11776POPC  C21873534   2.252   4.253  12.807
11776POPC  H18R73535   2.234   4.197  12.902
11776POPC  H18S73536   2.169   4.325  12.793
11776POPC  H18T73537   2.346   4.310  12.818
11776POPC   C3373538   1.879   4.180  11.673
11776POPC   H3X73539   1.785   4.238  11.660
11776POPC   H3Y73540   1.924   4.212  11.770
11776POPC   C3473541   1.848   4.030  11.682
11776POPC   H4X73542   1.935   3.979  11.729
11776POPC   H4Y73543   1.837   3.987  11.580
11776POPC   C3573544   1.721   4.001  11.762
11776POPC   H5X73545   1.633   4.042  11.707
11776POPC   H5Y73546   1.727   4.053  11.860
11776POPC   C3673547   1.699   3.851  11.787
11776POPC   H6X73548   1.789   3.811  11.840
11776POPC   H6Y73549   1.692   3.798  11.689
11776POPC   C3773550   1.574   3.819  11.871
11776POPC   H7X73551   1.563   3.709  11.876
11776POPC   H7Y73552   1.484   3.861  11.821
11776POPC   C3873553   1.582   3.874  12.015
11776POPC   H8X73554   1.568   3.984  12.012
11776POPC   H8Y73555   1.684   3.855  12.056
11776POPC   C3973556   1.478   3.811  12.110
11776POPC   H9X73557   1.516   3.713  12.146
11776POPC   H9Y73558   1.386   3.791  12.051
11776POPC  C31073559   1.439   3.900  12.230
11776POPC  H10X73560   1.365   3.845  12.292
11776POPC  H10Y73561   1.387   3.989  12.188
11776POPC  C31173562   1.554   3.950  12.319
11776POPC  H11X73563   1.515   4.030  12.386
11776POPC  H11Y73564   1.633   3.996  12.255
11776POPC  C31273565   1.618   3.841  12.408
11776POPC  H12X73566   1.651   3.760  12.340
11776POPC  H12Y73567   1.542   3.799  12.477
11776POPC  C31373568   1.740   3.890  12.488
11776POPC  H13X73569   1.707   3.960  12.568
11776POPC  H13Y73570   1.805   3.947  12.418
11776POPC  C31473571   1.823   3.776  12.551
11776POPC  H14X73572   1.844   3.702  12.470
11776POPC  H14Y73573   1.765   3.724  12.630
11776POPC  C31573574   1.958   3.824  12.606
11776POPC  H15X73575   1.946   3.860  12.711
11776POPC  H15Y73576   1.990   3.912  12.546
11776POPC  C31673577   2.070   3.719  12.598
11776POPC  H16X73578   2.169   3.767  12.610
11776POPC  H16Y73579   2.068   3.668  12.500
11776POPC  H16Z73580   2.058   3.643  12.678
11777POPC     N73581   7.607   5.202  10.838
11777POPC   C1273582   7.535   5.168  10.967
11777POPC  H12A73583   7.482   5.254  11.003
11777POPC  H12B73584   7.608   5.139  11.042
11777POPC   C1373585   7.508   5.254  10.737
11777POPC  H13A73586   7.425   5.184  10.729
11777POPC  H13B73587   7.465   5.349  10.765
11777POPC  H13C73588   7.554   5.265  10.640
11777POPC   C1473589   7.718   5.301  10.849
11777POPC  H14A73590   7.797   5.266  10.913
11777POPC  H14B73591   7.761   5.315  10.750
11777POPC  H14C73592   7.686   5.398  10.884
11777POPC   C1573593   7.664   5.075  10.783
11777POPC  H15A73594   7.713   5.092  10.687
11777POPC  H15B73595   7.585   5.002  10.772
11777POPC  H15C73596   7.740   5.033  10.848
11777POPC   C1173597   7.433   5.051  10.960
11777POPC  H11A73598   7.387   5.037  11.060
11777POPC  H11B73599   7.487   4.956  10.940
11777POPC     P73600   7.243   4.950  10.816
11777POPC   O1373601   7.329   4.858  10.739
11777POPC   O1473602   7.119   4.998  10.753
11777POPC   O1273603   7.330   5.075  10.864
11777POPC   O1173604   7.192   4.890  10.956
11777POPC    C173605   7.107   4.980  11.032
11777POPC    HA73606   7.001   4.970  10.999
11777POPC    HB73607   7.131   5.087  11.013
11777POPC    C273608   7.112   4.949  11.185
11777POPC    HS73609   7.019   4.988  11.232
11777POPC   O2173610   7.228   5.007  11.249
11777POPC   C2173611   7.235   5.138  11.241
11777POPC   O2273612   7.149   5.213  11.200
11777POPC   C2273613   7.372   5.188  11.288
11777POPC   H2R73614   7.407   5.261  11.211
11777POPC   H2S73615   7.443   5.104  11.291
11777POPC    C373616   7.116   4.797  11.206
11777POPC    HX73617   7.221   4.764  11.183
11777POPC    HY73618   7.051   4.752  11.128
11777POPC   O3173619   7.067   4.755  11.335
11777POPC   C3173620   7.161   4.715  11.422
11777POPC   O3273621   7.280   4.706  11.400
11777POPC   C3273622   7.095   4.676  11.554
11777POPC   H2X73623   7.123   4.570  11.572
11777POPC   H2Y73624   6.985   4.680  11.547
11777POPC   C2373625   7.364   5.262  11.423
11777POPC   H3R73626   7.266   5.315  11.434
11777POPC   H3S73627   7.443   5.340  11.428
11777POPC   C2473628   7.386   5.167  11.541
11777POPC   H4R73629   7.322   5.077  11.529
11777POPC   H4S73630   7.355   5.218  11.635
11777POPC   C2573631   7.533   5.126  11.554
11777POPC   H5R73632   7.590   5.214  11.590
11777POPC   H5S73633   7.575   5.097  11.455
11777POPC   C2673634   7.552   5.011  11.650
11777POPC   H6R73635   7.499   4.920  11.615
11777POPC   H6S73636   7.509   5.039  11.749
11777POPC   C2773637   7.701   4.980  11.668
11777POPC   H7R73638   7.760   5.074  11.662
11777POPC   H7S73639   7.736   4.914  11.585
11777POPC   C2873640   7.729   4.917  11.804
11777POPC   H8R73641   7.708   4.991  11.885
11777POPC   H8S73642   7.839   4.901  11.803
11777POPC   C2973643   7.657   4.787  11.826
11777POPC   H9173644   7.650   4.722  11.737
11777POPC  C21073645   7.599   4.746  11.940
11777POPC  H10173646   7.554   4.646  11.941
11777POPC  C21173647   7.590   4.819  12.072
11777POPC  H11R73648   7.671   4.894  12.084
11777POPC  H11S73649   7.603   4.745  12.154
11777POPC  C21273650   7.453   4.887  12.085
11777POPC  H12R73651   7.374   4.831  12.030
11777POPC  H12S73652   7.459   4.989  12.040
11777POPC  C21373653   7.401   4.901  12.229
11777POPC  H13R73654   7.468   4.973  12.281
11777POPC  H13S73655   7.409   4.806  12.284
11777POPC  C21473656   7.255   4.950  12.230
11777POPC  H14R73657   7.236   5.006  12.136
11777POPC  H14S73658   7.237   5.021  12.313
11777POPC  C21573659   7.150   4.840  12.239
11777POPC  H15R73660   7.144   4.793  12.139
11777POPC  H15S73661   7.053   4.888  12.261
11777POPC  C21673662   7.171   4.727  12.342
11777POPC  H16R73663   7.244   4.657  12.298
11777POPC  H16S73664   7.076   4.673  12.354
11777POPC  C21773665   7.225   4.765  12.480
11777POPC  H17R73666   7.242   4.874  12.480
11777POPC  H17S73667   7.325   4.718  12.494
11777POPC  C21873668   7.133   4.722  12.595
11777POPC  H18R73669   7.027   4.721  12.564
11777POPC  H18S73670   7.144   4.791  12.681
11777POPC  H18T73671   7.158   4.619  12.628
11777POPC   C3373672   7.144   4.766  11.668
11777POPC   H3X73673   7.256   4.768  11.673
11777POPC   H3Y73674   7.108   4.726  11.765
11777POPC   C3473675   7.090   4.909  11.654
11777POPC   H4X73676   6.979   4.904  11.649
11777POPC   H4Y73677   7.127   4.955  11.559
11777POPC   C3573678   7.132   4.997  11.772
11777POPC   H5X73679   7.243   5.003  11.775
11777POPC   H5Y73680   7.099   4.948  11.866
11777POPC   C3673681   7.072   5.138  11.766
11777POPC   H6X73682   6.962   5.131  11.752
11777POPC   H6Y73683   7.112   5.192  11.677
11777POPC   C3773684   7.101   5.218  11.894
11777POPC   H7X73685   7.075   5.157  11.983
11777POPC   H7Y73686   7.036   5.308  11.894
11777POPC   C3873687   7.248   5.262  11.900
11777POPC   H8X73688   7.268   5.324  11.810
11777POPC   H8Y73689   7.315   5.174  11.895
11777POPC   C3973690   7.284   5.346  12.024
11777POPC   H9X73691   7.207   5.425  12.041
11777POPC   H9Y73692   7.379   5.398  11.999
11777POPC  C31073693   7.308   5.263  12.150
11777POPC  H10X73694   7.371   5.176  12.119
11777POPC  H10Y73695   7.212   5.224  12.191
11777POPC  C31173696   7.385   5.339  12.259
11777POPC  H11X73697   7.317   5.389  12.330
11777POPC  H11Y73698   7.440   5.420  12.206
11777POPC  C31273699   7.494   5.257  12.331
11777POPC  H12X73700   7.566   5.332  12.370
11777POPC  H12Y73701   7.550   5.193  12.259
11777POPC  C31373702   7.448   5.176  12.453
11777POPC  H13X73703   7.389   5.087  12.427
11777POPC  H13Y73704   7.379   5.242  12.510
11777POPC  C31473705   7.563   5.134  12.546
11777POPC  H14X73706   7.520   5.123  12.648
11777POPC  H14Y73707   7.640   5.214  12.551
11777POPC  C31573708   7.634   5.002  12.513
11777POPC  H15X73709   7.707   5.018  12.431
11777POPC  H15Y73710   7.559   4.927  12.480
11777POPC  C31673711   7.705   4.949  12.638
11777POPC  H16X73712   7.634   4.893  12.702
11777POPC  H16Y73713   7.743   5.033  12.698
11777POPC  H16Z73714   7.791   4.882  12.612
11778POPC     N73715   4.763   7.509  10.640
11778POPC   C1273716   4.859   7.431  10.729
11778POPC  H12A73717   4.958   7.433  10.685
11778POPC  H12B73718   4.826   7.328  10.732
11778POPC   C1373719   4.621   7.479  10.679
11778POPC  H13A73720   4.552   7.555  10.646
11778POPC  H13B73721   4.593   7.380  10.645
11778POPC  H13C73722   4.616   7.480  10.789
11778POPC   C1473723   4.786   7.655  10.657
11778POPC  H14A73724   4.759   7.684  10.759
11778POPC  H14B73725   4.891   7.679  10.643
11778POPC  H14C73726   4.730   7.713  10.585
11778POPC   C1573727   4.784   7.471  10.498
11778POPC  H15A73728   4.888   7.484  10.468
11778POPC  H15B73729   4.723   7.530  10.431
11778POPC  H15C73730   4.757   7.367  10.482
11778POPC   C1173731   4.872   7.478  10.875
11778POPC  H11A73732   4.927   7.574  10.881
11778POPC  H11B73733   4.930   7.401  10.933
11778POPC     P73734   4.708   7.511  11.076
11778POPC   O1373735   4.747   7.390  11.151
11778POPC   O1473736   4.567   7.555  11.077
11778POPC   O1273737   4.741   7.493  10.925
11778POPC   O1173738   4.805   7.631  11.106
11778POPC    C173739   4.777   7.761  11.054
11778POPC    HA73740   4.672   7.774  11.017
11778POPC    HB73741   4.846   7.781  10.969
11778POPC    C273742   4.802   7.868  11.162
11778POPC    HS73743   4.827   7.961  11.106
11778POPC   O2173744   4.909   7.831  11.250
11778POPC   C2173745   5.028   7.840  11.192
11778POPC   O2273746   5.050   7.881  11.079
11778POPC   C2273747   5.136   7.819  11.295
11778POPC   H2R73748   5.113   7.886  11.380
11778POPC   H2S73749   5.233   7.850  11.251
11778POPC    C373750   4.676   7.900  11.248
11778POPC    HX73751   4.602   7.947  11.180
11778POPC    HY73752   4.703   7.977  11.323
11778POPC   O3173753   4.616   7.784  11.308
11778POPC   C3173754   4.622   7.773  11.439
11778POPC   O3273755   4.663   7.858  11.517
11778POPC   C3273756   4.558   7.642  11.479
11778POPC   H2X73757   4.476   7.619  11.408
11778POPC   H2Y73758   4.516   7.653  11.581
11778POPC   C2373759   5.146   7.674  11.343
11778POPC   H3R73760   5.195   7.613  11.263
11778POPC   H3S73761   5.044   7.632  11.362
11778POPC   C2473762   5.228   7.665  11.472
11778POPC   H4R73763   5.333   7.696  11.451
11778POPC   H4S73764   5.230   7.560  11.507
11778POPC   C2573765   5.169   7.751  11.585
11778POPC   H5R73766   5.058   7.758  11.572
11778POPC   H5S73767   5.211   7.853  11.577
11778POPC   C2673768   5.200   7.690  11.721
11778POPC   H6R73769   5.307   7.663  11.724
11778POPC   H6S73770   5.139   7.597  11.734
11778POPC   C2773771   5.169   7.788  11.835
11778POPC   H7R73772   5.064   7.823  11.823
11778POPC   H7S73773   5.235   7.877  11.825
11778POPC   C2873774   5.182   7.725  11.974
11778POPC   H8R73775   5.103   7.646  11.981
11778POPC   H8S73776   5.156   7.803  12.050
11778POPC   C2973777   5.317   7.665  12.005
11778POPC   H9173778   5.392   7.664  11.924
11778POPC  C21073779   5.346   7.613  12.125
11778POPC  H10173780   5.445   7.567  12.142
11778POPC  C21173781   5.248   7.608  12.240
11778POPC  H11R73782   5.146   7.585  12.203
11778POPC  H11S73783   5.241   7.707  12.290
11778POPC  C21273784   5.282   7.501  12.345
11778POPC  H12R73785   5.377   7.527  12.398
11778POPC  H12S73786   5.299   7.404  12.293
11778POPC  C21373787   5.167   7.482  12.445
11778POPC  H13R73788   5.144   7.373  12.451
11778POPC  H13S73789   5.075   7.532  12.407
11778POPC  C21473790   5.197   7.531  12.587
11778POPC  H14R73791   5.294   7.488  12.621
11778POPC  H14S73792   5.120   7.492  12.658
11778POPC  C21573793   5.204   7.684  12.604
11778POPC  H15R73794   5.292   7.725  12.551
11778POPC  H15S73795   5.221   7.700  12.712
11778POPC  C21673796   5.081   7.767  12.568
11778POPC  H16R73797   4.988   7.711  12.590
11778POPC  H16S73798   5.083   7.789  12.459
11778POPC  C21773799   5.080   7.899  12.648
11778POPC  H17R73800   5.043   7.982  12.585
11778POPC  H17S73801   5.185   7.924  12.674
11778POPC  C21873802   4.996   7.891  12.776
11778POPC  H18R73803   4.904   7.952  12.767
11778POPC  H18S73804   5.054   7.928  12.863
11778POPC  H18T73805   4.968   7.787  12.798
11778POPC   C3373806   4.663   7.531  11.480
11778POPC   H3X73807   4.709   7.518  11.379
11778POPC   H3Y73808   4.609   7.436  11.503
11778POPC   C3473809   4.771   7.559  11.584
11778POPC   H4X73810   4.725   7.602  11.675
11778POPC   H4Y73811   4.840   7.637  11.544
11778POPC   C3573812   4.851   7.435  11.621
11778POPC   H5X73813   4.928   7.467  11.695
11778POPC   H5Y73814   4.902   7.401  11.529
11778POPC   C3673815   4.768   7.318  11.678
11778POPC   H6X73816   4.838   7.238  11.710
11778POPC   H6Y73817   4.706   7.274  11.597
11778POPC   C3773818   4.678   7.355  11.797
11778POPC   H7X73819   4.620   7.265  11.825
11778POPC   H7Y73820   4.605   7.434  11.767
11778POPC   C3873821   4.760   7.401  11.918
11778POPC   H8X73822   4.815   7.495  11.894
11778POPC   H8Y73823   4.835   7.321  11.937
11778POPC   C3973824   4.680   7.419  12.047
11778POPC   H9X73825   4.751   7.440  12.130
11778POPC   H9Y73826   4.630   7.322  12.072
11778POPC  C31073827   4.575   7.530  12.044
11778POPC  H10X73828   4.534   7.534  12.147
11778POPC  H10Y73829   4.491   7.500  11.977
11778POPC  C31173830   4.622   7.671  12.003
11778POPC  H11X73831   4.540   7.742  12.025
11778POPC  H11Y73832   4.640   7.673  11.894
11778POPC  C31273833   4.745   7.725  12.077
11778POPC  H12X73834   4.766   7.826  12.035
11778POPC  H12Y73835   4.835   7.662  12.058
11778POPC  C31373836   4.721   7.740  12.228
11778POPC  H13X73837   4.745   7.644  12.279
11778POPC  H13Y73838   4.613   7.761  12.245
11778POPC  C31473839   4.800   7.855  12.289
11778POPC  H14X73840   4.761   7.950  12.248
11778POPC  H14Y73841   4.907   7.845  12.260
11778POPC  C31573842   4.791   7.863  12.442
11778POPC  H15X73843   4.875   7.928  12.475
11778POPC  H15Y73844   4.805   7.762  12.486
11778POPC  C31673845   4.662   7.925  12.497
11778POPC  H16X73846   4.640   8.022  12.446
11778POPC  H16Y73847   4.672   7.944  12.606
11778POPC  H16Z73848   4.577   7.857  12.481
11779POPC     N73849   1.755   5.127  11.048
11779POPC   C1273850   1.867   5.164  10.951
11779POPC  H12A73851   1.948   5.213  11.003
11779POPC  H12B73852   1.831   5.238  10.880
11779POPC   C1373853   1.804   5.031  11.153
11779POPC  H13A73854   1.852   4.947  11.105
11779POPC  H13B73855   1.878   5.077  11.217
11779POPC  H13C73856   1.724   4.993  11.214
11779POPC   C1473857   1.697   5.247  11.115
11779POPC  H14A73858   1.649   5.313  11.043
11779POPC  H14B73859   1.623   5.218  11.189
11779POPC  H14C73860   1.772   5.305  11.167
11779POPC   C1573861   1.647   5.059  10.969
11779POPC  H15A73862   1.684   4.962  10.934
11779POPC  H15B73863   1.627   5.114  10.878
11779POPC  H15C73864   1.556   5.045  11.026
11779POPC   C1173865   1.922   5.051  10.861
11779POPC  H11A73866   1.929   4.955  10.917
11779POPC  H11B73867   2.025   5.080  10.829
11779POPC     P73868   1.848   4.919  10.646
11779POPC   O1373869   1.989   4.904  10.597
11779POPC   O1473870   1.742   4.931  10.544
11779POPC   O1273871   1.838   5.042  10.746
11779POPC   O1173872   1.812   4.799  10.743
11779POPC    C173873   1.778   4.673  10.684
11779POPC    HA73874   1.846   4.646  10.599
11779POPC    HB73875   1.673   4.677  10.644
11779POPC    C273876   1.787   4.557  10.788
11779POPC    HS73877   1.736   4.468  10.746
11779POPC   O2173878   1.727   4.593  10.913
11779POPC   C2173879   1.604   4.634  10.919
11779POPC   O2273880   1.519   4.615  10.833
11779POPC   C2273881   1.582   4.691  11.060
11779POPC   H2R73882   1.670   4.751  11.088
11779POPC   H2S73883   1.577   4.602  11.128
11779POPC    C373884   1.936   4.515  10.814
11779POPC    HX73885   1.983   4.491  10.716
11779POPC    HY73886   1.940   4.420  10.872
11779POPC   O3173887   2.014   4.620  10.876
11779POPC   C3173888   2.002   4.622  11.009
11779POPC   O3273889   1.929   4.548  11.074
11779POPC   C3273890   2.088   4.734  11.067
11779POPC   H2X73891   2.029   4.827  11.070
11779POPC   H2Y73892   2.174   4.749  10.998
11779POPC   C2373893   1.451   4.772  11.078
11779POPC   H3R73894   1.366   4.712  11.039
11779POPC   H3S73895   1.454   4.866  11.019
11779POPC   C2473896   1.422   4.804  11.226
11779POPC   H4R73897   1.421   4.707  11.281
11779POPC   H4S73898   1.320   4.849  11.235
11779POPC   C2573899   1.523   4.892  11.301
11779POPC   H5R73900   1.530   4.992  11.254
11779POPC   H5S73901   1.623   4.842  11.296
11779POPC   C2673902   1.485   4.906  11.450
11779POPC   H6R73903   1.445   4.808  11.483
11779POPC   H6S73904   1.403   4.980  11.462
11779POPC   C2773905   1.602   4.938  11.544
11779POPC   H7R73906   1.685   4.866  11.524
11779POPC   H7S73907   1.568   4.919  11.649
11779POPC   C2873908   1.652   5.082  11.535
11779POPC   H8R73909   1.567   5.151  11.555
11779POPC   H8S73910   1.686   5.103  11.431
11779POPC   C2973911   1.765   5.106  11.632
11779POPC   H9173912   1.865   5.081  11.594
11779POPC  C21073913   1.753   5.150  11.759
11779POPC  H10173914   1.844   5.161  11.820
11779POPC  C21173915   1.624   5.185  11.829
11779POPC  H11R73916   1.537   5.128  11.789
11779POPC  H11S73917   1.602   5.292  11.812
11779POPC  C21273918   1.630   5.164  11.982
11779POPC  H12R73919   1.543   5.216  12.027
11779POPC  H12S73920   1.721   5.214  12.022
11779POPC  C21373921   1.631   5.018  12.031
11779POPC  H13R73922   1.661   5.017  12.138
11779POPC  H13S73923   1.708   4.961  11.975
11779POPC  C21473924   1.496   4.943  12.020
11779POPC  H14R73925   1.509   4.844  12.069
11779POPC  H14S73926   1.473   4.926  11.913
11779POPC  C21573927   1.375   5.013  12.085
11779POPC  H15R73928   1.289   4.942  12.086
11779POPC  H15S73929   1.345   5.100  12.023
11779POPC  C21673930   1.402   5.060  12.229
11779POPC  H16R73931   1.489   5.129  12.231
11779POPC  H16S73932   1.428   4.971  12.290
11779POPC  C21773933   1.283   5.133  12.294
11779POPC  H17R73934   1.194   5.066  12.295
11779POPC  H17S73935   1.258   5.222  12.231
11779POPC  C21873936   1.315   5.180  12.437
11779POPC  H18R73937   1.237   5.250  12.474
11779POPC  H18S73938   1.413   5.232  12.439
11779POPC  H18T73939   1.320   5.093  12.505
11779POPC   C3373940   2.141   4.697  11.207
11779POPC   H3X73941   2.236   4.752  11.226
11779POPC   H3Y73942   2.166   4.588  11.211
11779POPC   C3473943   2.040   4.731  11.316
11779POPC   H4X73944   1.946   4.672  11.301
11779POPC   H4Y73945   2.013   4.839  11.306
11779POPC   C3573946   2.092   4.706  11.457
11779POPC   H5X73947   2.189   4.760  11.469
11779POPC   H5Y73948   2.112   4.598  11.473
11779POPC   C3673949   1.991   4.758  11.559
11779POPC   H6X73950   1.897   4.699  11.553
11779POPC   H6Y73951   1.967   4.863  11.532
11779POPC   C3773952   2.043   4.757  11.703
11779POPC   H7X73953   2.151   4.785  11.706
11779POPC   H7Y73954   2.034   4.654  11.744
11779POPC   C3873955   1.965   4.857  11.788
11779POPC   H8X73956   1.856   4.847  11.769
11779POPC   H8Y73957   1.996   4.960  11.758
11779POPC   C3973958   1.989   4.839  11.938
11779POPC   H9X73959   1.959   4.933  11.990
11779POPC   H9Y73960   2.098   4.824  11.956
11779POPC  C31073961   1.909   4.722  11.996
11779POPC  H10X73962   1.917   4.634  11.929
11779POPC  H10Y73963   1.801   4.751  12.000
11779POPC  C31173964   1.956   4.683  12.136
11779POPC  H11X73965   2.063   4.651  12.128
11779POPC  H11Y73966   1.897   4.596  12.171
11779POPC  C31273967   1.945   4.799  12.235
11779POPC  H12X73968   1.842   4.840  12.231
11779POPC  H12Y73969   2.016   4.879  12.203
11779POPC  C31373970   1.979   4.760  12.379
11779POPC  H13X73971   2.019   4.849  12.434
11779POPC  H13Y73972   2.059   4.684  12.378
11779POPC  C31473973   1.858   4.705  12.454
11779POPC  H14X73974   1.890   4.640  12.538
11779POPC  H14Y73975   1.800   4.640  12.384
11779POPC  C31573976   1.766   4.815  12.508
11779POPC  H15X73977   1.675   4.763  12.544
11779POPC  H15Y73978   1.736   4.882  12.424
11779POPC  C31673979   1.817   4.899  12.625
11779POPC  H16X73980   1.921   4.935  12.607
11779POPC  H16Y73981   1.814   4.841  12.719
11779POPC  H16Z73982   1.751   4.988  12.638
11780POPC     N73983   3.143   7.170  10.677
11780POPC   C1273984   3.156   7.182  10.827
11780POPC  H12A73985   3.080   7.251  10.864
11780POPC  H12B73986   3.252   7.224  10.853
11780POPC   C1373987   3.003   7.208  10.638
11780POPC  H13A73988   2.988   7.198  10.531
11780POPC  H13B73989   2.934   7.141  10.689
11780POPC  H13C73990   2.979   7.310  10.667
11780POPC   C1473991   3.241   7.259  10.610
11780POPC  H14A73992   3.246   7.237  10.504
11780POPC  H14B73993   3.215   7.364  10.623
11780POPC  H14C73994   3.341   7.245  10.651
11780POPC   C1573995   3.161   7.027  10.635
11780POPC  H15A73996   3.260   6.990  10.658
11780POPC  H15B73997   3.136   7.014  10.531
11780POPC  H15C73998   3.092   6.965  10.694
11780POPC   C1173999   3.140   7.051  10.905
11780POPC  H11A74000   3.154   7.076  11.013
11780POPC  H11B74001   3.221   6.979  10.881
11780POPC     P74002   2.899   6.966  10.976
11780POPC   O1374003   2.855   6.825  10.964
11780POPC   O1474004   2.799   7.074  10.965
11780POPC   O1274005   3.014   6.992  10.871
11780POPC   O1174006   2.978   6.993  11.110
11780POPC    C174007   2.950   6.926  11.230
11780POPC    HA74008   3.047   6.895  11.276
11780POPC    HB74009   2.890   6.833  11.215
11780POPC    C274010   2.876   7.018  11.330
11780POPC    HS74011   2.780   7.049  11.283
11780POPC   O2174012   2.956   7.135  11.360
11780POPC   C2174013   2.900   7.218  11.447
11780POPC   O2274014   2.794   7.202  11.503
11780POPC   C2274015   2.988   7.335  11.480
11780POPC   H2R74016   2.936   7.427  11.448
11780POPC   H2S74017   3.085   7.327  11.426
11780POPC    C374018   2.848   6.929  11.455
11780POPC    HX74019   2.779   6.850  11.417
11780POPC    HY74020   2.792   6.980  11.534
11780POPC   O3174021   2.971   6.880  11.511
11780POPC   C3174022   2.984   6.748  11.512
11780POPC   O3274023   2.909   6.669  11.458
11780POPC   C3274024   3.098   6.707  11.600
11780POPC   H2X74025   3.174   6.787  11.607
11780POPC   H2Y74026   3.142   6.616  11.553
11780POPC   C2374027   3.004   7.332  11.633
11780POPC   H3R74028   2.907   7.354  11.683
11780POPC   H3S74029   3.072   7.415  11.660
11780POPC   C2474030   3.053   7.194  11.680
11780POPC   H4R74031   3.123   7.155  11.602
11780POPC   H4S74032   2.966   7.123  11.681
11780POPC   C2574033   3.120   7.185  11.817
11780POPC   H5R74034   3.172   7.087  11.826
11780POPC   H5S74035   3.040   7.185  11.895
11780POPC   C2674036   3.221   7.296  11.846
11780POPC   H6R74037   3.231   7.367  11.762
11780POPC   H6S74038   3.322   7.256  11.861
11780POPC   C2774039   3.188   7.371  11.974
11780POPC   H7R74040   3.078   7.368  11.993
11780POPC   H7S74041   3.214   7.477  11.955
11780POPC   C2874042   3.269   7.316  12.092
11780POPC   H8R74043   3.378   7.315  12.071
11780POPC   H8S74044   3.237   7.213  12.117
11780POPC   C2974045   3.237   7.417  12.195
11780POPC   H9174046   3.296   7.510  12.194
11780POPC  C21074047   3.137   7.405  12.281
11780POPC  H10174048   3.096   7.502  12.309
11780POPC  C21174049   3.038   7.292  12.294
11780POPC  H11R74050   3.072   7.218  12.370
11780POPC  H11S74051   3.026   7.236  12.198
11780POPC  C21274052   2.900   7.346  12.334
11780POPC  H12R74053   2.827   7.262  12.325
11780POPC  H12S74054   2.870   7.421  12.259
11780POPC  C21374055   2.884   7.401  12.477
11780POPC  H13R74056   2.900   7.317  12.545
11780POPC  H13S74057   2.779   7.431  12.494
11780POPC  C21474058   2.973   7.515  12.531
11780POPC  H14R74059   2.919   7.611  12.521
11780POPC  H14S74060   3.072   7.527  12.484
11780POPC  C21574061   3.018   7.488  12.674
11780POPC  H15R74062   3.090   7.563  12.711
11780POPC  H15S74063   3.078   7.396  12.670
11780POPC  C21674064   2.901   7.477  12.771
11780POPC  H16R74065   2.845   7.385  12.744
11780POPC  H16S74066   2.831   7.562  12.757
11780POPC  C21774067   2.948   7.469  12.915
11780POPC  H17R74068   3.004   7.561  12.941
11780POPC  H17S74069   3.020   7.386  12.925
11780POPC  C21874070   2.832   7.448  13.012
11780POPC  H18R74071   2.851   7.499  13.109
11780POPC  H18S74072   2.818   7.339  13.031
11780POPC  H18T74073   2.738   7.485  12.969
11780POPC   C3374074   3.036   6.674  11.736
11780POPC   H3X74075   3.106   6.610  11.794
11780POPC   H3Y74076   2.943   6.613  11.723
11780POPC   C3474077   3.003   6.800  11.816
11780POPC   H4X74078   2.895   6.795  11.844
11780POPC   H4Y74079   3.016   6.892  11.754
11780POPC   C3574080   3.086   6.816  11.943
11780POPC   H5X74081   3.177   6.877  11.920
11780POPC   H5Y74082   3.120   6.717  11.979
11780POPC   C3674083   3.004   6.882  12.054
11780POPC   H6X74084   2.938   6.960  12.012
11780POPC   H6Y74085   3.077   6.932  12.121
11780POPC   C3774086   2.924   6.776  12.131
11780POPC   H7X74087   2.992   6.690  12.153
11780POPC   H7Y74088   2.843   6.735  12.066
11780POPC   C3874089   2.865   6.824  12.264
11780POPC   H8X74090   2.828   6.735  12.319
11780POPC   H8Y74091   2.778   6.891  12.245
11780POPC   C3974092   2.968   6.897  12.353
11780POPC   H9X74093   2.919   6.924  12.448
11780POPC   H9Y74094   2.996   6.994  12.305
11780POPC  C31074095   3.094   6.813  12.376
11780POPC  H10X74096   3.137   6.785  12.277
11780POPC  H10Y74097   3.069   6.718  12.427
11780POPC  C31174098   3.209   6.886  12.447
11780POPC  H11X74099   3.219   6.989  12.405
11780POPC  H11Y74100   3.303   6.831  12.422
11780POPC  C31274101   3.202   6.894  12.600
11780POPC  H12X74102   3.174   6.995  12.632
11780POPC  H12Y74103   3.308   6.888  12.634
11780POPC  C31374104   3.130   6.779  12.675
11780POPC  H13X74105   3.169   6.792  12.778
11780POPC  H13Y74106   3.162   6.682  12.632
11780POPC  C31474107   2.978   6.758  12.690
11780POPC  H14X74108   2.959   6.648  12.685
11780POPC  H14Y74109   2.924   6.802  12.605
11780POPC  C31574110   2.919   6.805  12.824
11780POPC  H15X74111   2.810   6.810  12.817
11780POPC  H15Y74112   2.940   6.911  12.841
11780POPC  C31674113   2.959   6.727  12.949
11780POPC  H16X74114   2.886   6.743  13.031
11780POPC  H16Y74115   3.059   6.759  12.986
11780POPC  H16Z74116   2.962   6.618  12.926
11781POPC     N74117   4.112   1.942  10.952
11781POPC   C1274118   3.962   1.946  10.976
11781POPC  H12A74119   3.939   2.010  11.061
11781POPC  H12B74120   3.927   1.846  11.004
11781POPC   C1374121   4.160   2.071  10.892
11781POPC  H13A74122   4.115   2.084  10.794
11781POPC  H13B74123   4.129   2.157  10.952
11781POPC  H13C74124   4.268   2.071  10.883
11781POPC   C1474125   4.189   1.917  11.078
11781POPC  H14A74126   4.157   1.827  11.128
11781POPC  H14B74127   4.296   1.906  11.058
11781POPC  H14C74128   4.178   1.999  11.148
11781POPC   C1574129   4.134   1.831  10.855
11781POPC  H15A74130   4.106   1.735  10.896
11781POPC  H15B74131   4.234   1.830  10.815
11781POPC  H15C74132   4.067   1.846  10.770
11781POPC   C1174133   3.870   1.987  10.858
11781POPC  H11A74134   3.898   2.088  10.825
11781POPC  H11B74135   3.765   1.995  10.897
11781POPC     P74136   3.782   1.773  10.740
11781POPC   O1374137   3.840   1.660  10.662
11781POPC   O1474138   3.646   1.823  10.706
11781POPC   O1274139   3.880   1.897  10.745
11781POPC   O1174140   3.780   1.746  10.893
11781POPC    C174141   3.793   1.617  10.947
11781POPC    HA74142   3.888   1.570  10.913
11781POPC    HB74143   3.709   1.552  10.914
11781POPC    C274144   3.794   1.628  11.102
11781POPC    HS74145   3.694   1.592  11.136
11781POPC   O2174146   3.826   1.762  11.144
11781POPC   C2174147   3.762   1.800  11.252
11781POPC   O2274148   3.667   1.744  11.302
11781POPC   C2274149   3.820   1.932  11.302
11781POPC   H2R74150   3.772   2.015  11.245
11781POPC   H2S74151   3.929   1.934  11.285
11781POPC    C374152   3.903   1.537  11.155
11781POPC    HX74153   3.990   1.588  11.113
11781POPC    HY74154   3.903   1.436  11.113
11781POPC   O3174155   3.919   1.538  11.297
11781POPC   C3174156   3.855   1.439  11.354
11781POPC   O3274157   3.758   1.380  11.312
11781POPC   C3274158   3.927   1.409  11.482
11781POPC   H2X74159   3.969   1.504  11.522
11781POPC   H2Y74160   4.010   1.339  11.460
11781POPC   C2374161   3.789   1.948  11.452
11781POPC   H3R74162   3.842   1.867  11.508
11781POPC   H3S74163   3.680   1.934  11.470
11781POPC   C2474164   3.829   2.083  11.511
11781POPC   H4R74165   3.770   2.164  11.462
11781POPC   H4S74166   3.936   2.104  11.491
11781POPC   C2574167   3.802   2.085  11.662
11781POPC   H5R74168   3.708   2.030  11.683
11781POPC   H5S74169   3.786   2.190  11.696
11781POPC   C2674170   3.919   2.026  11.743
11781POPC   H6R74171   3.951   1.928  11.701
11781POPC   H6S74172   3.884   2.007  11.847
11781POPC   C2774173   4.036   2.124  11.749
11781POPC   H7R74174   3.991   2.222  11.776
11781POPC   H7S74175   4.082   2.135  11.649
11781POPC   C2874176   4.142   2.092  11.855
11781POPC   H8R74177   4.089   2.064  11.948
11781POPC   H8S74178   4.197   2.185  11.878
11781POPC   C2974179   4.243   1.990  11.807
11781POPC   H9174180   4.293   2.015  11.712
11781POPC  C21074181   4.276   1.875  11.868
11781POPC  H10174182   4.360   1.816  11.827
11781POPC  C21174183   4.220   1.824  11.997
11781POPC  H11R74184   4.160   1.732  11.980
11781POPC  H11S74185   4.151   1.900  12.038
11781POPC  C21274186   4.323   1.795  12.107
11781POPC  H12R74187   4.408   1.865  12.098
11781POPC  H12S74188   4.363   1.692  12.096
11781POPC  C21374189   4.264   1.815  12.248
11781POPC  H13R74190   4.268   1.923  12.275
11781POPC  H13S74191   4.327   1.759  12.320
11781POPC  C21474192   4.118   1.768  12.255
11781POPC  H14R74193   4.112   1.668  12.207
11781POPC  H14S74194   4.052   1.834  12.197
11781POPC  C21574195   4.062   1.760  12.396
11781POPC  H15R74196   4.073   1.855  12.452
11781POPC  H15S74197   4.127   1.687  12.443
11781POPC  C21674198   3.916   1.712  12.392
11781POPC  H16R74199   3.912   1.628  12.319
11781POPC  H16S74200   3.857   1.795  12.350
11781POPC  C21774201   3.847   1.664  12.521
11781POPC  H17R74202   3.749   1.621  12.486
11781POPC  H17S74203   3.823   1.751  12.586
11781POPC  C21874204   3.918   1.556  12.602
11781POPC  H18R74205   3.850   1.473  12.627
11781POPC  H18S74206   3.958   1.594  12.698
11781POPC  H18T74207   3.999   1.509  12.542
11781POPC   C3374208   3.827   1.348  11.580
11781POPC   H3X74209   3.881   1.324  11.674
11781POPC   H3Y74210   3.787   1.252  11.540
11781POPC   C3474211   3.710   1.442  11.604
11781POPC   H4X74212   3.633   1.387  11.662
11781POPC   H4Y74213   3.657   1.468  11.509
11781POPC   C3574214   3.745   1.572  11.676
11781POPC   H5X74215   3.809   1.638  11.613
11781POPC   H5Y74216   3.800   1.552  11.770
11781POPC   C3674217   3.613   1.639  11.706
11781POPC   H6X74218   3.551   1.567  11.763
11781POPC   H6Y74219   3.561   1.661  11.610
11781POPC   C3774220   3.626   1.767  11.787
11781POPC   H7X74221   3.530   1.823  11.783
11781POPC   H7Y74222   3.706   1.831  11.743
11781POPC   C3874223   3.657   1.738  11.934
11781POPC   H8X74224   3.762   1.701  11.943
11781POPC   H8Y74225   3.589   1.661  11.975
11781POPC   C3974226   3.643   1.867  12.012
11781POPC   H9X74227   3.542   1.912  11.999
11781POPC   H9Y74228   3.716   1.936  11.963
11781POPC  C31074229   3.674   1.852  12.160
11781POPC  H10X74230   3.756   1.777  12.171
11781POPC  H10Y74231   3.585   1.812  12.214
11781POPC  C31174232   3.720   1.985  12.221
11781POPC  H11X74233   3.740   1.971  12.329
11781POPC  H11Y74234   3.638   2.060  12.212
11781POPC  C31274235   3.845   2.040  12.150
11781POPC  H12X74236   3.815   2.086  12.053
11781POPC  H12Y74237   3.916   1.959  12.126
11781POPC  C31374238   3.915   2.149  12.230
11781POPC  H13X74239   3.834   2.217  12.266
11781POPC  H13Y74240   3.983   2.207  12.164
11781POPC  C31474241   3.995   2.098  12.350
11781POPC  H14X74242   4.099   2.073  12.319
11781POPC  H14Y74243   3.948   2.005  12.387
11781POPC  C31574244   3.993   2.198  12.465
11781POPC  H15X74245   4.068   2.169  12.542
11781POPC  H15Y74246   3.893   2.187  12.512
11781POPC  C31674247   4.012   2.344  12.423
11781POPC  H16X74248   3.945   2.409  12.485
11781POPC  H16Y74249   3.983   2.365  12.318
11781POPC  H16Z74250   4.117   2.376  12.437
11782POPC     N74251   1.813   5.959  10.887
11782POPC   C1274252   1.797   5.807  10.893
11782POPC  H12A74253   1.725   5.778  10.818
11782POPC  H12B74254   1.756   5.779  10.989
11782POPC   C1374255   1.832   5.994  10.743
11782POPC  H13A74256   1.923   5.943  10.710
11782POPC  H13B74257   1.751   5.958  10.682
11782POPC  H13C74258   1.845   6.100  10.728
11782POPC   C1474259   1.695   6.033  10.939
11782POPC  H14A74260   1.682   6.015  11.045
11782POPC  H14B74261   1.708   6.141  10.923
11782POPC  H14C74262   1.604   6.005  10.887
11782POPC   C1574263   1.936   5.996  10.963
11782POPC  H15A74264   1.921   5.982  11.069
11782POPC  H15B74265   1.967   6.097  10.943
11782POPC  H15C74266   2.018   5.930  10.934
11782POPC   C1174267   1.925   5.719  10.873
11782POPC  H11A74268   1.895   5.619  10.834
11782POPC  H11B74269   1.967   5.702  10.975
11782POPC     P74270   2.177   5.764  10.818
11782POPC   O1374271   2.251   5.876  10.754
11782POPC   O1474272   2.224   5.625  10.793
11782POPC   O1274273   2.020   5.776  10.781
11782POPC   O1174274   2.182   5.794  10.974
11782POPC    C174275   2.313   5.816  11.030
11782POPC    HA74276   2.355   5.912  10.993
11782POPC    HB74277   2.385   5.735  11.000
11782POPC    C274278   2.308   5.822  11.184
11782POPC    HS74279   2.274   5.721  11.217
11782POPC   O2174280   2.216   5.927  11.222
11782POPC   C2174281   2.107   5.888  11.284
11782POPC   O2274282   2.080   5.775  11.321
11782POPC   C2274283   2.019   6.011  11.308
11782POPC   H2R74284   1.914   5.975  11.303
11782POPC   H2S74285   2.036   6.086  11.229
11782POPC    C374286   2.448   5.847  11.250
11782POPC    HX74287   2.494   5.937  11.203
11782POPC    HY74288   2.517   5.764  11.230
11782POPC   O3174289   2.440   5.868  11.392
11782POPC   C3174290   2.394   5.765  11.460
11782POPC   O3274291   2.374   5.652  11.420
11782POPC   C3274292   2.352   5.813  11.598
11782POPC   H2X74293   2.302   5.911  11.588
11782POPC   H2Y74294   2.443   5.824  11.661
11782POPC   C2374295   2.044   6.074  11.447
11782POPC   H3R74296   2.145   6.122  11.449
11782POPC   H3S74297   2.045   5.992  11.524
11782POPC   C2474298   1.937   6.176  11.489
11782POPC   H4R74299   1.836   6.132  11.467
11782POPC   H4S74300   1.947   6.269  11.430
11782POPC   C2574301   1.940   6.207  11.639
11782POPC   H5R74302   1.932   6.110  11.692
11782POPC   H5S74303   1.852   6.269  11.668
11782POPC   C2674304   2.067   6.280  11.685
11782POPC   H6R74305   2.070   6.382  11.640
11782POPC   H6S74306   2.158   6.226  11.649
11782POPC   C2774307   2.075   6.294  11.838
11782POPC   H7R74308   1.994   6.361  11.874
11782POPC   H7S74309   2.172   6.342  11.862
11782POPC   C2874310   2.068   6.161  11.916
11782POPC   H8R74311   1.971   6.110  11.898
11782POPC   H8S74312   2.070   6.184  12.025
11782POPC   C2974313   2.183   6.073  11.876
11782POPC   H9174314   2.165   6.009  11.788
11782POPC  C21074315   2.304   6.073  11.933
11782POPC  H10174316   2.381   6.003  11.898
11782POPC  C21174317   2.344   6.162  12.048
11782POPC  H11R74318   2.273   6.246  12.066
11782POPC  H11S74319   2.442   6.210  12.025
11782POPC  C21274320   2.360   6.081  12.177
11782POPC  H12R74321   2.403   6.147  12.256
11782POPC  H12S74322   2.432   5.998  12.157
11782POPC  C21374323   2.234   6.016  12.236
11782POPC  H13R74324   2.173   5.968  12.157
11782POPC  H13S74325   2.173   6.096  12.283
11782POPC  C21474326   2.273   5.910  12.341
11782POPC  H14R74327   2.366   5.942  12.393
11782POPC  H14S74328   2.298   5.816  12.288
11782POPC  C21574329   2.163   5.884  12.444
11782POPC  H15R74330   2.084   5.826  12.393
11782POPC  H15S74331   2.114   5.981  12.470
11782POPC  C21674332   2.196   5.809  12.574
11782POPC  H16R74333   2.106   5.748  12.599
11782POPC  H16S74334   2.205   5.881  12.658
11782POPC  C21774335   2.316   5.714  12.574
11782POPC  H17R74336   2.352   5.698  12.470
11782POPC  H17S74337   2.281   5.614  12.609
11782POPC  C21874338   2.432   5.758  12.665
11782POPC  H18R74339   2.498   5.672  12.688
11782POPC  H18S74340   2.394   5.797  12.762
11782POPC  H18T74341   2.493   5.838  12.617
11782POPC   C3374342   2.256   5.707  11.653
11782POPC   H3X74343   2.307   5.608  11.650
11782POPC   H3Y74344   2.165   5.699  11.589
11782POPC   C3474345   2.213   5.731  11.797
11782POPC   H4X74346   2.136   5.811  11.801
11782POPC   H4Y74347   2.301   5.763  11.857
11782POPC   C3574348   2.155   5.603  11.856
11782POPC   H5X74349   2.227   5.520  11.836
11782POPC   H5Y74350   2.060   5.576  11.805
11782POPC   C3674351   2.137   5.615  12.006
11782POPC   H6X74352   2.228   5.660  12.052
11782POPC   H6Y74353   2.126   5.512  12.048
11782POPC   C3774354   2.014   5.698  12.046
11782POPC   H7X74355   1.925   5.665  11.988
11782POPC   H7Y74356   2.033   5.805  12.023
11782POPC   C3874357   1.991   5.677  12.195
11782POPC   H8X74358   2.087   5.702  12.244
11782POPC   H8Y74359   1.974   5.569  12.214
11782POPC   C3974360   1.874   5.753  12.260
11782POPC   H9X74361   1.883   5.735  12.369
11782POPC   H9Y74362   1.778   5.707  12.228
11782POPC  C31074363   1.865   5.905  12.236
11782POPC  H10X74364   1.845   5.920  12.128
11782POPC  H10Y74365   1.960   5.956  12.259
11782POPC  C31174366   1.750   5.969  12.317
11782POPC  H11X74367   1.664   5.899  12.321
11782POPC  H11Y74368   1.716   6.059  12.260
11782POPC  C31274369   1.785   6.019  12.459
11782POPC  H12X74370   1.694   6.067  12.502
11782POPC  H12Y74371   1.863   6.098  12.450
11782POPC  C31374372   1.837   5.916  12.561
11782POPC  H13X74373   1.858   5.970  12.656
11782POPC  H13Y74374   1.934   5.877  12.528
11782POPC  C31474375   1.750   5.792  12.590
11782POPC  H14X74376   1.709   5.748  12.497
11782POPC  H14Y74377   1.663   5.824  12.650
11782POPC  C31574378   1.830   5.685  12.666
11782POPC  H15X74379   1.899   5.736  12.737
11782POPC  H15Y74380   1.892   5.627  12.594
11782POPC  C31674381   1.745   5.588  12.747
11782POPC  H16X74382   1.806   5.509  12.796
11782POPC  H16Y74383   1.668   5.540  12.684
11782POPC  H16Z74384   1.694   5.646  12.828
11783POPC     N74385   7.120   6.669  10.862
11783POPC   C1274386   7.041   6.569  10.945
11783POPC  H12A74387   6.950   6.619  10.980
11783POPC  H12B74388   7.093   6.542  11.036
11783POPC   C1374389   7.027   6.716  10.754
11783POPC  H13A74390   6.951   6.781  10.795
11783POPC  H13B74391   7.080   6.770  10.676
11783POPC  H13C74392   6.976   6.631  10.710
11783POPC   C1474393   7.160   6.790  10.941
11783POPC  H14A74394   7.075   6.833  10.994
11783POPC  H14B74395   7.239   6.768  11.012
11783POPC  H14C74396   7.200   6.868  10.877
11783POPC   C1574397   7.242   6.609  10.799
11783POPC  H15A74398   7.314   6.573  10.874
11783POPC  H15B74399   7.297   6.682  10.740
11783POPC  H15C74400   7.214   6.530  10.732
11783POPC   C1174401   6.991   6.439  10.875
11783POPC  H11A74402   6.959   6.366  10.955
11783POPC  H11B74403   7.076   6.391  10.822
11783POPC     P74404   6.738   6.488  10.840
11783POPC   O1374405   6.700   6.378  10.932
11783POPC   O1474406   6.643   6.525  10.732
11783POPC   O1274407   6.885   6.463  10.782
11783POPC   O1174408   6.771   6.617  10.926
11783POPC    C174409   6.684   6.679  11.019
11783POPC    HA74410   6.578   6.649  11.003
11783POPC    HB74411   6.688   6.789  11.001
11783POPC    C274412   6.724   6.655  11.169
11783POPC    HS74413   6.672   6.735  11.228
11783POPC   O2174414   6.868   6.660  11.186
11783POPC   C2174415   6.910   6.700  11.307
11783POPC   O2274416   6.844   6.763  11.387
11783POPC   C2274417   7.053   6.650  11.332
11783POPC   H2R74418   7.116   6.693  11.251
11783POPC   H2S74419   7.051   6.540  11.321
11783POPC    C374420   6.669   6.518  11.218
11783POPC    HX74421   6.713   6.439  11.155
11783POPC    HY74422   6.559   6.514  11.200
11783POPC   O3174423   6.705   6.489  11.355
11783POPC   C3174424   6.617   6.539  11.443
11783POPC   O3274425   6.519   6.604  11.413
11783POPC   C3274426   6.656   6.499  11.587
11783POPC   H2X74427   6.763   6.472  11.590
11783POPC   H2Y74428   6.596   6.409  11.612
11783POPC   C2374429   7.112   6.691  11.470
11783POPC   H3R74430   7.065   6.785  11.507
11783POPC   H3S74431   7.220   6.710  11.457
11783POPC   C2474432   7.095   6.583  11.579
11783POPC   H4R74433   7.119   6.484  11.532
11783POPC   H4S74434   6.989   6.578  11.609
11783POPC   C2574435   7.187   6.594  11.703
11783POPC   H5R74436   7.294   6.594  11.671
11783POPC   H5S74437   7.171   6.502  11.764
11783POPC   C2674438   7.167   6.713  11.801
11783POPC   H6R74439   7.206   6.806  11.755
11783POPC   H6S74440   7.228   6.694  11.892
11783POPC   C2774441   7.021   6.736  11.845
11783POPC   H7R74442   6.958   6.659  11.798
11783POPC   H7S74443   6.988   6.832  11.800
11783POPC   C2874444   6.995   6.734  11.998
11783POPC   H8R74445   7.068   6.799  12.051
11783POPC   H8S74446   7.010   6.631  12.035
11783POPC   C2974447   6.853   6.781  12.019
11783POPC   H9174448   6.801   6.789  11.923
11783POPC  C21074449   6.784   6.819  12.129
11783POPC  H10174450   6.681   6.854  12.114
11783POPC  C21174451   6.829   6.828  12.272
11783POPC  H11R74452   6.870   6.928  12.293
11783POPC  H11S74453   6.909   6.755  12.298
11783POPC  C21274454   6.708   6.816  12.367
11783POPC  H12R74455   6.621   6.872  12.328
11783POPC  H12S74456   6.735   6.866  12.463
11783POPC  C21374457   6.672   6.670  12.390
11783POPC  H13R74458   6.756   6.610  12.350
11783POPC  H13S74459   6.581   6.645  12.331
11783POPC  C21474460   6.653   6.626  12.536
11783POPC  H14R74461   6.642   6.515  12.539
11783POPC  H14S74462   6.559   6.670  12.575
11783POPC  C21574463   6.771   6.664  12.627
11783POPC  H15R74464   6.778   6.774  12.635
11783POPC  H15S74465   6.866   6.628  12.582
11783POPC  C21674466   6.760   6.609  12.769
11783POPC  H16R74467   6.837   6.661  12.829
11783POPC  H16S74468   6.783   6.500  12.767
11783POPC  C21774469   6.624   6.628  12.838
11783POPC  H17R74470   6.632   6.592  12.943
11783POPC  H17S74471   6.549   6.563  12.787
11783POPC  C21874472   6.575   6.773  12.839
11783POPC  H18R74473   6.470   6.775  12.874
11783POPC  H18S74474   6.577   6.817  12.737
11783POPC  H18T74475   6.637   6.836  12.905
11783POPC   C3374476   6.628   6.615  11.687
11783POPC   H3X74477   6.527   6.658  11.664
11783POPC   H3Y74478   6.702   6.696  11.666
11783POPC   C3474479   6.628   6.584  11.839
11783POPC   H4X74480   6.531   6.547  11.874
11783POPC   H4Y74481   6.639   6.682  11.891
11783POPC   C3574482   6.733   6.485  11.891
11783POPC   H5X74483   6.834   6.523  11.865
11783POPC   H5Y74484   6.722   6.386  11.842
11783POPC   C3674485   6.730   6.467  12.045
11783POPC   H6X74486   6.731   6.564  12.097
11783POPC   H6Y74487   6.824   6.414  12.072
11783POPC   C3774488   6.608   6.390  12.098
11783POPC   H7X74489   6.596   6.298  12.038
11783POPC   H7Y74490   6.516   6.450  12.081
11783POPC   C3874491   6.616   6.352  12.247
11783POPC   H8X74492   6.554   6.262  12.263
11783POPC   H8Y74493   6.570   6.433  12.308
11783POPC   C3974494   6.758   6.326  12.302
11783POPC   H9X74495   6.812   6.422  12.313
11783POPC   H9Y74496   6.818   6.264  12.232
11783POPC  C31074497   6.755   6.254  12.437
11783POPC  H10X74498   6.746   6.145  12.421
11783POPC  H10Y74499   6.664   6.288  12.493
11783POPC  C31174500   6.877   6.283  12.525
11783POPC  H11X74501   6.884   6.393  12.541
11783POPC  H11Y74502   6.971   6.251  12.475
11783POPC  C31274503   6.861   6.213  12.661
11783POPC  H12X74504   6.880   6.105  12.650
11783POPC  H12Y74505   6.754   6.225  12.690
11783POPC  C31374506   6.947   6.272  12.774
11783POPC  H13X74507   6.969   6.378  12.749
11783POPC  H13Y74508   7.044   6.218  12.780
11783POPC  C31474509   6.871   6.266  12.908
11783POPC  H14X74510   6.859   6.159  12.936
11783POPC  H14Y74511   6.770   6.309  12.892
11783POPC  C31574512   6.934   6.342  13.024
11783POPC  H15X74513   7.037   6.307  13.037
11783POPC  H15Y74514   6.880   6.319  13.119
11783POPC  C31674515   6.942   6.493  13.008
11783POPC  H16X74516   7.018   6.536  13.076
11783POPC  H16Y74517   6.844   6.540  13.029
11783POPC  H16Z74518   6.974   6.521  12.905
11784POPC     N74519   6.331   6.961  10.803
11784POPC   C1274520   6.360   7.054  10.920
11784POPC  H12A74521   6.421   7.138  10.886
11784POPC  H12B74522   6.418   6.999  10.992
11784POPC   C1374523   6.277   7.042  10.690
11784POPC  H13A74524   6.249   6.983  10.604
11784POPC  H13B74525   6.188   7.097  10.723
11784POPC  H13C74526   6.345   7.121  10.659
11784POPC   C1474527   6.454   6.891  10.754
11784POPC  H14A74528   6.526   6.963  10.717
11784POPC  H14B74529   6.501   6.829  10.829
11784POPC  H14C74530   6.429   6.825  10.670
11784POPC   C1574531   6.229   6.859  10.844
11784POPC  H15A74532   6.257   6.807  10.935
11784POPC  H15B74533   6.214   6.784  10.767
11784POPC  H15C74534   6.134   6.908  10.863
11784POPC   C1174535   6.236   7.117  10.990
11784POPC  H11A74536   6.267   7.171  11.082
11784POPC  H11B74537   6.167   7.038  11.027
11784POPC     P74538   6.223   7.345  10.865
11784POPC   O1374539   6.119   7.448  10.878
11784POPC   O1474540   6.285   7.329  10.730
11784POPC   O1274541   6.162   7.204  10.904
11784POPC   O1174542   6.336   7.359  10.974
11784POPC    C174543   6.442   7.452  10.958
11784POPC    HA74544   6.416   7.535  10.888
11784POPC    HB74545   6.530   7.399  10.915
11784POPC    C274546   6.481   7.513  11.095
11784POPC    HS74547   6.585   7.551  11.083
11784POPC   O2174548   6.476   7.418  11.203
11784POPC   C2174549   6.542   7.307  11.187
11784POPC   O2274550   6.632   7.285  11.107
11784POPC   C2274551   6.486   7.202  11.282
11784POPC   H2R74552   6.396   7.158  11.236
11784POPC   H2S74553   6.455   7.253  11.376
11784POPC    C374554   6.391   7.635  11.132
11784POPC    HX74555   6.397   7.708  11.048
11784POPC    HY74556   6.434   7.686  11.220
11784POPC   O3174557   6.252   7.598  11.149
11784POPC   C3174558   6.208   7.594  11.273
11784POPC   O3274559   6.264   7.641  11.370
11784POPC   C3274560   6.081   7.512  11.284
11784POPC   H2X74561   6.079   7.438  11.202
11784POPC   H2Y74562   5.995   7.581  11.272
11784POPC   C2374563   6.588   7.090  11.313
11784POPC   H3R74564   6.610   7.031  11.222
11784POPC   H3S74565   6.541   7.020  11.388
11784POPC   C2474566   6.719   7.143  11.373
11784POPC   H4R74567   6.778   7.196  11.295
11784POPC   H4S74568   6.779   7.056  11.406
11784POPC   C2574569   6.698   7.238  11.492
11784POPC   H5R74570   6.639   7.327  11.463
11784POPC   H5S74571   6.797   7.276  11.522
11784POPC   C2674572   6.630   7.165  11.610
11784POPC   H6R74573   6.672   7.062  11.613
11784POPC   H6S74574   6.521   7.154  11.589
11784POPC   C2774575   6.651   7.232  11.746
11784POPC   H7R74576   6.612   7.336  11.742
11784POPC   H7S74577   6.760   7.243  11.764
11784POPC   C2874578   6.588   7.158  11.867
11784POPC   H8R74579   6.486   7.200  11.880
11784POPC   H8S74580   6.645   7.187  11.958
11784POPC   C2974581   6.581   7.008  11.855
11784POPC   H9174582   6.674   6.954  11.881
11784POPC  C21074583   6.475   6.935  11.812
11784POPC  H10174584   6.485   6.826  11.802
11784POPC  C21174585   6.342   6.990  11.767
11784POPC  H11R74586   6.313   6.942  11.671
11784POPC  H11S74587   6.349   7.099  11.746
11784POPC  C21274588   6.229   6.971  11.869
11784POPC  H12R74589   6.214   6.863  11.888
11784POPC  H12S74590   6.135   7.010  11.824
11784POPC  C21374591   6.258   7.047  12.000
11784POPC  H13R74592   6.311   7.140  11.971
11784POPC  H13S74593   6.330   6.989  12.061
11784POPC  C21474594   6.135   7.096  12.079
11784POPC  H14R74595   6.051   7.115  12.008
11784POPC  H14S74596   6.162   7.195  12.123
11784POPC  C21574597   6.084   7.010  12.195
11784POPC  H15R74598   6.025   6.925  12.154
11784POPC  H15S74599   6.013   7.070  12.257
11784POPC  C21674600   6.191   6.951  12.288
11784POPC  H16R74601   6.274   6.906  12.231
11784POPC  H16S74602   6.142   6.869  12.345
11784POPC  C21774603   6.252   7.050  12.386
11784POPC  H17R74604   6.171   7.092  12.450
11784POPC  H17S74605   6.296   7.133  12.327
11784POPC  C21874606   6.360   6.986  12.474
11784POPC  H18R74607   6.315   6.926  12.555
11784POPC  H18S74608   6.425   7.063  12.521
11784POPC  H18T74609   6.425   6.920  12.413
11784POPC   C3374610   6.076   7.442  11.422
11784POPC   H3X74611   5.979   7.389  11.430
11784POPC   H3Y74612   6.080   7.518  11.504
11784POPC   C3474613   6.190   7.341  11.441
11784POPC   H4X74614   6.288   7.395  11.444
11784POPC   H4Y74615   6.193   7.274  11.352
11784POPC   C3574616   6.178   7.255  11.567
11784POPC   H5X74617   6.260   7.179  11.565
11784POPC   H5Y74618   6.082   7.199  11.564
11784POPC   C3674619   6.187   7.332  11.700
11784POPC   H6X74620   6.166   7.261  11.783
11784POPC   H6Y74621   6.110   7.412  11.705
11784POPC   C3774622   6.326   7.392  11.723
11784POPC   H7X74623   6.344   7.475  11.652
11784POPC   H7Y74624   6.399   7.312  11.698
11784POPC   C3874625   6.355   7.438  11.867
11784POPC   H8X74626   6.466   7.445  11.876
11784POPC   H8Y74627   6.323   7.360  11.940
11784POPC   C3974628   6.293   7.573  11.905
11784POPC   H9X74629   6.191   7.555  11.947
11784POPC   H9Y74630   6.281   7.634  11.813
11784POPC  C31074631   6.376   7.658  12.005
11784POPC  H10X74632   6.315   7.742  12.042
11784POPC  H10Y74633   6.460   7.704  11.948
11784POPC  C31174634   6.438   7.581  12.123
11784POPC  H11X74635   6.525   7.639  12.162
11784POPC  H11Y74636   6.478   7.483  12.090
11784POPC  C31274637   6.341   7.560  12.241
11784POPC  H12X74638   6.245   7.519  12.203
11784POPC  H12Y74639   6.321   7.659  12.288
11784POPC  C31374640   6.398   7.463  12.346
11784POPC  H13X74641   6.500   7.496  12.376
11784POPC  H13Y74642   6.407   7.362  12.299
11784POPC  C31474643   6.309   7.453  12.471
11784POPC  H14X74644   6.203   7.443  12.438
11784POPC  H14Y74645   6.317   7.547  12.530
11784POPC  C31574646   6.341   7.334  12.563
11784POPC  H15X74647   6.325   7.244  12.504
11784POPC  H15Y74648   6.266   7.330  12.645
11784POPC  C31674649   6.482   7.328  12.622
11784POPC  H16X74650   6.525   7.429  12.628
11784POPC  H16Y74651   6.548   7.264  12.560
11784POPC  H16Z74652   6.478   7.284  12.724
11785POPC     N74653   1.967   6.647  10.839
11785POPC   C1274654   2.089   6.572  10.890
11785POPC  H12A74655   2.149   6.545  10.803
11785POPC  H12B74656   2.055   6.484  10.942
11785POPC   C1374657   2.012   6.753  10.743
11785POPC  H13A74658   1.933   6.799  10.687
11785POPC  H13B74659   2.068   6.829  10.799
11785POPC  H13C74660   2.086   6.714  10.674
11785POPC   C1474661   1.874   6.555  10.768
11785POPC  H14A74662   1.791   6.609  10.722
11785POPC  H14B74663   1.921   6.496  10.690
11785POPC  H14C74664   1.824   6.485  10.836
11785POPC   C1574665   1.894   6.713  10.952
11785POPC  H15A74666   1.807   6.766  10.916
11785POPC  H15B74667   1.961   6.786  10.998
11785POPC  H15C74668   1.862   6.641  11.026
11785POPC   C1174669   2.187   6.646  10.985
11785POPC  H11A74670   2.272   6.577  11.007
11785POPC  H11B74671   2.136   6.668  11.081
11785POPC     P74672   2.343   6.781  10.815
11785POPC   O1374673   2.301   6.901  10.742
11785POPC   O1474674   2.336   6.655  10.734
11785POPC   O1274675   2.236   6.767  10.932
11785POPC   O1174676   2.483   6.797  10.886
11785POPC    C174677   2.494   6.859  11.014
11785POPC    HA74678   2.400   6.908  11.048
11785POPC    HB74679   2.572   6.939  11.008
11785POPC    C274680   2.540   6.759  11.125
11785POPC    HS74681   2.650   6.749  11.112
11785POPC   O2174682   2.475   6.632  11.107
11785POPC   C2174683   2.529   6.541  11.183
11785POPC   O2274684   2.639   6.547  11.236
11785POPC   C2274685   2.429   6.426  11.206
11785POPC   H2R74686   2.488   6.332  11.211
11785POPC   H2S74687   2.359   6.419  11.121
11785POPC    C374688   2.507   6.814  11.267
11785POPC    HX74689   2.550   6.916  11.272
11785POPC    HY74690   2.558   6.753  11.345
11785POPC   O3174691   2.364   6.821  11.285
11785POPC   C3174692   2.314   6.808  11.407
11785POPC   O3274693   2.377   6.786  11.509
11785POPC   C3274694   2.165   6.838  11.395
11785POPC   H2X74695   2.116   6.750  11.348
11785POPC   H2Y74696   2.155   6.925  11.327
11785POPC   C2374697   2.353   6.444  11.339
11785POPC   H3R74698   2.274   6.366  11.350
11785POPC   H3S74699   2.301   6.543  11.342
11785POPC   C2474700   2.449   6.433  11.457
11785POPC   H4R74701   2.528   6.511  11.447
11785POPC   H4S74702   2.498   6.334  11.455
11785POPC   C2574703   2.388   6.454  11.595
11785POPC   H5R74704   2.353   6.356  11.634
11785POPC   H5S74705   2.301   6.523  11.589
11785POPC   C2674706   2.493   6.514  11.690
11785POPC   H6R74707   2.499   6.625  11.675
11785POPC   H6S74708   2.593   6.473  11.664
11785POPC   C2774709   2.464   6.481  11.836
11785POPC   H7R74710   2.551   6.507  11.900
11785POPC   H7S74711   2.449   6.371  11.842
11785POPC   C2874712   2.337   6.550  11.886
11785POPC   H8R74713   2.285   6.479  11.953
11785POPC   H8S74714   2.269   6.567  11.801
11785POPC   C2974715   2.368   6.679  11.957
11785POPC   H9174716   2.397   6.764  11.893
11785POPC  C21074717   2.361   6.695  12.090
11785POPC  H10174718   2.388   6.793  12.133
11785POPC  C21174719   2.322   6.589  12.191
11785POPC  H11R74720   2.294   6.491  12.148
11785POPC  H11S74721   2.231   6.624  12.244
11785POPC  C21274722   2.433   6.563  12.293
11785POPC  H12R74723   2.493   6.656  12.304
11785POPC  H12S74724   2.501   6.483  12.258
11785POPC  C21374725   2.372   6.525  12.428
11785POPC  H13R74726   2.331   6.422  12.421
11785POPC  H13S74727   2.285   6.591  12.450
11785POPC  C21474728   2.471   6.534  12.545
11785POPC  H14R74729   2.531   6.441  12.542
11785POPC  H14S74730   2.410   6.533  12.638
11785POPC  C21574731   2.570   6.651  12.548
11785POPC  H15R74732   2.516   6.748  12.548
11785POPC  H15S74733   2.631   6.647  12.454
11785POPC  C21674734   2.675   6.653  12.660
11785POPC  H16R74735   2.724   6.751  12.644
11785POPC  H16S74736   2.752   6.575  12.642
11785POPC  C21774737   2.639   6.645  12.811
11785POPC  H17R74738   2.598   6.742  12.844
11785POPC  H17S74739   2.735   6.630  12.866
11785POPC  C21874740   2.551   6.533  12.860
11785POPC  H18R74741   2.575   6.437  12.811
11785POPC  H18S74742   2.446   6.561  12.837
11785POPC  H18T74743   2.557   6.519  12.970
11785POPC   C3374744   2.097   6.872  11.528
11785POPC   H3X74745   1.993   6.904  11.505
11785POPC   H3Y74746   2.148   6.957  11.578
11785POPC   C3474747   2.091   6.751  11.620
11785POPC   H4X74748   2.192   6.732  11.664
11785POPC   H4Y74749   2.061   6.660  11.564
11785POPC   C3574750   1.991   6.775  11.732
11785POPC   H5X74751   1.890   6.795  11.690
11785POPC   H5Y74752   2.024   6.867  11.785
11785POPC   C3674753   1.983   6.656  11.828
11785POPC   H6X74754   2.085   6.628  11.861
11785POPC   H6Y74755   1.940   6.568  11.776
11785POPC   C3774756   1.904   6.689  11.953
11785POPC   H7X74757   1.894   6.595  12.012
11785POPC   H7Y74758   1.802   6.724  11.927
11785POPC   C3874759   1.977   6.794  12.037
11785POPC   H8X74760   1.986   6.891  11.984
11785POPC   H8Y74761   2.080   6.757  12.058
11785POPC   C3974762   1.906   6.813  12.169
11785POPC   H9X74763   1.895   6.710  12.204
11785POPC   H9Y74764   1.802   6.849  12.154
11785POPC  C31074765   1.981   6.902  12.269
11785POPC  H10X74766   1.911   6.930  12.351
11785POPC  H10Y74767   2.011   6.997  12.219
11785POPC  C31174768   2.105   6.839  12.333
11785POPC  H11X74769   2.189   6.841  12.260
11785POPC  H11Y74770   2.086   6.733  12.360
11785POPC  C31274771   2.144   6.915  12.459
11785POPC  H12X74772   2.059   6.914  12.531
11785POPC  H12Y74773   2.157   7.020  12.428
11785POPC  C31374774   2.270   6.865  12.531
11785POPC  H13X74775   2.347   6.944  12.538
11785POPC  H13Y74776   2.318   6.785  12.471
11785POPC  C31474777   2.234   6.820  12.673
11785POPC  H14X74778   2.189   6.718  12.669
11785POPC  H14Y74779   2.159   6.890  12.715
11785POPC  C31574780   2.352   6.821  12.771
11785POPC  H15X74781   2.414   6.912  12.757
11785POPC  H15Y74782   2.414   6.735  12.745
11785POPC  C31674783   2.309   6.812  12.918
11785POPC  H16X74784   2.396   6.793  12.985
11785POPC  H16Y74785   2.235   6.730  12.932
11785POPC  H16Z74786   2.262   6.907  12.951
11786POPC     N74787   7.255   3.083  11.010
11786POPC   C1274788   7.198   3.038  10.877
11786POPC  H12A74789   7.229   3.113  10.803
11786POPC  H12B74790   7.090   3.044  10.875
11786POPC   C1374791   7.305   2.965  11.087
11786POPC  H13A74792   7.226   2.898  11.113
11786POPC  H13B74793   7.375   2.911  11.022
11786POPC  H13C74794   7.359   2.995  11.175
11786POPC   C1474795   7.372   3.171  10.978
11786POPC  H14A74796   7.431   3.127  10.897
11786POPC  H14B74797   7.339   3.268  10.941
11786POPC  H14C74798   7.436   3.186  11.063
11786POPC   C1574799   7.161   3.162  11.095
11786POPC  H15A74800   7.121   3.247  11.040
11786POPC  H15B74801   7.214   3.202  11.181
11786POPC  H15C74802   7.080   3.101  11.134
11786POPC   C1174803   7.247   2.899  10.826
11786POPC  H11A74804   7.201   2.881  10.725
11786POPC  H11B74805   7.205   2.820  10.892
11786POPC     P74806   7.462   2.953  10.696
11786POPC   O1374807   7.424   3.097  10.691
11786POPC   O1474808   7.431   2.865  10.581
11786POPC   O1274809   7.391   2.888  10.824
11786POPC   O1174810   7.616   2.941  10.725
11786POPC    C174811   7.693   2.990  10.833
11786POPC    HA74812   7.637   3.058  10.900
11786POPC    HB74813   7.779   3.046  10.791
11786POPC    C274814   7.749   2.870  10.913
11786POPC    HS74815   7.783   2.798  10.835
11786POPC   O2174816   7.640   2.822  10.996
11786POPC   C2174817   7.620   2.693  10.984
11786POPC   O2274818   7.694   2.615  10.926
11786POPC   C2274819   7.487   2.650  11.047
11786POPC   H2R74820   7.476   2.542  11.027
11786POPC   H2S74821   7.408   2.704  10.991
11786POPC    C374822   7.875   2.904  10.999
11786POPC    HX74823   7.952   2.948  10.932
11786POPC    HY74824   7.921   2.809  11.037
11786POPC   O3174825   7.843   2.998  11.103
11786POPC   C3174826   7.816   2.941  11.221
11786POPC   O3274827   7.836   2.825  11.249
11786POPC   C3274828   7.753   3.043  11.315
11786POPC   H2X74829   7.764   3.145  11.273
11786POPC   H2Y74830   7.807   3.038  11.412
11786POPC   C2374831   7.472   2.677  11.199
11786POPC   H3R74832   7.369   2.647  11.228
11786POPC   H3S74833   7.483   2.785  11.221
11786POPC   C2474834   7.570   2.599  11.289
11786POPC   H4R74835   7.671   2.644  11.277
11786POPC   H4S74836   7.577   2.493  11.259
11786POPC   C2574837   7.529   2.608  11.437
11786POPC   H5R74838   7.447   2.535  11.457
11786POPC   H5S74839   7.488   2.710  11.455
11786POPC   C2674840   7.644   2.584  11.536
11786POPC   H6R74841   7.726   2.656  11.512
11786POPC   H6S74842   7.686   2.482  11.520
11786POPC   C2774843   7.604   2.599  11.684
11786POPC   H7R74844   7.694   2.584  11.747
11786POPC   H7S74845   7.532   2.517  11.708
11786POPC   C2874846   7.538   2.734  11.722
11786POPC   H8R74847   7.511   2.729  11.830
11786POPC   H8S74848   7.443   2.743  11.666
11786POPC   C2974849   7.626   2.854  11.693
11786POPC   H9174850   7.669   2.855  11.592
11786POPC  C21074851   7.655   2.955  11.778
11786POPC  H10174852   7.722   3.036  11.744
11786POPC  C21174853   7.604   2.967  11.919
11786POPC  H11R74854   7.654   2.887  11.979
11786POPC  H11S74855   7.496   2.944  11.924
11786POPC  C21274856   7.627   3.102  11.995
11786POPC  H12R74857   7.528   3.147  12.016
11786POPC  H12S74858   7.683   3.175  11.932
11786POPC  C21374859   7.701   3.078  12.128
11786POPC  H13R74860   7.811   3.077  12.109
11786POPC  H13S74861   7.673   2.976  12.165
11786POPC  C21474862   7.672   3.173  12.245
11786POPC  H14R74863   7.563   3.192  12.255
11786POPC  H14S74864   7.720   3.271  12.226
11786POPC  C21574865   7.725   3.113  12.377
11786POPC  H15R74866   7.826   3.071  12.358
11786POPC  H15S74867   7.658   3.029  12.405
11786POPC  C21674868   7.737   3.212  12.494
11786POPC  H16R74869   7.636   3.249  12.521
11786POPC  H16S74870   7.798   3.299  12.462
11786POPC  C21774871   7.804   3.151  12.619
11786POPC  H17R74872   7.795   3.225  12.702
11786POPC  H17S74873   7.912   3.137  12.598
11786POPC  C21874874   7.746   3.017  12.666
11786POPC  H18R74875   7.636   3.022  12.674
11786POPC  H18S74876   7.787   2.990  12.766
11786POPC  H18T74877   7.773   2.935  12.595
11786POPC   C3374878   7.605   3.008  11.336
11786POPC   H3X74879   7.597   2.905  11.380
11786POPC   H3Y74880   7.554   3.005  11.237
11786POPC   C3474881   7.529   3.104  11.427
11786POPC   H4X74882   7.525   3.205  11.380
11786POPC   H4Y74883   7.583   3.115  11.524
11786POPC   C3574884   7.386   3.054  11.455
11786POPC   H5X74885   7.392   2.961  11.517
11786POPC   H5Y74886   7.340   3.025  11.358
11786POPC   C3674887   7.295   3.156  11.523
11786POPC   H6X74888   7.190   3.122  11.513
11786POPC   H6Y74889   7.304   3.254  11.470
11786POPC   C3774890   7.324   3.176  11.672
11786POPC   H7X74891   7.428   3.214  11.686
11786POPC   H7Y74892   7.318   3.077  11.723
11786POPC   C3874893   7.224   3.273  11.736
11786POPC   H8X74894   7.122   3.232  11.724
11786POPC   H8Y74895   7.229   3.369  11.680
11786POPC   C3974896   7.249   3.303  11.885
11786POPC   H9X74897   7.172   3.377  11.918
11786POPC   H9Y74898   7.349   3.350  11.897
11786POPC  C31074899   7.239   3.178  11.974
11786POPC  H10X74900   7.322   3.109  11.947
11786POPC  H10Y74901   7.143   3.126  11.952
11786POPC  C31174902   7.245   3.210  12.124
11786POPC  H11X74903   7.164   3.283  12.148
11786POPC  H11Y74904   7.342   3.260  12.146
11786POPC  C31274905   7.229   3.087  12.214
11786POPC  H12X74906   7.132   3.038  12.191
11786POPC  H12Y74907   7.227   3.121  12.319
11786POPC  C31374908   7.342   2.984  12.197
11786POPC  H13X74909   7.439   3.034  12.213
11786POPC  H13Y74910   7.341   2.947  12.092
11786POPC  C31474911   7.336   2.861  12.289
11786POPC  H14X74912   7.416   2.791  12.255
11786POPC  H14Y74913   7.239   2.808  12.278
11786POPC  C31574914   7.363   2.891  12.438
11786POPC  H15X74915   7.427   2.981  12.447
11786POPC  H15Y74916   7.421   2.806  12.480
11786POPC  C31674917   7.237   2.907  12.523
11786POPC  H16X74918   7.177   2.994  12.489
11786POPC  H16Y74919   7.264   2.924  12.630
11786POPC  H16Z74920   7.173   2.816  12.517
11787POPC     N74921   7.583   6.094  10.985
11787POPC   C1274922   7.657   5.963  10.962
11787POPC  H12A74923   7.588   5.881  10.981
11787POPC  H12B74924   7.737   5.955  11.034
11787POPC   C1374925   7.671   6.213  10.960
11787POPC  H13A74926   7.618   6.307  10.965
11787POPC  H13B74927   7.750   6.220  11.035
11787POPC  H13C74928   7.724   6.207  10.867
11787POPC   C1474929   7.463   6.098  10.895
11787POPC  H14A74930   7.496   6.076  10.794
11787POPC  H14B74931   7.393   6.019  10.919
11787POPC  H14C74932   7.415   6.195  10.895
11787POPC   C1574933   7.540   6.105  11.126
11787POPC  H15A74934   7.482   6.021  11.158
11787POPC  H15B74935   7.481   6.195  11.141
11787POPC  H15C74936   7.627   6.119  11.190
11787POPC   C1174937   7.712   5.938  10.821
11787POPC  H11A74938   7.782   5.850  10.824
11787POPC  H11B74939   7.773   6.024  10.786
11787POPC     P74940   7.545   5.771  10.706
11787POPC   O1374941   7.629   5.692  10.611
11787POPC   O1474942   7.399   5.777  10.679
11787POPC   O1274943   7.605   5.917  10.729
11787POPC   O1174944   7.561   5.706  10.852
11787POPC    C174945   7.482   5.589  10.880
11787POPC    HA74946   7.543   5.498  10.863
11787POPC    HB74947   7.393   5.579  10.813
11787POPC    C274948   7.421   5.583  11.023
11787POPC    HS74949   7.341   5.505  11.022
11787POPC   O2174950   7.364   5.712  11.050
11787POPC   C2174951   7.304   5.728  11.165
11787POPC   O2274952   7.287   5.642  11.250
11787POPC   C2274953   7.264   5.876  11.171
11787POPC   H2R74954   7.153   5.880  11.165
11787POPC   H2S74955   7.305   5.928  11.083
11787POPC    C374956   7.527   5.540  11.131
11787POPC    HX74957   7.595   5.466  11.084
11787POPC    HY74958   7.471   5.486  11.211
11787POPC   O3174959   7.598   5.649  11.193
11787POPC   C3174960   7.729   5.643  11.205
11787POPC   O3274961   7.804   5.564  11.150
11787POPC   C3274962   7.772   5.752  11.299
11787POPC   H2X74963   7.709   5.743  11.390
11787POPC   H2Y74964   7.752   5.850  11.252
11787POPC   C2374965   7.313   5.949  11.298
11787POPC   H3R74966   7.236   5.931  11.375
11787POPC   H3S74967   7.315   6.059  11.283
11787POPC   C2474968   7.448   5.899  11.353
11787POPC   H4R74969   7.535   5.918  11.288
11787POPC   H4S74970   7.444   5.789  11.363
11787POPC   C2574971   7.474   5.954  11.492
11787POPC   H5R74972   7.379   5.993  11.535
11787POPC   H5S74973   7.548   6.037  11.493
11787POPC   C2674974   7.518   5.839  11.581
11787POPC   H6R74975   7.617   5.798  11.554
11787POPC   H6S74976   7.445   5.755  11.570
11787POPC   C2774977   7.523   5.878  11.726
11787POPC   H7R74978   7.458   5.968  11.744
11787POPC   H7S74979   7.625   5.908  11.752
11787POPC   C2874980   7.471   5.765  11.815
11787POPC   H8R74981   7.364   5.751  11.788
11787POPC   H8S74982   7.477   5.812  11.915
11787POPC   C2974983   7.534   5.629  11.818
11787POPC   H9174984   7.530   5.573  11.723
11787POPC  C21074985   7.588   5.572  11.928
11787POPC  H10174986   7.623   5.468  11.921
11787POPC  C21174987   7.596   5.635  12.065
11787POPC  H11R74988   7.560   5.566  12.143
11787POPC  H11S74989   7.531   5.724  12.077
11787POPC  C21274990   7.741   5.677  12.096
11787POPC  H12R74991   7.739   5.744  12.185
11787POPC  H12S74992   7.782   5.737  12.012
11787POPC  C21374993   7.833   5.558  12.125
11787POPC  H13R74994   7.936   5.597  12.142
11787POPC  H13S74995   7.836   5.491  12.036
11787POPC  C21474996   7.791   5.476  12.248
11787POPC  H14R74997   7.870   5.401  12.268
11787POPC  H14S74998   7.698   5.420  12.226
11787POPC  C21574999   7.770   5.563  12.373
11787POPC  H15R75000   7.671   5.614  12.369
11787POPC  H15S75001   7.848   5.642  12.374
11787POPC  C21675002   7.781   5.481  12.502
11787POPC  H16R75003   7.864   5.409  12.488
11787POPC  H16S75004   7.689   5.421  12.510
11787POPC  C21775005   7.804   5.561  12.631
11787POPC  H17R75006   7.911   5.594  12.630
11787POPC  H17S75007   7.795   5.493  12.719
11787POPC  C21875008   7.713   5.681  12.656
11787POPC  H18R75009   7.764   5.756  12.719
11787POPC  H18S75010   7.623   5.654  12.712
11787POPC  H18T75011   7.683   5.729  12.560
11787POPC   C3375012   7.919   5.740  11.338
11787POPC   H3X75013   7.983   5.728  11.247
11787POPC   H3Y75014   7.935   5.651  11.403
11787POPC   C3475015   7.965   5.863  11.413
11787POPC   H4X75016   7.947   5.952  11.348
11787POPC   H4Y75017   8.074   5.855  11.436
11787POPC   C3575018   7.890   5.891  11.543
11787POPC   H5X75019   7.881   5.800  11.606
11787POPC   H5Y75020   7.787   5.927  11.518
11787POPC   C3675021   7.963   6.001  11.619
11787POPC   H6X75022   7.988   6.082  11.545
11787POPC   H6Y75023   8.059   5.962  11.658
11787POPC   C3775024   7.878   6.068  11.727
11787POPC   H7X75025   7.783   6.098  11.677
11787POPC   H7Y75026   7.931   6.158  11.763
11787POPC   C3875027   7.843   5.990  11.853
11787POPC   H8X75028   7.933   5.976  11.917
11787POPC   H8Y75029   7.805   5.889  11.828
11787POPC   C3975030   7.740   6.074  11.930
11787POPC   H9X75031   7.658   6.108  11.863
11787POPC   H9Y75032   7.794   6.163  11.969
11787POPC  C31075033   7.679   6.000  12.048
11787POPC  H10X75034   7.766   5.959  12.105
11787POPC  H10Y75035   7.620   5.913  12.013
11787POPC  C31175036   7.594   6.086  12.142
11787POPC  H11X75037   7.487   6.081  12.116
11787POPC  H11Y75038   7.627   6.192  12.137
11787POPC  C31275039   7.620   6.034  12.283
11787POPC  H12X75040   7.729   6.042  12.294
11787POPC  H12Y75041   7.591   5.926  12.290
11787POPC  C31375042   7.561   6.112  12.399
11787POPC  H13X75043   7.588   6.220  12.395
11787POPC  H13Y75044   7.605   6.071  12.493
11787POPC  C31475045   7.410   6.091  12.402
11787POPC  H14X75046   7.393   5.982  12.386
11787POPC  H14Y75047   7.363   6.149  12.319
11787POPC  C31575048   7.350   6.128  12.535
11787POPC  H15X75049   7.242   6.150  12.525
11787POPC  H15Y75050   7.402   6.222  12.564
11787POPC  C31675051   7.372   6.022  12.643
11787POPC  H16X75052   7.317   5.929  12.620
11787POPC  H16Y75053   7.336   6.060  12.741
11787POPC  H16Z75054   7.479   5.996  12.654
11788POPC     N75055   5.623   1.373  10.851
11788POPC   C1275056   5.506   1.422  10.935
11788POPC  H12A75057   5.537   1.512  10.989
11788POPC  H12B75058   5.483   1.348  11.011
11788POPC   C1375059   5.692   1.495  10.797
11788POPC  H13A75060   5.731   1.557  10.877
11788POPC  H13B75061   5.768   1.471  10.725
11788POPC  H13C75062   5.618   1.560  10.748
11788POPC   C1475063   5.716   1.294  10.935
11788POPC  H14A75064   5.808   1.269  10.882
11788POPC  H14B75065   5.746   1.343  11.027
11788POPC  H14C75066   5.676   1.197  10.963
11788POPC   C1575067   5.579   1.293  10.733
11788POPC  H15A75068   5.534   1.361  10.662
11788POPC  H15B75069   5.505   1.221  10.762
11788POPC  H15C75070   5.661   1.241  10.685
11788POPC   C1175071   5.376   1.461  10.861
11788POPC  H11A75072   5.296   1.484  10.935
11788POPC  H11B75073   5.338   1.374  10.803
11788POPC     P75074   5.411   1.718  10.828
11788POPC   O1375075   5.355   1.808  10.725
11788POPC   O1475076   5.555   1.743  10.857
11788POPC   O1275077   5.399   1.570  10.772
11788POPC   O1175078   5.322   1.717  10.963
11788POPC    C175079   5.192   1.776  10.954
11788POPC    HA75080   5.135   1.727  10.872
11788POPC    HB75081   5.200   1.884  10.925
11788POPC    C275082   5.097   1.775  11.080
11788POPC    HS75083   5.014   1.843  11.052
11788POPC   O2175084   5.157   1.813  11.206
11788POPC   C2175085   5.121   1.934  11.252
11788POPC   O2275086   5.050   2.014  11.194
11788POPC   C2275087   5.183   1.961  11.387
11788POPC   H2R75088   5.160   1.874  11.452
11788POPC   H2S75089   5.137   2.052  11.431
11788POPC    C375090   5.029   1.636  11.102
11788POPC    HX75091   4.979   1.612  11.006
11788POPC    HY75092   4.950   1.657  11.177
11788POPC   O3175093   5.114   1.527  11.142
11788POPC   C3175094   5.069   1.452  11.243
11788POPC   O3275095   4.957   1.456  11.289
11788POPC   C3275096   5.179   1.353  11.285
11788POPC   H2X75097   5.261   1.358  11.210
11788POPC   H2Y75098   5.136   1.251  11.284
11788POPC   C2375099   5.332   1.981  11.361
11788POPC   H3R75100   5.354   2.083  11.324
11788POPC   H3S75101   5.363   1.910  11.281
11788POPC   C2475102   5.421   1.943  11.477
11788POPC   H4R75103   5.395   2.004  11.566
11788POPC   H4S75104   5.527   1.965  11.451
11788POPC   C2575105   5.411   1.792  11.500
11788POPC   H5R75106   5.412   1.739  11.402
11788POPC   H5S75107   5.314   1.766  11.548
11788POPC   C2675108   5.527   1.743  11.585
11788POPC   H6R75109   5.622   1.757  11.528
11788POPC   H6S75110   5.514   1.634  11.601
11788POPC   C2775111   5.534   1.816  11.719
11788POPC   H7R75112   5.574   1.918  11.701
11788POPC   H7S75113   5.607   1.764  11.785
11788POPC   C2875114   5.396   1.826  11.788
11788POPC   H8R75115   5.348   1.727  11.799
11788POPC   H8S75116   5.328   1.888  11.726
11788POPC   C2975117   5.411   1.898  11.917
11788POPC   H9175118   5.499   1.965  11.921
11788POPC  C21075119   5.335   1.887  12.026
11788POPC  H10175120   5.358   1.959  12.105
11788POPC  C21175121   5.215   1.804  12.059
11788POPC  H11R75122   5.217   1.709  12.000
11788POPC  H11S75123   5.121   1.858  12.034
11788POPC  C21275124   5.212   1.760  12.207
11788POPC  H12R75125   5.278   1.670  12.210
11788POPC  H12S75126   5.110   1.728  12.236
11788POPC  C21375127   5.269   1.848  12.319
11788POPC  H13R75128   5.350   1.918  12.290
11788POPC  H13S75129   5.321   1.775  12.386
11788POPC  C21475130   5.166   1.922  12.404
11788POPC  H14R75131   5.077   1.947  12.342
11788POPC  H14S75132   5.208   2.018  12.442
11788POPC  C21575133   5.130   1.839  12.528
11788POPC  H15R75134   5.206   1.759  12.544
11788POPC  H15S75135   5.037   1.785  12.510
11788POPC  C21675136   5.124   1.914  12.660
11788POPC  H16R75137   5.227   1.925  12.698
11788POPC  H16S75138   5.072   1.844  12.729
11788POPC  C21775139   5.057   2.053  12.661
11788POPC  H17R75140   4.961   2.045  12.719
11788POPC  H17S75141   5.028   2.081  12.558
11788POPC  C21875142   5.142   2.166  12.722
11788POPC  H18R75143   5.081   2.230  12.789
11788POPC  H18S75144   5.187   2.229  12.643
11788POPC  H18T75145   5.225   2.124  12.784
11788POPC   C3375146   5.237   1.386  11.424
11788POPC   H3X75147   5.162   1.361  11.503
11788POPC   H3Y75148   5.256   1.496  11.430
11788POPC   C3475149   5.370   1.317  11.454
11788POPC   H4X75150   5.444   1.347  11.377
11788POPC   H4Y75151   5.359   1.206  11.450
11788POPC   C3575152   5.423   1.357  11.593
11788POPC   H5X75153   5.367   1.301  11.671
11788POPC   H5Y75154   5.399   1.464  11.607
11788POPC   C3675155   5.574   1.335  11.612
11788POPC   H6X75156   5.630   1.407  11.548
11788POPC   H6Y75157   5.600   1.232  11.579
11788POPC   C3775158   5.621   1.352  11.758
11788POPC   H7X75159   5.731   1.338  11.763
11788POPC   H7Y75160   5.574   1.271  11.819
11788POPC   C3875161   5.588   1.489  11.819
11788POPC   H8X75162   5.480   1.513  11.802
11788POPC   H8Y75163   5.649   1.564  11.765
11788POPC   C3975164   5.613   1.501  11.970
11788POPC   H9X75165   5.597   1.608  11.999
11788POPC   H9Y75166   5.719   1.475  11.993
11788POPC  C31075167   5.518   1.413  12.053
11788POPC  H10X75168   5.550   1.307  12.043
11788POPC  H10Y75169   5.416   1.422  12.009
11788POPC  C31175170   5.511   1.452  12.201
11788POPC  H11X75171   5.465   1.552  12.212
11788POPC  H11Y75172   5.615   1.458  12.241
11788POPC  C31275173   5.435   1.348  12.286
11788POPC  H12X75174   5.433   1.382  12.392
11788POPC  H12Y75175   5.495   1.254  12.283
11788POPC  C31375176   5.292   1.310  12.239
11788POPC  H13X75177   5.264   1.217  12.292
11788POPC  H13Y75178   5.293   1.287  12.130
11788POPC  C31475179   5.180   1.412  12.267
11788POPC  H14X75180   5.083   1.361  12.248
11788POPC  H14Y75181   5.186   1.495  12.194
11788POPC  C31575182   5.180   1.465  12.411
11788POPC  H15X75183   5.259   1.543  12.421
11788POPC  H15Y75184   5.206   1.382  12.480
11788POPC  C31675185   5.045   1.521  12.455
11788POPC  H16X75186   5.053   1.571  12.554
11788POPC  H16Y75187   4.970   1.440  12.463
11788POPC  H16Z75188   5.008   1.595  12.380
11789POPC     N75189   2.319   2.434  10.969
11789POPC   C1275190   2.303   2.291  10.919
11789POPC  H12A75191   2.202   2.260  10.935
11789POPC  H12B75192   2.367   2.225  10.979
11789POPC   C1375193   2.465   2.467  10.969
11789POPC  H13A75194   2.508   2.438  10.872
11789POPC  H13B75195   2.481   2.573  10.980
11789POPC  H13C75196   2.520   2.412  11.044
11789POPC   C1475197   2.250   2.529  10.876
11789POPC  H14A75198   2.269   2.632  10.903
11789POPC  H14B75199   2.290   2.512  10.776
11789POPC  H14C75200   2.142   2.513  10.869
11789POPC   C1575201   2.269   2.450  11.109
11789POPC  H15A75202   2.163   2.430  11.117
11789POPC  H15B75203   2.286   2.551  11.143
11789POPC  H15C75204   2.321   2.384  11.178
11789POPC   C1175205   2.336   2.260  10.771
11789POPC  H11A75206   2.271   2.321  10.704
11789POPC  H11B75207   2.311   2.154  10.748
11789POPC     P75208   2.591   2.187  10.761
11789POPC   O1375209   2.691   2.256  10.845
11789POPC   O1475210   2.635   2.136  10.629
11789POPC   O1275211   2.471   2.288  10.739
11789POPC   O1175212   2.525   2.070  10.849
11789POPC    C175213   2.550   2.074  10.990
11789POPC    HA75214   2.543   2.178  11.031
11789POPC    HB75215   2.652   2.036  11.012
11789POPC    C275216   2.448   1.988  11.066
11789POPC    HS75217   2.466   1.883  11.034
11789POPC   O2175218   2.313   2.030  11.040
11789POPC   C2175219   2.233   1.946  10.981
11789POPC   O2275220   2.260   1.844  10.921
11789POPC   C2275221   2.088   1.994  11.002
11789POPC   H2R75222   2.025   1.905  10.981
11789POPC   H2S75223   2.067   2.072  10.927
11789POPC    C375224   2.472   2.000  11.219
11789POPC    HX75225   2.567   1.944  11.238
11789POPC    HY75226   2.390   1.948  11.273
11789POPC   O3175227   2.481   2.139  11.262
11789POPC   C3175228   2.539   2.148  11.383
11789POPC   O3275229   2.577   2.053  11.447
11789POPC   C3275230   2.546   2.295  11.429
11789POPC   H2X75231   2.455   2.318  11.487
11789POPC   H2Y75232   2.546   2.358  11.337
11789POPC   C2375233   2.050   2.046  11.143
11789POPC   H3R75234   2.086   1.977  11.222
11789POPC   H3S75235   1.939   2.050  11.151
11789POPC   C2475236   2.104   2.187  11.174
11789POPC   H4R75237   2.085   2.250  11.084
11789POPC   H4S75238   2.214   2.181  11.192
11789POPC   C2575239   2.039   2.255  11.294
11789POPC   H5R75240   1.931   2.265  11.272
11789POPC   H5S75241   2.077   2.359  11.308
11789POPC   C2675242   2.056   2.179  11.426
11789POPC   H6R75243   2.046   2.070  11.410
11789POPC   H6S75244   1.975   2.211  11.495
11789POPC   C2775245   2.189   2.207  11.498
11789POPC   H7R75246   2.182   2.303  11.553
11789POPC   H7S75247   2.269   2.218  11.422
11789POPC   C2875248   2.230   2.094  11.595
11789POPC   H8R75249   2.325   2.124  11.644
11789POPC   H8S75250   2.252   2.003  11.535
11789POPC   C2975251   2.123   2.060  11.697
11789POPC   H9175252   2.020   2.064  11.659
11789POPC  C21075253   2.141   2.020  11.823
11789POPC  H10175254   2.052   2.000  11.886
11789POPC  C21175255   2.273   2.000  11.892
11789POPC  H11R75256   2.360   2.027  11.827
11789POPC  H11S75257   2.285   1.893  11.920
11789POPC  C21275258   2.282   2.086  12.019
11789POPC  H12R75259   2.204   2.055  12.093
11789POPC  H12S75260   2.264   2.193  11.994
11789POPC  C21375261   2.420   2.073  12.085
11789POPC  H13R75262   2.425   2.145  12.170
11789POPC  H13S75263   2.499   2.101  12.013
11789POPC  C21475264   2.446   1.930  12.135
11789POPC  H14R75265   2.478   1.868  12.048
11789POPC  H14S75266   2.351   1.887  12.173
11789POPC  C21575267   2.552   1.921  12.245
11789POPC  H15R75268   2.649   1.957  12.204
11789POPC  H15S75269   2.565   1.814  12.272
11789POPC  C21675270   2.523   2.002  12.372
11789POPC  H16R75271   2.566   2.104  12.359
11789POPC  H16S75272   2.577   1.951  12.455
11789POPC  C21775273   2.376   2.020  12.416
11789POPC  H17R75274   2.314   2.057  12.332
11789POPC  H17S75275   2.374   2.101  12.494
11789POPC  C21875276   2.313   1.895  12.476
11789POPC  H18R75277   2.206   1.913  12.497
11789POPC  H18S75278   2.364   1.866  12.570
11789POPC  H18T75279   2.321   1.811  12.404
11789POPC   C3375280   2.672   2.330  11.513
11789POPC   H3X75281   2.685   2.440  11.512
11789POPC   H3Y75282   2.763   2.286  11.464
11789POPC   C3475283   2.672   2.286  11.661
11789POPC   H4X75284   2.774   2.306  11.702
11789POPC   H4Y75285   2.655   2.176  11.669
11789POPC   C3575286   2.572   2.359  11.752
11789POPC   H5X75287   2.470   2.318  11.735
11789POPC   H5Y75288   2.570   2.467  11.724
11789POPC   C3675289   2.607   2.351  11.902
11789POPC   H6X75290   2.703   2.403  11.919
11789POPC   H6Y75291   2.622   2.245  11.931
11789POPC   C3775292   2.498   2.413  11.991
11789POPC   H7X75293   2.406   2.350  11.984
11789POPC   H7Y75294   2.472   2.513  11.952
11789POPC   C3875295   2.537   2.431  12.138
11789POPC   H8X75296   2.610   2.514  12.142
11789POPC   H8Y75297   2.587   2.340  12.178
11789POPC   C3975298   2.416   2.465  12.227
11789POPC   H9X75299   2.381   2.372  12.277
11789POPC   H9Y75300   2.332   2.502  12.164
11789POPC  C31075301   2.450   2.572  12.331
11789POPC  H10X75302   2.423   2.673  12.293
11789POPC  H10Y75303   2.561   2.572  12.342
11789POPC  C31175304   2.392   2.551  12.471
11789POPC  H11X75305   2.365   2.444  12.488
11789POPC  H11Y75306   2.299   2.612  12.483
11789POPC  C31275307   2.497   2.593  12.574
11789POPC  H12X75308   2.543   2.687  12.539
11789POPC  H12Y75309   2.577   2.516  12.577
11789POPC  C31375310   2.447   2.613  12.717
11789POPC  H13X75311   2.336   2.620  12.718
11789POPC  H13Y75312   2.487   2.708  12.757
11789POPC  C31475313   2.502   2.509  12.815
11789POPC  H14X75314   2.611   2.493  12.795
11789POPC  H14Y75315   2.446   2.416  12.796
11789POPC  C31575316   2.484   2.550  12.960
11789POPC  H15X75317   2.548   2.639  12.983
11789POPC  H15Y75318   2.517   2.467  13.026
11789POPC  C31675319   2.338   2.583  12.988
11789POPC  H16X75320   2.320   2.599  13.096
11789POPC  H16Y75321   2.274   2.500  12.951
11789POPC  H16Z75322   2.307   2.674  12.934
11790POPC     N75323   5.620   7.844  10.650
11790POPC   C1275324   5.688   7.733  10.731
11790POPC  H12A75325   5.781   7.706  10.683
11790POPC  H12B75326   5.624   7.646  10.735
11790POPC   C1375327   5.485   7.872  10.707
11790POPC  H13A75328   5.447   7.970  10.681
11790POPC  H13B75329   5.412   7.797  10.678
11790POPC  H13C75330   5.491   7.865  10.816
11790POPC   C1475331   5.701   7.969  10.663
11790POPC  H14A75332   5.795   7.964  10.608
11790POPC  H14B75333   5.646   8.055  10.627
11790POPC  H14C75334   5.722   7.985  10.768
11790POPC   C1575335   5.605   7.808  10.506
11790POPC  H15A75336   5.546   7.883  10.453
11790POPC  H15B75337   5.559   7.711  10.491
11790POPC  H15C75338   5.701   7.807  10.455
11790POPC   C1175339   5.722   7.762  10.879
11790POPC  H11A75340   5.792   7.848  10.890
11790POPC  H11B75341   5.776   7.673  10.919
11790POPC     P75342   5.565   7.711  11.083
11790POPC   O1375343   5.561   7.568  11.049
11790POPC   O1475344   5.444   7.773  11.141
11790POPC   O1275345   5.602   7.790  10.950
11790POPC   O1175346   5.694   7.746  11.173
11790POPC    C175347   5.725   7.882  11.206
11790POPC    HA75348   5.666   7.912  11.296
11790POPC    HB75349   5.698   7.952  11.123
11790POPC    C275350   5.877   7.905  11.239
11790POPC    HS75351   5.936   7.857  11.158
11790POPC   O2175352   5.906   7.843  11.366
11790POPC   C2175353   6.026   7.859  11.420
11790POPC   O2275354   6.124   7.909  11.366
11790POPC   C2275355   6.021   7.806  11.562
11790POPC   H2R75356   6.118   7.756  11.583
11790POPC   H2S75357   5.939   7.732  11.572
11790POPC    C375358   5.908   8.058  11.240
11790POPC    HX75359   5.874   8.100  11.142
11790POPC    HY75360   6.017   8.078  11.247
11790POPC   O3175361   5.839   8.119  11.349
11790POPC   C3175362   5.811   8.247  11.338
11790POPC   O3275363   5.858   8.325  11.258
11790POPC   C3275364   5.703   8.276  11.443
11790POPC   H2X75365   5.662   8.377  11.426
11790POPC   H2Y75366   5.751   8.273  11.543
11790POPC   C2375367   5.998   7.925  11.656
11790POPC   H3R75368   5.902   7.975  11.629
11790POPC   H3S75369   6.080   8.000  11.641
11790POPC   C2475370   5.994   7.891  11.805
11790POPC   H4R75371   6.086   7.836  11.834
11790POPC   H4S75372   5.906   7.827  11.828
11790POPC   C2575373   5.985   8.023  11.881
11790POPC   H5R75374   5.895   8.079  11.846
11790POPC   H5S75375   6.074   8.084  11.853
11790POPC   C2675376   5.980   8.012  12.032
11790POPC   H6R75377   6.056   7.940  12.071
11790POPC   H6S75378   5.879   7.977  12.063
11790POPC   C2775379   6.007   8.151  12.087
11790POPC   H7R75380   5.943   8.221  12.030
11790POPC   H7S75381   6.113   8.179  12.068
11790POPC   C2875382   5.978   8.169  12.236
11790POPC   H8R75383   6.019   8.266  12.265
11790POPC   H8S75384   6.038   8.093  12.289
11790POPC   C2975385   5.831   8.165  12.271
11790POPC   H9175386   5.766   8.229  12.211
11790POPC  C21075387   5.778   8.088  12.368
11790POPC  H10175388   5.669   8.089  12.384
11790POPC  C21175389   5.859   7.995  12.454
11790POPC  H11R75390   5.802   7.961  12.543
11790POPC  H11S75391   5.943   8.053  12.498
11790POPC  C21275392   5.910   7.871  12.378
11790POPC  H12R75393   5.936   7.896  12.273
11790POPC  H12S75394   5.831   7.794  12.373
11790POPC  C21375395   6.036   7.812  12.442
11790POPC  H13R75396   6.060   7.714  12.395
11790POPC  H13S75397   6.014   7.792  12.549
11790POPC  C21475398   6.157   7.905  12.427
11790POPC  H14R75399   6.130   8.012  12.442
11790POPC  H14S75400   6.199   7.895  12.325
11790POPC  C21575401   6.261   7.880  12.534
11790POPC  H15R75402   6.358   7.925  12.502
11790POPC  H15S75403   6.275   7.771  12.544
11790POPC  C21675404   6.218   7.942  12.666
11790POPC  H16R75405   6.107   7.939  12.677
11790POPC  H16S75406   6.247   8.050  12.670
11790POPC  C21775407   6.279   7.868  12.783
11790POPC  H17R75408   6.389   7.864  12.770
11790POPC  H17S75409   6.241   7.763  12.782
11790POPC  C21875410   6.247   7.934  12.916
11790POPC  H18R75411   6.141   7.915  12.946
11790POPC  H18S75412   6.264   8.043  12.909
11790POPC  H18T75413   6.313   7.895  12.995
11790POPC   C3375414   5.591   8.169  11.435
11790POPC   H3X75415   5.632   8.067  11.454
11790POPC   H3Y75416   5.547   8.169  11.333
11790POPC   C3475417   5.479   8.193  11.536
11790POPC   H4X75418   5.402   8.113  11.518
11790POPC   H4Y75419   5.431   8.291  11.516
11790POPC   C3575420   5.523   8.185  11.683
11790POPC   H5X75421   5.437   8.213  11.747
11790POPC   H5Y75422   5.603   8.260  11.703
11790POPC   C3675423   5.571   8.046  11.723
11790POPC   H6X75424   5.664   8.020  11.667
11790POPC   H6Y75425   5.494   7.970  11.695
11790POPC   C3775426   5.598   8.034  11.874
11790POPC   H7X75427   5.673   8.110  11.904
11790POPC   H7Y75428   5.643   7.933  11.892
11790POPC   C3875429   5.473   8.049  11.961
11790POPC   H8X75430   5.396   7.978  11.925
11790POPC   H8Y75431   5.431   8.152  11.954
11790POPC   C3975432   5.505   8.016  12.107
11790POPC   H9X75433   5.574   8.092  12.148
11790POPC   H9Y75434   5.560   7.919  12.103
11790POPC  C31075435   5.382   8.000  12.198
11790POPC  H10X75436   5.315   7.923  12.154
11790POPC  H10Y75437   5.325   8.095  12.203
11790POPC  C31175438   5.419   7.954  12.341
11790POPC  H11X75439   5.327   7.917  12.392
11790POPC  H11Y75440   5.457   8.041  12.398
11790POPC  C31275441   5.526   7.844  12.341
11790POPC  H12X75442   5.621   7.884  12.300
11790POPC  H12Y75443   5.494   7.763  12.272
11790POPC  C31375444   5.558   7.779  12.475
11790POPC  H13X75445   5.659   7.733  12.467
11790POPC  H13Y75446   5.487   7.695  12.491
11790POPC  C31475447   5.554   7.871  12.598
11790POPC  H14X75448   5.447   7.887  12.625
11790POPC  H14Y75449   5.597   7.970  12.576
11790POPC  C31575450   5.628   7.808  12.717
11790POPC  H15X75451   5.587   7.853  12.810
11790POPC  H15Y75452   5.736   7.834  12.713
11790POPC  C31675453   5.615   7.655  12.723
11790POPC  H16X75454   5.510   7.623  12.705
11790POPC  H16Y75455   5.645   7.619  12.822
11790POPC  H16Z75456   5.680   7.606  12.648
11791POPC     N75457   6.226   1.622  10.808
11791POPC   C1275458   6.364   1.685  10.811
11791POPC  H12A75459   6.425   1.632  10.739
11791POPC  H12B75460   6.406   1.669  10.910
11791POPC   C1375461   6.133   1.691  10.900
11791POPC  H13A75462   6.034   1.648  10.896
11791POPC  H13B75463   6.171   1.690  11.002
11791POPC  H13C75464   6.130   1.797  10.874
11791POPC   C1475465   6.172   1.629  10.669
11791POPC  H14A75466   6.233   1.566  10.602
11791POPC  H14B75467   6.070   1.594  10.661
11791POPC  H14C75468   6.179   1.731  10.631
11791POPC   C1575469   6.243   1.477  10.840
11791POPC  H15A75470   6.156   1.420  10.811
11791POPC  H15B75471   6.266   1.462  10.944
11791POPC  H15C75472   6.328   1.440  10.783
11791POPC   C1175473   6.378   1.837  10.783
11791POPC  H11A75474   6.340   1.861  10.681
11791POPC  H11B75475   6.488   1.857  10.784
11791POPC     P75476   6.359   2.062  10.915
11791POPC   O1375477   6.240   2.149  10.917
11791POPC   O1475478   6.471   2.095  10.824
11791POPC   O1275479   6.309   1.915  10.881
11791POPC   O1175480   6.415   2.049  11.061
11791POPC    C175481   6.401   1.932  11.141
11791POPC    HA75482   6.479   1.931  11.220
11791POPC    HB75483   6.416   1.839  11.081
11791POPC    C275484   6.263   1.928  11.210
11791POPC    HS75485   6.188   1.967  11.138
11791POPC   O2175486   6.270   2.012  11.328
11791POPC   C2175487   6.152   2.034  11.383
11791POPC   O2275488   6.047   1.989  11.341
11791POPC   C2275489   6.166   2.126  11.505
11791POPC   H2R75490   6.105   2.216  11.485
11791POPC   H2S75491   6.272   2.158  11.512
11791POPC    C375492   6.223   1.782  11.246
11791POPC    HX75493   6.254   1.716  11.163
11791POPC    HY75494   6.112   1.776  11.252
11791POPC   O3175495   6.291   1.741  11.365
11791POPC   C3175496   6.215   1.697  11.464
11791POPC   O3275497   6.096   1.670  11.457
11791POPC   C3275498   6.301   1.686  11.587
11791POPC   H2X75499   6.241   1.717  11.675
11791POPC   H2Y75500   6.386   1.758  11.576
11791POPC   C2375501   6.121   2.061  11.638
11791POPC   H3R75502   6.157   1.956  11.642
11791POPC   H3S75503   6.010   2.059  11.644
11791POPC   C2475504   6.179   2.136  11.759
11791POPC   H4R75505   6.146   2.242  11.756
11791POPC   H4S75506   6.290   2.136  11.750
11791POPC   C2575507   6.142   2.076  11.895
11791POPC   H5R75508   6.034   2.092  11.915
11791POPC   H5S75509   6.199   2.132  11.974
11791POPC   C2675510   6.175   1.927  11.907
11791POPC   H6R75511   6.272   1.907  11.856
11791POPC   H6S75512   6.097   1.867  11.855
11791POPC   C2775513   6.188   1.880  12.053
11791POPC   H7R75514   6.272   1.936  12.100
11791POPC   H7S75515   6.215   1.772  12.055
11791POPC   C2875516   6.061   1.903  12.137
11791POPC   H8R75517   6.028   2.009  12.130
11791POPC   H8S75518   6.088   1.888  12.244
11791POPC   C2975519   5.949   1.810  12.097
11791POPC   H9175520   5.881   1.848  12.019
11791POPC  C21075521   5.931   1.685  12.144
11791POPC  H10175522   5.846   1.625  12.109
11791POPC  C21175523   6.021   1.620  12.246
11791POPC  H11R75524   6.110   1.683  12.262
11791POPC  H11S75525   6.057   1.522  12.206
11791POPC  C21275526   5.966   1.595  12.388
11791POPC  H12R75527   6.045   1.544  12.448
11791POPC  H12S75528   5.879   1.526  12.378
11791POPC  C21375529   5.921   1.721  12.464
11791POPC  H13R75530   5.825   1.697  12.516
11791POPC  H13S75531   5.901   1.802  12.391
11791POPC  C21475532   6.021   1.778  12.566
11791POPC  H14R75533   6.043   1.883  12.538
11791POPC  H14S75534   6.117   1.722  12.556
11791POPC  C21575535   5.977   1.772  12.714
11791POPC  H15R75536   6.056   1.821  12.775
11791POPC  H15S75537   5.974   1.665  12.742
11791POPC  C21675538   5.840   1.834  12.754
11791POPC  H16R75539   5.808   1.780  12.846
11791POPC  H16S75540   5.762   1.814  12.678
11791POPC  C21775541   5.845   1.983  12.791
11791POPC  H17R75542   5.941   2.002  12.843
11791POPC  H17S75543   5.766   2.005  12.866
11791POPC  C21875544   5.828   2.081  12.674
11791POPC  H18R75545   5.722   2.109  12.660
11791POPC  H18S75546   5.864   2.034  12.580
11791POPC  H18T75547   5.885   2.174  12.688
11791POPC   C3375548   6.358   1.544  11.606
11791POPC   H3X75549   6.387   1.498  11.509
11791POPC   H3Y75550   6.278   1.480  11.651
11791POPC   C3475551   6.481   1.545  11.698
11791POPC   H4X75552   6.568   1.589  11.644
11791POPC   H4Y75553   6.506   1.440  11.724
11791POPC   C3575554   6.452   1.626  11.824
11791POPC   H5X75555   6.351   1.595  11.860
11791POPC   H5Y75556   6.446   1.735  11.801
11791POPC   C3675557   6.555   1.608  11.936
11791POPC   H6X75558   6.640   1.676  11.917
11791POPC   H6Y75559   6.594   1.503  11.934
11791POPC   C3775560   6.498   1.634  12.076
11791POPC   H7X75561   6.453   1.736  12.079
11791POPC   H7Y75562   6.582   1.632  12.148
11791POPC   C3875563   6.393   1.530  12.119
11791POPC   H8X75564   6.434   1.428  12.105
11791POPC   H8Y75565   6.303   1.540  12.053
11791POPC   C3975566   6.344   1.546  12.263
11791POPC   H9X75567   6.267   1.468  12.285
11791POPC   H9Y75568   6.295   1.646  12.269
11791POPC  C31075569   6.450   1.547  12.373
11791POPC  H10X75570   6.542   1.495  12.339
11791POPC  H10Y75571   6.410   1.492  12.462
11791POPC  C31175572   6.478   1.692  12.417
11791POPC  H11X75573   6.381   1.739  12.445
11791POPC  H11Y75574   6.518   1.750  12.331
11791POPC  C31275575   6.573   1.704  12.535
11791POPC  H12X75576   6.676   1.678  12.502
11791POPC  H12Y75577   6.545   1.633  12.616
11791POPC  C31375578   6.572   1.847  12.589
11791POPC  H13X75579   6.562   1.918  12.504
11791POPC  H13Y75580   6.670   1.867  12.638
11791POPC  C31475581   6.460   1.872  12.691
11791POPC  H14X75582   6.462   1.792  12.768
11791POPC  H14Y75583   6.361   1.866  12.641
11791POPC  C31575584   6.475   2.007  12.762
11791POPC  H15X75585   6.529   1.990  12.856
11791POPC  H15Y75586   6.377   2.038  12.800
11791POPC  C31675587   6.537   2.120  12.679
11791POPC  H16X75588   6.543   2.214  12.739
11791POPC  H16Y75589   6.476   2.141  12.589
11791POPC  H16Z75590   6.640   2.095  12.647
11792POPC     N75591   1.993   2.974  10.719
11792POPC   C1275592   1.976   2.923  10.861
11792POPC  H12A75593   2.000   3.003  10.931
11792POPC  H12B75594   2.044   2.842  10.878
11792POPC   C1375595   1.916   3.102  10.706
11792POPC  H13A75596   1.911   3.140  10.604
11792POPC  H13B75597   1.814   3.082  10.739
11792POPC  H13C75598   1.955   3.176  10.774
11792POPC   C1475599   2.133   3.002  10.678
11792POPC  H14A75600   2.199   2.922  10.705
11792POPC  H14B75601   2.134   3.016  10.570
11792POPC  H14C75602   2.173   3.094  10.721
11792POPC   C1575603   1.932   2.878  10.621
11792POPC  H15A75604   1.985   2.784  10.615
11792POPC  H15B75605   1.928   2.922  10.522
11792POPC  H15C75606   1.829   2.859  10.651
11792POPC   C1175607   1.834   2.874  10.902
11792POPC  H11A75608   1.836   2.850  11.012
11792POPC  H11B75609   1.811   2.778  10.851
11792POPC     P75610   1.636   3.027  10.980
11792POPC   O1375611   1.581   2.914  11.056
11792POPC   O1475612   1.546   3.120  10.907
11792POPC   O1275613   1.732   2.968  10.869
11792POPC   O1175614   1.744   3.108  11.062
11792POPC    C175615   1.789   3.237  11.021
11792POPC    HA75616   1.761   3.262  10.916
11792POPC    HB75617   1.900   3.241  11.029
11792POPC    C275618   1.736   3.352  11.111
11792POPC    HS75619   1.776   3.443  11.067
11792POPC   O2175620   1.789   3.337  11.243
11792POPC   C2175621   1.803   3.450  11.311
11792POPC   O2275622   1.781   3.562  11.269
11792POPC   C2275623   1.856   3.417  11.449
11792POPC   H2R75624   1.948   3.476  11.464
11792POPC   H2S75625   1.881   3.308  11.455
11792POPC    C375626   1.580   3.360  11.115
11792POPC    HX75627   1.543   3.356  11.010
11792POPC    HY75628   1.547   3.459  11.155
11792POPC   O3175629   1.525   3.249  11.186
11792POPC   C3175630   1.499   3.270  11.314
11792POPC   O3275631   1.510   3.378  11.370
11792POPC   C3275632   1.453   3.141  11.380
11792POPC   H2X75633   1.456   3.063  11.301
11792POPC   H2Y75634   1.349   3.154  11.413
11792POPC   C2375635   1.753   3.450  11.558
11792POPC   H3R75636   1.663   3.386  11.549
11792POPC   H3S75637   1.720   3.556  11.550
11792POPC   C2475638   1.816   3.426  11.693
11792POPC   H4R75639   1.903   3.494  11.703
11792POPC   H4S75640   1.853   3.321  11.701
11792POPC   C2575641   1.719   3.454  11.807
11792POPC   H5R75642   1.671   3.358  11.833
11792POPC   H5S75643   1.640   3.525  11.775
11792POPC   C2675644   1.792   3.509  11.928
11792POPC   H6R75645   1.819   3.615  11.911
11792POPC   H6S75646   1.886   3.451  11.943
11792POPC   C2775647   1.709   3.496  12.055
11792POPC   H7R75648   1.700   3.387  12.076
11792POPC   H7S75649   1.606   3.535  12.039
11792POPC   C2875650   1.779   3.570  12.168
11792POPC   H8R75651   1.757   3.679  12.161
11792POPC   H8S75652   1.889   3.559  12.158
11792POPC   C2975653   1.730   3.513  12.298
11792POPC   H9175654   1.631   3.548  12.329
11792POPC  C21075655   1.790   3.417  12.368
11792POPC  H10175656   1.731   3.376  12.449
11792POPC  C21175657   1.918   3.341  12.338
11792POPC  H11R75658   1.951   3.367  12.234
11792POPC  H11S75659   1.894   3.234  12.326
11792POPC  C21275660   2.049   3.353  12.425
11792POPC  H12R75661   2.083   3.453  12.390
11792POPC  H12S75662   2.121   3.275  12.392
11792POPC  C21375663   2.062   3.368  12.579
11792POPC  H13R75664   1.980   3.430  12.618
11792POPC  H13S75665   2.141   3.443  12.593
11792POPC  C21475666   2.087   3.244  12.672
11792POPC  H14R75667   2.008   3.174  12.649
11792POPC  H14S75668   2.074   3.274  12.778
11792POPC  C21575669   2.202   3.141  12.665
11792POPC  H15R75670   2.285   3.170  12.731
11792POPC  H15S75671   2.238   3.135  12.560
11792POPC  C21675672   2.153   3.001  12.709
11792POPC  H16R75673   2.213   2.922  12.660
11792POPC  H16S75674   2.049   2.988  12.674
11792POPC  C21775675   2.145   2.976  12.860
11792POPC  H17R75676   2.085   2.884  12.875
11792POPC  H17S75677   2.088   3.058  12.909
11792POPC  C21875678   2.282   2.957  12.925
11792POPC  H18R75679   2.350   3.040  12.899
11792POPC  H18S75680   2.329   2.864  12.886
11792POPC  H18T75681   2.274   2.950  13.035
11792POPC   C3375682   1.542   3.091  11.498
11792POPC   H3X75683   1.649   3.110  11.476
11792POPC   H3Y75684   1.529   2.980  11.502
11792POPC   C3475685   1.504   3.145  11.638
11792POPC   H4X75686   1.395   3.129  11.652
11792POPC   H4Y75687   1.523   3.254  11.640
11792POPC   C3575688   1.581   3.077  11.755
11792POPC   H5X75689   1.689   3.096  11.742
11792POPC   H5Y75690   1.564   2.967  11.747
11792POPC   C3675691   1.534   3.123  11.895
11792POPC   H6X75692   1.427   3.099  11.897
11792POPC   H6Y75693   1.540   3.233  11.903
11792POPC   C3775694   1.609   3.064  12.018
11792POPC   H7X75695   1.717   3.087  12.008
11792POPC   H7Y75696   1.599   2.954  12.015
11792POPC   C3875697   1.560   3.113  12.159
11792POPC   H8X75698   1.452   3.137  12.153
11792POPC   H8Y75699   1.613   3.208  12.184
11792POPC   C3975700   1.582   3.009  12.272
11792POPC   H9X75701   1.692   3.001  12.284
11792POPC   H9Y75702   1.547   2.910  12.236
11792POPC  C31075703   1.519   3.031  12.414
11792POPC  H10X75704   1.410   3.041  12.408
11792POPC  H10Y75705   1.547   3.129  12.456
11792POPC  C31175706   1.549   2.916  12.517
11792POPC  H11X75707   1.656   2.888  12.509
11792POPC  H11Y75708   1.497   2.825  12.485
11792POPC  C31275709   1.515   2.952  12.666
11792POPC  H12X75710   1.431   2.887  12.696
11792POPC  H12Y75711   1.475   3.056  12.669
11792POPC  C31375712   1.622   2.943  12.778
11792POPC  H13X75713   1.690   3.030  12.777
11792POPC  H13Y75714   1.686   2.853  12.767
11792POPC  C31475715   1.559   2.944  12.919
11792POPC  H14X75716   1.482   2.864  12.923
11792POPC  H14Y75717   1.508   3.041  12.936
11792POPC  C31575718   1.660   2.918  13.033
11792POPC  H15X75719   1.720   2.830  13.001
11792POPC  H15Y75720   1.604   2.890  13.125
11792POPC  C31675721   1.755   3.032  13.067
11792POPC  H16X75722   1.832   3.001  13.140
11792POPC  H16Y75723   1.699   3.115  13.115
11792POPC  H16Z75724   1.806   3.070  12.976
11793POPC     N75725   4.838   1.362  10.802
11793POPC   C1275726   4.759   1.238  10.760
11793POPC  H12A75727   4.827   1.157  10.741
11793POPC  H12B75728   4.707   1.260  10.666
11793POPC   C1375729   4.743   1.476  10.823
11793POPC  H13A75730   4.790   1.564  10.864
11793POPC  H13B75731   4.695   1.501  10.729
11793POPC  H13C75732   4.663   1.440  10.887
11793POPC   C1475733   4.910   1.336  10.931
11793POPC  H14A75734   4.842   1.295  11.005
11793POPC  H14B75735   4.992   1.267  10.919
11793POPC  H14C75736   4.949   1.428  10.972
11793POPC   C1575737   4.931   1.409  10.694
11793POPC  H15A75738   4.877   1.425  10.601
11793POPC  H15B75739   5.010   1.339  10.675
11793POPC  H15C75740   4.975   1.505  10.718
11793POPC   C1175741   4.648   1.188  10.857
11793POPC  H11A75742   4.687   1.177  10.960
11793POPC  H11B75743   4.612   1.088  10.825
11793POPC     P75744   4.393   1.255  10.820
11793POPC   O1375745   4.350   1.123  10.871
11793POPC   O1475746   4.368   1.286  10.677
11793POPC   O1275747   4.543   1.283  10.859
11793POPC   O1175748   4.328   1.372  10.903
11793POPC    C175749   4.388   1.502  10.906
11793POPC    HA75750   4.341   1.563  10.825
11793POPC    HB75751   4.497   1.503  10.889
11793POPC    C275752   4.364   1.578  11.040
11793POPC    HS75753   4.381   1.685  11.015
11793POPC   O2175754   4.452   1.537  11.147
11793POPC   C2175755   4.456   1.626  11.248
11793POPC   O2275756   4.412   1.740  11.242
11793POPC   C2275757   4.532   1.564  11.365
11793POPC   H2R75758   4.635   1.540  11.329
11793POPC   H2S75759   4.484   1.468  11.392
11793POPC    C375760   4.218   1.557  11.082
11793POPC    HX75761   4.158   1.589  10.994
11793POPC    HY75762   4.192   1.626  11.166
11793POPC   O3175763   4.185   1.419  11.109
11793POPC   C3175764   4.198   1.381  11.234
11793POPC   O3275765   4.199   1.459  11.328
11793POPC   C3275766   4.209   1.228  11.240
11793POPC   H2X75767   4.220   1.190  11.136
11793POPC   H2Y75768   4.112   1.192  11.279
11793POPC   C2375769   4.541   1.658  11.487
11793POPC   H3R75770   4.575   1.758  11.453
11793POPC   H3S75771   4.617   1.618  11.558
11793POPC   C2475772   4.411   1.683  11.565
11793POPC   H4R75773   4.341   1.745  11.503
11793POPC   H4S75774   4.439   1.745  11.653
11793POPC   C2575775   4.338   1.557  11.614
11793POPC   H5R75776   4.413   1.487  11.655
11793POPC   H5S75777   4.288   1.507  11.530
11793POPC   C2675778   4.234   1.591  11.722
11793POPC   H6R75779   4.171   1.675  11.687
11793POPC   H6S75780   4.291   1.624  11.812
11793POPC   C2775781   4.142   1.477  11.769
11793POPC   H7R75782   4.076   1.447  11.686
11793POPC   H7S75783   4.078   1.517  11.850
11793POPC   C2875784   4.211   1.349  11.820
11793POPC   H8R75785   4.230   1.286  11.731
11793POPC   H8S75786   4.138   1.292  11.882
11793POPC   C2975787   4.342   1.369  11.894
11793POPC   H9175788   4.430   1.367  11.828
11793POPC  C21075789   4.360   1.389  12.025
11793POPC  H10175790   4.463   1.404  12.062
11793POPC  C21175791   4.253   1.397  12.131
11793POPC  H11R75792   4.193   1.304  12.136
11793POPC  H11S75793   4.183   1.481  12.111
11793POPC  C21275794   4.321   1.421  12.268
11793POPC  H12R75795   4.391   1.507  12.264
11793POPC  H12S75796   4.377   1.328  12.293
11793POPC  C21375797   4.220   1.445  12.380
11793POPC  H13R75798   4.159   1.353  12.379
11793POPC  H13S75799   4.148   1.522  12.353
11793POPC  C21475800   4.282   1.459  12.521
11793POPC  H14R75801   4.372   1.394  12.522
11793POPC  H14S75802   4.210   1.416  12.594
11793POPC  C21575803   4.321   1.595  12.583
11793POPC  H15R75804   4.347   1.669  12.505
11793POPC  H15S75805   4.414   1.577  12.642
11793POPC  C21675806   4.214   1.647  12.682
11793POPC  H16R75807   4.183   1.564  12.750
11793POPC  H16S75808   4.125   1.676  12.626
11793POPC  C21775809   4.236   1.773  12.766
11793POPC  H17R75810   4.294   1.743  12.854
11793POPC  H17S75811   4.137   1.805  12.806
11793POPC  C21875812   4.300   1.892  12.696
11793POPC  H18R75813   4.344   1.959  12.773
11793POPC  H18S75814   4.225   1.950  12.639
11793POPC  H18T75815   4.380   1.859  12.627
11793POPC   C3375816   4.324   1.166  11.326
11793POPC   H3X75817   4.421   1.182  11.275
11793POPC   H3Y75818   4.306   1.056  11.329
11793POPC   C3475819   4.331   1.217  11.471
11793POPC   H4X75820   4.227   1.236  11.506
11793POPC   H4Y75821   4.384   1.314  11.473
11793POPC   C3575822   4.398   1.122  11.572
11793POPC   H5X75823   4.342   1.027  11.577
11793POPC   H5Y75824   4.389   1.170  11.672
11793POPC   C3675825   4.547   1.093  11.550
11793POPC   H6X75826   4.602   1.187  11.526
11793POPC   H6Y75827   4.557   1.023  11.464
11793POPC   C3775828   4.611   1.030  11.675
11793POPC   H7X75829   4.701   0.972  11.646
11793POPC   H7Y75830   4.539   0.958  11.721
11793POPC   C3875831   4.653   1.134  11.780
11793POPC   H8X75832   4.565   1.197  11.808
11793POPC   H8Y75833   4.728   1.202  11.733
11793POPC   C3975834   4.712   1.072  11.907
11793POPC   H9X75835   4.773   0.983  11.880
11793POPC   H9Y75836   4.629   1.037  11.972
11793POPC  C31075837   4.801   1.171  11.984
11793POPC  H10X75838   4.746   1.266  12.000
11793POPC  H10Y75839   4.889   1.194  11.920
11793POPC  C31175840   4.851   1.117  12.118
11793POPC  H11X75841   4.937   1.178  12.154
11793POPC  H11Y75842   4.888   1.013  12.103
11793POPC  C31275843   4.744   1.116  12.228
11793POPC  H12X75844   4.785   1.064  12.317
11793POPC  H12Y75845   4.655   1.058  12.193
11793POPC  C31375846   4.694   1.255  12.270
11793POPC  H13X75847   4.625   1.293  12.192
11793POPC  H13Y75848   4.778   1.327  12.280
11793POPC  C31475849   4.618   1.247  12.403
11793POPC  H14X75850   4.563   1.150  12.401
11793POPC  H14Y75851   4.544   1.328  12.411
11793POPC  C31575852   4.706   1.251  12.529
11793POPC  H15X75853   4.808   1.214  12.504
11793POPC  H15Y75854   4.664   1.182  12.604
11793POPC  C31675855   4.714   1.391  12.590
11793POPC  H16X75856   4.778   1.391  12.681
11793POPC  H16Y75857   4.613   1.426  12.619
11793POPC  H16Z75858   4.756   1.463  12.517
11794POPC     N75859   3.256   1.777  10.716
11794POPC   C1275860   3.291   1.731  10.858
11794POPC  H12A75861   3.388   1.766  10.889
11794POPC  H12B75862   3.298   1.622  10.857
11794POPC   C1375863   3.377   1.825  10.644
11794POPC  H13A75864   3.355   1.861  10.545
11794POPC  H13B75865   3.428   1.903  10.699
11794POPC  H13C75866   3.453   1.747  10.634
11794POPC   C1475867   3.191   1.661  10.646
11794POPC  H14A75868   3.258   1.578  10.631
11794POPC  H14B75869   3.111   1.622  10.709
11794POPC  H14C75870   3.145   1.692  10.553
11794POPC   C1575871   3.150   1.882  10.717
11794POPC  H15A75872   3.181   1.970  10.769
11794POPC  H15B75873   3.065   1.841  10.771
11794POPC  H15C75874   3.113   1.905  10.617
11794POPC   C1175875   3.184   1.763  10.964
11794POPC  H11A75876   3.178   1.872  10.981
11794POPC  H11B75877   3.214   1.719  11.063
11794POPC     P75878   3.029   1.559  10.938
11794POPC   O1375879   3.153   1.483  10.908
11794POPC   O1475880   2.907   1.527  10.862
11794POPC   O1275881   3.058   1.713  10.918
11794POPC   O1175882   3.000   1.560  11.091
11794POPC    C175883   2.894   1.641  11.143
11794POPC    HA75884   2.827   1.568  11.190
11794POPC    HB75885   2.837   1.697  11.066
11794POPC    C275886   2.939   1.738  11.256
11794POPC    HS75887   3.032   1.791  11.225
11794POPC   O2175888   2.958   1.659  11.374
11794POPC   C2175889   3.067   1.588  11.365
11794POPC   O2275890   3.168   1.620  11.304
11794POPC   C2275891   3.050   1.461  11.445
11794POPC   H2R75892   3.002   1.386  11.378
11794POPC   H2S75893   2.982   1.479  11.531
11794POPC    C375894   2.835   1.851  11.283
11794POPC    HX75895   2.732   1.811  11.284
11794POPC    HY75896   2.840   1.923  11.198
11794POPC   O3175897   2.864   1.922  11.405
11794POPC   C3175898   2.815   1.867  11.517
11794POPC   O3275899   2.734   1.777  11.523
11794POPC   C3275900   2.876   1.937  11.638
11794POPC   H2X75901   2.833   1.890  11.729
11794POPC   H2Y75902   2.844   2.043  11.633
11794POPC   C2375903   3.186   1.408  11.491
11794POPC   H3R75904   3.247   1.376  11.403
11794POPC   H3S75905   3.163   1.318  11.553
11794POPC   C2475906   3.267   1.507  11.576
11794POPC   H4R75907   3.261   1.611  11.535
11794POPC   H4S75908   3.375   1.480  11.571
11794POPC   C2575909   3.224   1.504  11.722
11794POPC   H5R75910   3.262   1.408  11.764
11794POPC   H5S75911   3.113   1.502  11.729
11794POPC   C2675912   3.278   1.622  11.803
11794POPC   H6R75913   3.205   1.705  11.801
11794POPC   H6S75914   3.369   1.662  11.755
11794POPC   C2775915   3.310   1.582  11.949
11794POPC   H7R75916   3.329   1.674  12.009
11794POPC   H7S75917   3.403   1.521  11.951
11794POPC   C2875918   3.197   1.500  12.014
11794POPC   H8R75919   3.225   1.479  12.119
11794POPC   H8S75920   3.187   1.401  11.964
11794POPC   C2975921   3.069   1.579  12.001
11794POPC   H9175922   3.045   1.618  11.901
11794POPC  C21075923   2.978   1.600  12.095
11794POPC  H10175924   2.888   1.659  12.072
11794POPC  C21175925   2.987   1.546  12.234
11794POPC  H11R75926   2.938   1.616  12.304
11794POPC  H11S75927   3.092   1.533  12.271
11794POPC  C21275928   2.913   1.412  12.236
11794POPC  H12R75929   2.982   1.328  12.212
11794POPC  H12S75930   2.831   1.410  12.160
11794POPC  C21375931   2.846   1.393  12.370
11794POPC  H13R75932   2.773   1.309  12.364
11794POPC  H13S75933   2.790   1.486  12.392
11794POPC  C21475934   2.943   1.367  12.485
11794POPC  H14R75935   3.021   1.445  12.492
11794POPC  H14S75936   2.994   1.272  12.463
11794POPC  C21575937   2.861   1.364  12.614
11794POPC  H15R75938   2.766   1.309  12.595
11794POPC  H15S75939   2.837   1.471  12.638
11794POPC  C21675940   2.920   1.303  12.740
11794POPC  H16R75941   3.024   1.340  12.758
11794POPC  H16S75942   2.922   1.192  12.734
11794POPC  C21775943   2.830   1.338  12.857
11794POPC  H17R75944   2.725   1.308  12.834
11794POPC  H17S75945   2.830   1.449  12.868
11794POPC  C21875946   2.875   1.270  12.984
11794POPC  H18R75947   2.820   1.307  13.073
11794POPC  H18S75948   2.983   1.284  13.002
11794POPC  H18T75949   2.853   1.161  12.976
11794POPC   C3375950   3.031   1.928  11.639
11794POPC   H3X75951   3.069   1.932  11.534
11794POPC   H3Y75952   3.064   1.830  11.680
11794POPC   C3475953   3.098   2.044  11.714
11794POPC   H4X75954   3.039   2.138  11.702
11794POPC   H4Y75955   3.197   2.061  11.665
11794POPC   C3575956   3.127   2.016  11.862
11794POPC   H5X75957   3.202   2.090  11.899
11794POPC   H5Y75958   3.173   1.915  11.870
11794POPC   C3675959   3.005   2.022  11.956
11794POPC   H6X75960   2.923   1.958  11.918
11794POPC   H6Y75961   2.968   2.127  11.963
11794POPC   C3775962   3.048   1.971  12.094
11794POPC   H7X75963   3.136   2.031  12.125
11794POPC   H7Y75964   3.083   1.867  12.084
11794POPC   C3875965   2.939   1.977  12.202
11794POPC   H8X75966   2.851   1.919  12.167
11794POPC   H8Y75967   2.906   2.082  12.216
11794POPC   C3975968   2.983   1.918  12.338
11794POPC   H9X75969   2.951   1.812  12.341
11794POPC   H9Y75970   2.927   1.970  12.419
11794POPC  C31075971   3.134   1.921  12.368
11794POPC  H10X75972   3.165   2.025  12.395
11794POPC  H10Y75973   3.193   1.891  12.278
11794POPC  C31175974   3.178   1.822  12.477
11794POPC  H11X75975   3.288   1.830  12.492
11794POPC  H11Y75976   3.156   1.719  12.442
11794POPC  C31275977   3.106   1.846  12.610
11794POPC  H12X75978   2.997   1.860  12.594
11794POPC  H12Y75979   3.146   1.940  12.655
11794POPC  C31375980   3.120   1.730  12.710
11794POPC  H13X75981   3.064   1.640  12.676
11794POPC  H13Y75982   3.073   1.767  12.804
11794POPC  C31475983   3.263   1.691  12.745
11794POPC  H14X75984   3.326   1.780  12.732
11794POPC  H14Y75985   3.303   1.617  12.673
11794POPC  C31575986   3.278   1.646  12.891
11794POPC  H15X75987   3.230   1.723  12.955
11794POPC  H15Y75988   3.385   1.653  12.917
11794POPC  C31675989   3.226   1.507  12.930
11794POPC  H16X75990   3.307   1.432  12.937
11794POPC  H16Y75991   3.151   1.472  12.857
11794POPC  H16Z75992   3.178   1.513  13.030
11795POPC     N75993   1.372   4.210  10.895
11795POPC   C1275994   1.368   4.359  10.933
11795POPC  H12A75995   1.417   4.417  10.856
11795POPC  H12B75996   1.423   4.374  11.025
11795POPC   C1375997   1.294   4.193  10.768
11795POPC  H13A75998   1.342   4.247  10.687
11795POPC  H13B75999   1.282   4.091  10.736
11795POPC  H13C76000   1.195   4.239  10.780
11795POPC   C1476001   1.511   4.162  10.868
11795POPC  H14A76002   1.575   4.173  10.953
11795POPC  H14B76003   1.507   4.059  10.835
11795POPC  H14C76004   1.554   4.218  10.784
11795POPC   C1576005   1.309   4.131  11.005
11795POPC  H15A76006   1.365   4.137  11.098
11795POPC  H15B76007   1.296   4.026  10.979
11795POPC  H15C76008   1.210   4.173  11.023
11795POPC   C1176009   1.229   4.429  10.953
11795POPC  H11A76010   1.249   4.536  10.980
11795POPC  H11B76011   1.177   4.385  11.041
11795POPC     P76012   1.075   4.542  10.765
11795POPC   O1376013   0.947   4.496  10.704
11795POPC   O1476014   1.173   4.607  10.674
11795POPC   O1276015   1.147   4.418  10.837
11795POPC   O1176016   1.034   4.634  10.892
11795POPC    C176017   0.933   4.574  10.977
11795POPC    HA76018   0.947   4.463  10.982
11795POPC    HB76019   0.833   4.591  10.933
11795POPC    C276020   0.928   4.617  11.129
11795POPC    HS76021   0.881   4.718  11.134
11795POPC   O2176022   1.058   4.620  11.190
11795POPC   C2176023   1.068   4.618  11.323
11795POPC   O2276024   0.982   4.653  11.402
11795POPC   C2276025   1.203   4.555  11.360
11795POPC   H2R76026   1.275   4.578  11.281
11795POPC   H2S76027   1.192   4.445  11.358
11795POPC    C376028   0.836   4.511  11.196
11795POPC    HX76029   0.742   4.508  11.137
11795POPC    HY76030   0.809   4.536  11.301
11795POPC   O3176031   0.908   4.386  11.192
11795POPC   C3176032   0.834   4.278  11.197
11795POPC   O3276033   0.713   4.274  11.212
11795POPC   C3276034   0.924   4.155  11.175
11795POPC   H2X76035   0.937   4.146  11.065
11795POPC   H2Y76036   0.863   4.068  11.205
11795POPC   C2376037   1.252   4.601  11.499
11795POPC   H3R76038   1.175   4.573  11.575
11795POPC   H3S76039   1.259   4.712  11.501
11795POPC   C2476040   1.388   4.541  11.539
11795POPC   H4R76041   1.462   4.567  11.461
11795POPC   H4S76042   1.380   4.430  11.543
11795POPC   C2576043   1.440   4.593  11.674
11795POPC   H5R76044   1.440   4.704  11.673
11795POPC   H5S76045   1.546   4.561  11.688
11795POPC   C2676046   1.357   4.545  11.794
11795POPC   H6R76047   1.379   4.438  11.815
11795POPC   H6S76048   1.250   4.552  11.768
11795POPC   C2776049   1.378   4.630  11.921
11795POPC   H7R76050   1.366   4.737  11.894
11795POPC   H7S76051   1.482   4.615  11.957
11795POPC   C2876052   1.280   4.595  12.035
11795POPC   H8R76053   1.318   4.645  12.127
11795POPC   H8S76054   1.288   4.486  12.053
11795POPC   C2976055   1.135   4.635  12.011
11795POPC   H9176056   1.108   4.648  11.905
11795POPC  C21076057   1.041   4.658  12.105
11795POPC  H10176058   0.940   4.687  12.073
11795POPC  C21176059   1.061   4.648  12.254
11795POPC  H11R76060   1.149   4.585  12.274
11795POPC  H11S76061   0.975   4.598  12.304
11795POPC  C21276062   1.086   4.786  12.319
11795POPC  H12R76063   0.990   4.838  12.337
11795POPC  H12S76064   1.147   4.848  12.250
11795POPC  C21376065   1.167   4.777  12.449
11795POPC  H13R76066   1.112   4.723  12.529
11795POPC  H13S76067   1.183   4.882  12.485
11795POPC  C21476068   1.303   4.712  12.424
11795POPC  H14R76069   1.324   4.717  12.315
11795POPC  H14S76070   1.302   4.604  12.452
11795POPC  C21576071   1.419   4.784  12.492
11795POPC  H15R76072   1.402   4.893  12.483
11795POPC  H15S76073   1.510   4.760  12.434
11795POPC  C21676074   1.432   4.748  12.640
11795POPC  H16R76075   1.330   4.751  12.683
11795POPC  H16S76076   1.492   4.827  12.691
11795POPC  C21776077   1.495   4.611  12.669
11795POPC  H17R76078   1.598   4.625  12.709
11795POPC  H17S76079   1.505   4.554  12.574
11795POPC  C21876080   1.414   4.528  12.769
11795POPC  H18R76081   1.446   4.421  12.767
11795POPC  H18S76082   1.306   4.532  12.744
11795POPC  H18T76083   1.429   4.567  12.871
11795POPC   C3376084   1.065   4.158  11.240
11795POPC   H3X76085   1.118   4.251  11.211
11795POPC   H3Y76086   1.122   4.072  11.197
11795POPC   C3476087   1.077   4.140  11.393
11795POPC   H4X76088   1.185   4.138  11.421
11795POPC   H4Y76089   1.035   4.042  11.420
11795POPC   C3576090   1.008   4.247  11.478
11795POPC   H5X76091   0.901   4.252  11.448
11795POPC   H5Y76092   1.051   4.348  11.460
11795POPC   C3676093   1.009   4.220  11.630
11795POPC   H6X76094   0.990   4.113  11.651
11795POPC   H6Y76095   0.924   4.280  11.670
11795POPC   C3776096   1.134   4.267  11.706
11795POPC   H7X76097   1.164   4.365  11.662
11795POPC   H7Y76098   1.219   4.197  11.691
11795POPC   C3876099   1.108   4.291  11.857
11795POPC   H8X76100   1.002   4.317  11.874
11795POPC   H8Y76101   1.167   4.381  11.885
11795POPC   C3976102   1.153   4.177  11.951
11795POPC   H9X76103   1.244   4.129  11.909
11795POPC   H9Y76104   1.073   4.100  11.954
11795POPC  C31076105   1.187   4.228  12.093
11795POPC  H10X76106   1.153   4.333  12.102
11795POPC  H10Y76107   1.297   4.226  12.107
11795POPC  C31176108   1.118   4.150  12.207
11795POPC  H11X76109   1.124   4.041  12.189
11795POPC  H11Y76110   1.013   4.182  12.204
11795POPC  C31276111   1.162   4.184  12.351
11795POPC  H12X76112   1.273   4.174  12.360
11795POPC  H12Y76113   1.115   4.111  12.421
11795POPC  C31376114   1.116   4.325  12.388
11795POPC  H13X76115   1.009   4.338  12.364
11795POPC  H13Y76116   1.175   4.392  12.321
11795POPC  C31476117   1.142   4.370  12.533
11795POPC  H14X76118   1.141   4.481  12.534
11795POPC  H14Y76119   1.244   4.338  12.563
11795POPC  C31576120   1.039   4.324  12.637
11795POPC  H15X76121   1.078   4.356  12.737
11795POPC  H15Y76122   1.031   4.213  12.638
11795POPC  C31676123   0.899   4.385  12.622
11795POPC  H16X76124   0.850   4.393  12.721
11795POPC  H16Y76125   0.835   4.323  12.556
11795POPC  H16Z76126   0.904   4.488  12.579
11796POPC     N76127   3.974   8.210  10.707
11796POPC   C1276128   4.065   8.261  10.819
11796POPC  H12A76129   4.067   8.369  10.819
11796POPC  H12B76130   4.168   8.228  10.799
11796POPC   C1376131   3.835   8.186  10.760
11796POPC  H13A76132   3.840   8.117  10.844
11796POPC  H13B76133   3.789   8.278  10.792
11796POPC  H13C76134   3.772   8.141  10.684
11796POPC   C1476135   3.971   8.303  10.592
11796POPC  H14A76136   4.068   8.304  10.542
11796POPC  H14B76137   3.898   8.271  10.519
11796POPC  H14C76138   3.946   8.404  10.621
11796POPC   C1576139   4.028   8.078  10.658
11796POPC  H15A76140   4.121   8.092  10.604
11796POPC  H15B76141   3.959   8.025  10.594
11796POPC  H15C76142   4.050   8.014  10.743
11796POPC   C1176143   4.038   8.212  10.963
11796POPC  H11A76144   3.936   8.242  10.996
11796POPC  H11B76145   4.108   8.262  11.034
11796POPC     P76146   4.196   8.004  10.971
11796POPC   O1376147   4.288   8.097  10.902
11796POPC   O1476148   4.186   7.868  10.915
11796POPC   O1276149   4.050   8.070  10.968
11796POPC   O1176150   4.235   8.011  11.126
11796POPC    C176151   4.295   7.896  11.182
11796POPC    HA76152   4.403   7.890  11.154
11796POPC    HB76153   4.247   7.802  11.146
11796POPC    C276154   4.282   7.893  11.336
11796POPC    HS76155   4.310   7.788  11.361
11796POPC   O2176156   4.151   7.926  11.382
11796POPC   C2176157   4.057   7.838  11.360
11796POPC   O2276158   4.070   7.724  11.319
11796POPC   C2276159   3.924   7.900  11.400
11796POPC   H2R76160   3.923   7.906  11.510
11796POPC   H2S76161   3.843   7.831  11.366
11796POPC    C376162   4.373   7.992  11.414
11796POPC    HX76163   4.334   8.094  11.389
11796POPC    HY76164   4.475   7.988  11.373
11796POPC   O3176165   4.378   7.980  11.559
11796POPC   C3176166   4.340   7.871  11.624
11796POPC   O3276167   4.301   7.766  11.577
11796POPC   C3276168   4.360   7.885  11.774
11796POPC   H2X76169   4.299   7.969  11.811
11796POPC   H2Y76170   4.467   7.908  11.792
11796POPC   C2376171   3.905   8.041  11.336
11796POPC   H3R76172   3.904   8.029  11.225
11796POPC   H3S76173   3.994   8.104  11.359
11796POPC   C2476174   3.778   8.113  11.382
11796POPC   H4R76175   3.692   8.044  11.368
11796POPC   H4S76176   3.761   8.203  11.319
11796POPC   C2576177   3.780   8.155  11.530
11796POPC   H5R76178   3.805   8.066  11.591
11796POPC   H5S76179   3.678   8.188  11.561
11796POPC   C2676180   3.879   8.269  11.560
11796POPC   H6R76181   3.833   8.366  11.532
11796POPC   H6S76182   3.971   8.257  11.500
11796POPC   C2776183   3.916   8.271  11.709
11796POPC   H7R76184   3.824   8.257  11.769
11796POPC   H7S76185   3.957   8.372  11.735
11796POPC   C2876186   4.018   8.162  11.746
11796POPC   H8R76187   3.988   8.065  11.701
11796POPC   H8S76188   4.015   8.147  11.856
11796POPC   C2976189   4.156   8.200  11.699
11796POPC   H9176190   4.182   8.170  11.596
11796POPC  C21076191   4.247   8.263  11.774
11796POPC  H10176192   4.346   8.281  11.730
11796POPC  C21176193   4.229   8.307  11.918
11796POPC  H11R76194   4.123   8.299  11.953
11796POPC  H11S76195   4.256   8.414  11.933
11796POPC  C21276196   4.316   8.216  12.006
11796POPC  H12R76197   4.423   8.220  11.975
11796POPC  H12S76198   4.280   8.113  11.987
11796POPC  C21376199   4.305   8.247  12.156
11796POPC  H13R76200   4.198   8.264  12.176
11796POPC  H13S76201   4.355   8.342  12.179
11796POPC  C21476202   4.361   8.139  12.250
11796POPC  H14R76203   4.327   8.161  12.354
11796POPC  H14S76204   4.473   8.143  12.250
11796POPC  C21576205   4.315   8.000  12.206
11796POPC  H15R76206   4.372   7.971  12.114
11796POPC  H15S76207   4.208   8.007  12.179
11796POPC  C21676208   4.329   7.885  12.307
11796POPC  H16R76209   4.283   7.911  12.404
11796POPC  H16S76210   4.436   7.864  12.323
11796POPC  C21776211   4.259   7.761  12.248
11796POPC  H17R76212   4.263   7.770  12.138
11796POPC  H17S76213   4.152   7.761  12.279
11796POPC  C21876214   4.318   7.625  12.283
11796POPC  H18R76215   4.285   7.548  12.211
11796POPC  H18S76216   4.286   7.593  12.384
11796POPC  H18T76217   4.429   7.632  12.281
11796POPC   C3376218   4.324   7.751  11.843
11796POPC   H3X76219   4.354   7.759  11.949
11796POPC   H3Y76220   4.383   7.667  11.799
11796POPC   C3476221   4.174   7.713  11.842
11796POPC   H4X76222   4.161   7.623  11.907
11796POPC   H4Y76223   4.141   7.684  11.740
11796POPC   C3576224   4.085   7.826  11.895
11796POPC   H5X76225   4.091   7.914  11.827
11796POPC   H5Y76226   4.130   7.858  11.991
11796POPC   C3676227   3.937   7.787  11.913
11796POPC   H6X76228   3.931   7.681  11.946
11796POPC   H6Y76229   3.886   7.794  11.814
11796POPC   C3776230   3.864   7.874  12.016
11796POPC   H7X76231   3.756   7.849  12.017
11796POPC   H7Y76232   3.874   7.981  11.986
11796POPC   C3876233   3.919   7.857  12.159
11796POPC   H8X76234   4.029   7.864  12.158
11796POPC   H8Y76235   3.893   7.755  12.195
11796POPC   C3976236   3.872   7.962  12.261
11796POPC   H9X76237   3.898   7.924  12.362
11796POPC   H9Y76238   3.762   7.970  12.256
11796POPC  C31076239   3.941   8.098  12.242
11796POPC  H10X76240   3.868   8.179  12.226
11796POPC  H10Y76241   4.003   8.093  12.149
11796POPC  C31176242   4.032   8.138  12.358
11796POPC  H11X76243   4.087   8.230  12.331
11796POPC  H11Y76244   4.106   8.056  12.375
11796POPC  C31276245   3.965   8.169  12.492
11796POPC  H12X76246   3.917   8.076  12.530
11796POPC  H12Y76247   3.886   8.246  12.479
11796POPC  C31376248   4.073   8.218  12.589
11796POPC  H13X76249   4.087   8.328  12.579
11796POPC  H13Y76250   4.169   8.170  12.561
11796POPC  C31476251   4.044   8.179  12.734
11796POPC  H14X76252   4.014   8.073  12.732
11796POPC  H14Y76253   3.958   8.238  12.772
11796POPC  C31576254   4.166   8.193  12.827
11796POPC  H15X76255   4.127   8.217  12.929
11796POPC  H15Y76256   4.227   8.280  12.794
11796POPC  C31676257   4.252   8.067  12.837
11796POPC  H16X76258   4.339   8.083  12.905
11796POPC  H16Y76259   4.290   8.036  12.737
11796POPC  H16Z76260   4.191   7.984  12.878
11797POPC     N76261   3.025   8.050  10.928
11797POPC   C1276262   3.127   7.950  10.982
11797POPC  H12A76263   3.104   7.925  11.084
11797POPC  H12B76264   3.224   7.998  10.984
11797POPC   C1376265   3.062   8.086  10.788
11797POPC  H13A76266   3.155   8.141  10.786
11797POPC  H13B76267   3.079   7.992  10.735
11797POPC  H13C76268   2.984   8.141  10.737
11797POPC   C1476269   2.887   7.990  10.927
11797POPC  H14A76270   2.888   7.894  10.876
11797POPC  H14B76271   2.851   7.978  11.029
11797POPC  H14C76272   2.817   8.058  10.880
11797POPC   C1576273   3.022   8.175  11.008
11797POPC  H15A76274   3.112   8.233  10.997
11797POPC  H15B76275   3.004   8.155  11.113
11797POPC  H15C76276   2.936   8.236  10.977
11797POPC   C1176277   3.147   7.818  10.902
11797POPC  H11A76278   3.051   7.763  10.894
11797POPC  H11B76279   3.218   7.753  10.958
11797POPC     P76280   3.321   7.784  10.702
11797POPC   O1376281   3.389   7.891  10.624
11797POPC   O1476282   3.286   7.658  10.632
11797POPC   O1276283   3.195   7.848  10.771
11797POPC   O1176284   3.416   7.753  10.828
11797POPC    C176285   3.475   7.868  10.890
11797POPC    HA76286   3.400   7.949  10.903
11797POPC    HB76287   3.559   7.906  10.827
11797POPC    C276288   3.533   7.845  11.033
11797POPC    HS76289   3.631   7.792  11.020
11797POPC   O2176290   3.445   7.765  11.117
11797POPC   C2176291   3.493   7.745  11.239
11797POPC   O2276292   3.606   7.770  11.276
11797POPC   C2276293   3.383   7.696  11.330
11797POPC   H2R76294   3.367   7.588  11.312
11797POPC   H2S76295   3.289   7.751  11.307
11797POPC    C376296   3.558   7.987  11.095
11797POPC    HX76297   3.601   8.050  11.014
11797POPC    HY76298   3.634   7.981  11.175
11797POPC   O3176299   3.434   8.043  11.147
11797POPC   C3176300   3.436   8.173  11.170
11797POPC   O3276301   3.521   8.252  11.131
11797POPC   C3276302   3.314   8.219  11.251
11797POPC   H2X76303   3.238   8.258  11.180
11797POPC   H2Y76304   3.348   8.303  11.314
11797POPC   C2376305   3.431   7.722  11.473
11797POPC   H3R76306   3.454   7.830  11.488
11797POPC   H3S76307   3.526   7.666  11.491
11797POPC   C2476308   3.332   7.681  11.582
11797POPC   H4R76309   3.293   7.579  11.563
11797POPC   H4S76310   3.246   7.751  11.582
11797POPC   C2576311   3.402   7.683  11.719
11797POPC   H5R76312   3.475   7.767  11.722
11797POPC   H5S76313   3.459   7.588  11.732
11797POPC   C2676314   3.303   7.702  11.832
11797POPC   H6R76315   3.223   7.626  11.820
11797POPC   H6S76316   3.253   7.800  11.819
11797POPC   C2776317   3.367   7.690  11.972
11797POPC   H7R76318   3.437   7.603  11.973
11797POPC   H7S76319   3.285   7.667  12.045
11797POPC   C2876320   3.440   7.817  12.020
11797POPC   H8R76321   3.526   7.838  11.954
11797POPC   H8S76322   3.478   7.799  12.123
11797POPC   C2976323   3.339   7.928  12.020
11797POPC   H9176324   3.239   7.895  12.049
11797POPC  C21076325   3.356   8.057  11.987
11797POPC  H10176326   3.270   8.125  11.995
11797POPC  C21176327   3.482   8.124  11.940
11797POPC  H11R76328   3.480   8.139  11.830
11797POPC  H11S76329   3.572   8.064  11.964
11797POPC  C21276330   3.491   8.262  12.009
11797POPC  H12R76331   3.411   8.328  11.970
11797POPC  H12S76332   3.589   8.308  11.982
11797POPC  C21376333   3.480   8.257  12.163
11797POPC  H13R76334   3.379   8.224  12.195
11797POPC  H13S76335   3.497   8.360  12.203
11797POPC  C21476336   3.585   8.163  12.223
11797POPC  H14R76337   3.681   8.193  12.174
11797POPC  H14S76338   3.566   8.059  12.192
11797POPC  C21576339   3.601   8.172  12.376
11797POPC  H15R76340   3.605   8.279  12.406
11797POPC  H15S76341   3.699   8.127  12.403
11797POPC  C21676342   3.493   8.097  12.455
11797POPC  H16R76343   3.395   8.145  12.435
11797POPC  H16S76344   3.515   8.109  12.564
11797POPC  C21776345   3.482   7.948  12.422
11797POPC  H17R76346   3.584   7.903  12.425
11797POPC  H17S76347   3.444   7.937  12.318
11797POPC  C21876348   3.391   7.868  12.515
11797POPC  H18R76349   3.370   7.767  12.474
11797POPC  H18S76350   3.294   7.921  12.529
11797POPC  H18T76351   3.438   7.856  12.614
11797POPC   C3376352   3.249   8.111  11.342
11797POPC   H3X76353   3.316   8.023  11.356
11797POPC   H3Y76354   3.155   8.075  11.295
11797POPC   C3476355   3.216   8.164  11.483
11797POPC   H4X76356   3.153   8.256  11.475
11797POPC   H4Y76357   3.309   8.191  11.537
11797POPC   C3576358   3.140   8.059  11.565
11797POPC   H5X76359   3.206   7.971  11.581
11797POPC   H5Y76360   3.051   8.024  11.508
11797POPC   C3676361   3.092   8.109  11.702
11797POPC   H6X76362   3.026   8.197  11.690
11797POPC   H6Y76363   3.180   8.139  11.763
11797POPC   C3776364   3.015   7.998  11.776
11797POPC   H7X76365   3.079   7.907  11.779
11797POPC   H7Y76366   2.923   7.972  11.719
11797POPC   C3876367   2.978   8.037  11.919
11797POPC   H8X76368   2.906   8.121  11.915
11797POPC   H8Y76369   3.068   8.074  11.971
11797POPC   C3976370   2.917   7.919  11.995
11797POPC   H9X76371   2.972   7.826  11.971
11797POPC   H9Y76372   2.813   7.908  11.957
11797POPC  C31076373   2.913   7.936  12.148
11797POPC  H10X76374   2.853   7.855  12.194
11797POPC  H10Y76375   2.863   8.033  12.172
11797POPC  C31176376   3.050   7.932  12.216
11797POPC  H11X76377   3.116   8.005  12.166
11797POPC  H11Y76378   3.095   7.830  12.208
11797POPC  C31276379   3.043   7.974  12.363
11797POPC  H12X76380   2.965   8.053  12.375
11797POPC  H12Y76381   3.141   8.020  12.390
11797POPC  C31376382   3.014   7.859  12.459
11797POPC  H13X76383   3.099   7.787  12.455
11797POPC  H13Y76384   2.921   7.806  12.430
11797POPC  C31476385   3.003   7.913  12.602
11797POPC  H14X76386   2.911   7.975  12.614
11797POPC  H14Y76387   3.093   7.976  12.614
11797POPC  C31576388   3.011   7.805  12.709
11797POPC  H15X76389   3.110   7.756  12.694
11797POPC  H15Y76390   2.928   7.734  12.691
11797POPC  C31676391   3.003   7.850  12.854
11797POPC  H16X76392   3.070   7.936  12.872
11797POPC  H16Y76393   3.032   7.769  12.924
11797POPC  H16Z76394   2.900   7.880  12.879
11798POPC     N76395   8.070   4.564  10.734
11798POPC   C1276396   8.045   4.489  10.865
11798POPC  H12A76397   7.945   4.507  10.902
11798POPC  H12B76398   8.114   4.527  10.941
11798POPC   C1376399   8.209   4.531  10.688
11798POPC  H13A76400   8.280   4.566  10.761
11798POPC  H13B76401   8.222   4.422  10.685
11798POPC  H13C76402   8.232   4.574  10.591
11798POPC   C1476403   7.976   4.519  10.627
11798POPC  H14A76404   7.987   4.411  10.614
11798POPC  H14B76405   7.872   4.542  10.648
11798POPC  H14C76406   8.004   4.563  10.532
11798POPC   C1576407   8.060   4.714  10.749
11798POPC  H15A76408   8.092   4.760  10.656
11798POPC  H15B76409   8.127   4.757  10.824
11798POPC  H15C76410   7.959   4.745  10.771
11798POPC   C1176411   8.064   4.335  10.865
11798POPC  H11A76412   8.004   4.289  10.784
11798POPC  H11B76413   8.021   4.294  10.960
11798POPC     P76414   8.291   4.274  10.976
11798POPC   O1376415   8.418   4.211  10.933
11798POPC   O1476416   8.211   4.209  11.081
11798POPC   O1276417   8.201   4.298  10.847
11798POPC   O1176418   8.324   4.426  11.006
11798POPC    C176419   8.407   4.466  11.115
11798POPC    HA76420   8.431   4.574  11.102
11798POPC    HB76421   8.503   4.410  11.116
11798POPC    C276422   8.337   4.452  11.253
11798POPC    HS76423   8.321   4.343  11.272
11798POPC   O2176424   8.213   4.524  11.247
11798POPC   C2176425   8.120   4.481  11.330
11798POPC   O2276426   8.124   4.382  11.401
11798POPC   C2276427   8.006   4.582  11.328
11798POPC   H2R76428   7.934   4.546  11.253
11798POPC   H2S76429   8.043   4.680  11.294
11798POPC    C376430   8.428   4.510  11.367
11798POPC    HX76431   8.450   4.616  11.342
11798POPC    HY76432   8.525   4.456  11.367
11798POPC   O3176433   8.363   4.506  11.496
11798POPC   C3176434   8.371   4.390  11.559
11798POPC   O3276435   8.441   4.296  11.527
11798POPC   C3276436   8.283   4.398  11.685
11798POPC   H2X76437   8.179   4.408  11.648
11798POPC   H2Y76438   8.310   4.490  11.740
11798POPC   C2376439   7.945   4.593  11.468
11798POPC   H3R76440   7.929   4.494  11.515
11798POPC   H3S76441   7.846   4.645  11.462
11798POPC   C2476442   8.035   4.679  11.554
11798POPC   H4R76443   8.041   4.777  11.502
11798POPC   H4S76444   8.138   4.637  11.562
11798POPC   C2576445   7.979   4.704  11.693
11798POPC   H5R76446   7.869   4.714  11.684
11798POPC   H5S76447   8.020   4.801  11.731
11798POPC   C2676448   8.014   4.591  11.788
11798POPC   H6R76449   8.124   4.587  11.800
11798POPC   H6S76450   7.982   4.494  11.743
11798POPC   C2776451   7.948   4.608  11.926
11798POPC   H7R76452   7.974   4.520  11.989
11798POPC   H7S76453   7.838   4.604  11.911
11798POPC   C2876454   7.985   4.739  11.997
11798POPC   H8R76455   7.937   4.741  12.097
11798POPC   H8S76456   7.943   4.826  11.945
11798POPC   C2976457   8.135   4.757  12.000
11798POPC   H9176458   8.181   4.777  11.902
11798POPC  C21076459   8.212   4.755  12.109
11798POPC  H10176460   8.321   4.766  12.099
11798POPC  C21176461   8.162   4.734  12.248
11798POPC  H11R76462   8.095   4.817  12.278
11798POPC  H11S76463   8.250   4.742  12.315
11798POPC  C21276464   8.090   4.600  12.271
11798POPC  H12R76465   8.159   4.515  12.254
11798POPC  H12S76466   8.005   4.584  12.201
11798POPC  C21376467   8.031   4.593  12.412
11798POPC  H13R76468   7.987   4.493  12.427
11798POPC  H13S76469   7.950   4.668  12.421
11798POPC  C21476470   8.135   4.622  12.519
11798POPC  H14R76471   8.096   4.596  12.619
11798POPC  H14S76472   8.156   4.731  12.521
11798POPC  C21576473   8.266   4.546  12.494
11798POPC  H15R76474   8.309   4.564  12.393
11798POPC  H15S76475   8.247   4.437  12.502
11798POPC  C21676476   8.371   4.594  12.592
11798POPC  H16R76477   8.332   4.572  12.694
11798POPC  H16S76478   8.385   4.704  12.581
11798POPC  C21776479   8.506   4.525  12.574
11798POPC  H17R76480   8.569   4.592  12.513
11798POPC  H17S76481   8.494   4.433  12.514
11798POPC  C21876482   8.567   4.493  12.710
11798POPC  H18R76483   8.490   4.447  12.776
11798POPC  H18S76484   8.606   4.584  12.760
11798POPC  H18T76485   8.649   4.418  12.702
11798POPC   C3376486   8.291   4.275  11.778
11798POPC   H3X76487   8.389   4.273  11.831
11798POPC   H3Y76488   8.286   4.183  11.716
11798POPC   C3476489   8.175   4.271  11.879
11798POPC   H4X76490   8.080   4.284  11.824
11798POPC   H4Y76491   8.185   4.356  11.950
11798POPC   C3576492   8.170   4.138  11.956
11798POPC   H5X76493   8.265   4.122  12.012
11798POPC   H5Y76494   8.163   4.057  11.879
11798POPC   C3676495   8.050   4.122  12.052
11798POPC   H6X76496   8.035   4.012  12.068
11798POPC   H6Y76497   7.958   4.162  12.006
11798POPC   C3776498   8.071   4.184  12.191
11798POPC   H7X76499   8.069   4.295  12.183
11798POPC   H7Y76500   8.171   4.155  12.230
11798POPC   C3876501   7.964   4.139  12.293
11798POPC   H8X76502   7.959   4.027  12.294
11798POPC   H8Y76503   7.865   4.177  12.261
11798POPC   C3976504   7.993   4.187  12.436
11798POPC   H9X76505   8.028   4.292  12.432
11798POPC   H9Y76506   8.075   4.126  12.480
11798POPC  C31076507   7.870   4.179  12.528
11798POPC  H10X76508   7.835   4.073  12.530
11798POPC  H10Y76509   7.787   4.241  12.488
11798POPC  C31176510   7.900   4.220  12.673
11798POPC  H11X76511   7.992   4.167  12.706
11798POPC  H11Y76512   7.816   4.188  12.739
11798POPC  C31276513   7.921   4.371  12.695
11798POPC  H12X76514   7.826   4.423  12.673
11798POPC  H12Y76515   7.999   4.408  12.626
11798POPC  C31376516   7.964   4.398  12.840
11798POPC  H13X76517   8.066   4.356  12.849
11798POPC  H13Y76518   7.897   4.341  12.908
11798POPC  C31476519   7.973   4.543  12.891
11798POPC  H14X76520   7.876   4.595  12.875
11798POPC  H14Y76521   8.052   4.597  12.835
11798POPC  C31576522   8.009   4.543  13.040
11798POPC  H15X76523   7.946   4.467  13.092
11798POPC  H15Y76524   7.988   4.641  13.087
11798POPC  C31676525   8.156   4.508  13.062
11798POPC  H16X76526   8.175   4.456  13.158
11798POPC  H16Y76527   8.219   4.598  13.059
11798POPC  H16Z76528   8.193   4.447  12.978
11799POPC     N76529   8.004   3.415  10.703
11799POPC   C1276530   8.100   3.530  10.725
11799POPC  H12A76531   8.040   3.619  10.746
11799POPC  H12B76532   8.151   3.549  10.631
11799POPC   C1376533   7.902   3.413  10.813
11799POPC  H13A76534   7.825   3.487  10.797
11799POPC  H13B76535   7.856   3.316  10.822
11799POPC  H13C76536   7.949   3.439  10.908
11799POPC   C1476537   7.939   3.439  10.570
11799POPC  H14A76538   7.864   3.365  10.545
11799POPC  H14B76539   7.888   3.535  10.566
11799POPC  H14C76540   8.012   3.440  10.490
11799POPC   C1576541   8.080   3.287  10.698
11799POPC  H15A76542   8.123   3.267  10.795
11799POPC  H15B76543   8.162   3.296  10.626
11799POPC  H15C76544   8.016   3.204  10.667
11799POPC   C1176545   8.209   3.523  10.836
11799POPC  H11A76546   8.291   3.594  10.810
11799POPC  H11B76547   8.256   3.423  10.839
11799POPC     P76548   8.067   3.685  10.984
11799POPC   O1376549   7.934   3.632  11.021
11799POPC   O1476550   8.075   3.767  10.860
11799POPC   O1276551   8.159   3.557  10.964
11799POPC   O1176552   8.135   3.763  11.104
11799POPC    C176553   8.271   3.806  11.096
11799POPC    HA76554   8.276   3.915  11.073
11799POPC    HB76555   8.326   3.752  11.014
11799POPC    C276556   8.349   3.777  11.227
11799POPC    HS76557   8.452   3.749  11.193
11799POPC   O2176558   8.286   3.674  11.305
11799POPC   C2176559   8.369   3.590  11.361
11799POPC   O2276560   8.484   3.572  11.326
11799POPC   C2276561   8.300   3.524  11.477
11799POPC   H2R76562   8.335   3.419  11.486
11799POPC   H2S76563   8.191   3.524  11.455
11799POPC    C376564   8.368   3.903  11.320
11799POPC    HX76565   8.415   3.983  11.260
11799POPC    HY76566   8.444   3.869  11.395
11799POPC   O3176567   8.245   3.951  11.381
11799POPC   C3176568   8.241   3.947  11.514
11799POPC   O3276569   8.336   3.926  11.587
11799POPC   C3276570   8.098   3.962  11.568
11799POPC   H2X76571   8.027   3.972  11.484
11799POPC   H2Y76572   8.095   4.053  11.631
11799POPC   C2376573   8.324   3.591  11.614
11799POPC   H3R76574   8.314   3.700  11.609
11799POPC   H3S76575   8.426   3.565  11.651
11799POPC   C2476576   8.218   3.533  11.706
11799POPC   H4R76577   8.248   3.428  11.709
11799POPC   H4S76578   8.117   3.541  11.660
11799POPC   C2576579   8.211   3.578  11.851
11799POPC   H5R76580   8.118   3.533  11.893
11799POPC   H5S76581   8.204   3.688  11.860
11799POPC   C2676582   8.330   3.528  11.932
11799POPC   H6R76583   8.421   3.571  11.888
11799POPC   H6S76584   8.347   3.420  11.923
11799POPC   C2776585   8.317   3.555  12.081
11799POPC   H7R76586   8.324   3.664  12.098
11799POPC   H7S76587   8.404   3.506  12.130
11799POPC   C2876588   8.185   3.502  12.145
11799POPC   H8R76589   8.101   3.561  12.103
11799POPC   H8S76590   8.186   3.530  12.253
11799POPC   C2976591   8.156   3.355  12.128
11799POPC   H9176592   8.116   3.329  12.029
11799POPC  C21076593   8.172   3.254  12.218
11799POPC  H10176594   8.145   3.152  12.186
11799POPC  C21176595   8.223   3.264  12.360
11799POPC  H11R76596   8.169   3.193  12.426
11799POPC  H11S76597   8.204   3.365  12.401
11799POPC  C21276598   8.374   3.232  12.363
11799POPC  H12R76599   8.423   3.274  12.272
11799POPC  H12S76600   8.388   3.122  12.357
11799POPC  C21376601   8.455   3.286  12.484
11799POPC  H13R76602   8.562   3.272  12.458
11799POPC  H13S76603   8.436   3.232  12.578
11799POPC  C21476604   8.438   3.435  12.516
11799POPC  H14R76605   8.516   3.465  12.590
11799POPC  H14S76606   8.339   3.452  12.564
11799POPC  C21576607   8.452   3.520  12.391
11799POPC  H15R76608   8.364   3.499  12.329
11799POPC  H15S76609   8.542   3.488  12.334
11799POPC  C21676610   8.458   3.669  12.418
11799POPC  H16R76611   8.478   3.724  12.323
11799POPC  H16S76612   8.546   3.683  12.483
11799POPC  C21776613   8.329   3.723  12.479
11799POPC  H17R76614   8.313   3.679  12.580
11799POPC  H17S76615   8.245   3.688  12.414
11799POPC  C21876616   8.322   3.876  12.487
11799POPC  H18R76617   8.356   3.910  12.587
11799POPC  H18S76618   8.218   3.911  12.473
11799POPC  H18T76619   8.385   3.923  12.409
11799POPC   C3376620   8.062   3.838  11.654
11799POPC   H3X76621   8.127   3.839  11.745
11799POPC   H3Y76622   8.083   3.746  11.595
11799POPC   C3476623   7.916   3.829  11.699
11799POPC   H4X76624   7.852   3.812  11.610
11799POPC   H4Y76625   7.886   3.925  11.747
11799POPC   C3576626   7.892   3.715  11.800
11799POPC   H5X76627   7.960   3.730  11.887
11799POPC   H5Y76628   7.919   3.618  11.753
11799POPC   C3676629   7.747   3.710  11.850
11799POPC   H6X76630   7.682   3.685  11.763
11799POPC   H6Y76631   7.718   3.810  11.887
11799POPC   C3776632   7.722   3.607  11.961
11799POPC   H7X76633   7.761   3.507  11.929
11799POPC   H7Y76634   7.612   3.597  11.975
11799POPC   C3876635   7.785   3.644  12.096
11799POPC   H8X76636   7.746   3.743  12.129
11799POPC   H8Y76637   7.895   3.652  12.086
11799POPC   C3976638   7.752   3.538  12.202
11799POPC   H9X76639   7.806   3.445  12.174
11799POPC   H9Y76640   7.642   3.517  12.199
11799POPC  C31076641   7.789   3.576  12.345
11799POPC  H10X76642   7.738   3.507  12.416
11799POPC  H10Y76643   7.751   3.679  12.366
11799POPC  C31176644   7.940   3.567  12.371
11799POPC  H11X76645   7.993   3.641  12.308
11799POPC  H11Y76646   7.974   3.465  12.340
11799POPC  C31276647   7.980   3.586  12.518
11799POPC  H12X76648   8.088   3.563  12.531
11799POPC  H12Y76649   7.923   3.514  12.580
11799POPC  C31376650   7.954   3.729  12.567
11799POPC  H13X76651   7.854   3.762  12.531
11799POPC  H13Y76652   8.029   3.799  12.525
11799POPC  C31476653   7.949   3.739  12.720
11799POPC  H14X76654   7.885   3.657  12.760
11799POPC  H14Y76655   7.900   3.836  12.747
11799POPC  C31576656   8.085   3.734  12.789
11799POPC  H15X76657   8.148   3.819  12.753
11799POPC  H15Y76658   8.138   3.640  12.764
11799POPC  C31676659   8.065   3.744  12.940
11799POPC  H16X76660   8.006   3.835  12.965
11799POPC  H16Y76661   8.161   3.750  12.993
11799POPC  H16Z76662   8.009   3.657  12.979
11800POPC     N76663   1.197   5.540  10.653
11800POPC   C1276664   1.256   5.465  10.773
11800POPC  H12A76665   1.307   5.538  10.835
11800POPC  H12B76666   1.329   5.394  10.737
11800POPC   C1376667   1.114   5.655  10.706
11800POPC  H13A76668   1.024   5.617  10.752
11800POPC  H13B76669   1.166   5.705  10.788
11800POPC  H13C76670   1.089   5.726  10.628
11800POPC   C1476671   1.309   5.592  10.567
11800POPC  H14A76672   1.364   5.511  10.521
11800POPC  H14B76673   1.272   5.656  10.488
11800POPC  H14C76674   1.380   5.650  10.625
11800POPC   C1576675   1.110   5.449  10.572
11800POPC  H15A76676   1.033   5.407  10.635
11800POPC  H15B76677   1.167   5.366  10.529
11800POPC  H15C76678   1.061   5.500  10.490
11800POPC   C1176679   1.160   5.391  10.870
11800POPC  H11A76680   1.220   5.326  10.937
11800POPC  H11B76681   1.092   5.324  10.814
11800POPC     P76682   1.149   5.563  11.065
11800POPC   O1376683   1.224   5.674  10.999
11800POPC   O1476684   1.225   5.466  11.147
11800POPC   O1276685   1.082   5.483  10.945
11800POPC   O1176686   1.017   5.613  11.138
11800POPC    C176687   0.899   5.630  11.056
11800POPC    HA76688   0.858   5.533  11.022
11800POPC    HB76689   0.924   5.688  10.964
11800POPC    C276690   0.783   5.711  11.122
11800POPC    HS76691   0.725   5.762  11.041
11800POPC   O2176692   0.833   5.810  11.212
11800POPC   C2176693   0.924   5.892  11.165
11800POPC   O2276694   0.950   5.915  11.049
11800POPC   C2276695   0.988   5.966  11.281
11800POPC   H2R76696   0.934   5.942  11.375
11800POPC   H2S76697   0.981   6.075  11.261
11800POPC    C376698   0.680   5.621  11.199
11800POPC    HX76699   0.615   5.574  11.122
11800POPC    HY76700   0.613   5.685  11.260
11800POPC   O3176701   0.742   5.514  11.275
11800POPC   C3176702   0.781   5.550  11.397
11800POPC   O3276703   0.744   5.650  11.455
11800POPC   C3276704   0.881   5.449  11.453
11800POPC   H2X76705   0.980   5.468  11.406
11800POPC   H2Y76706   0.847   5.347  11.425
11800POPC   C2376707   1.134   5.920  11.289
11800POPC   H3R76708   1.183   5.924  11.189
11800POPC   H3S76709   1.134   5.812  11.320
11800POPC   C2476710   1.218   6.000  11.388
11800POPC   H4R76711   1.157   6.023  11.478
11800POPC   H4S76712   1.247   6.096  11.339
11800POPC   C2576713   1.342   5.920  11.430
11800POPC   H5R76714   1.420   5.990  11.466
11800POPC   H5S76715   1.384   5.867  11.341
11800POPC   C2676716   1.314   5.820  11.543
11800POPC   H6R76717   1.251   5.737  11.504
11800POPC   H6S76718   1.257   5.871  11.624
11800POPC   C2776719   1.444   5.765  11.602
11800POPC   H7R76720   1.504   5.851  11.639
11800POPC   H7S76721   1.503   5.715  11.521
11800POPC   C2876722   1.420   5.665  11.716
11800POPC   H8R76723   1.370   5.575  11.674
11800POPC   H8S76724   1.348   5.712  11.787
11800POPC   C2976725   1.548   5.629  11.787
11800POPC   H9176726   1.641   5.654  11.734
11800POPC  C21076727   1.553   5.569  11.907
11800POPC  H10176728   1.652   5.549  11.953
11800POPC  C21176729   1.433   5.528  11.988
11800POPC  H11R76730   1.452   5.432  12.041
11800POPC  H11S76731   1.345   5.510  11.923
11800POPC  C21276732   1.394   5.636  12.091
11800POPC  H12R76733   1.385   5.735  12.041
11800POPC  H12S76734   1.474   5.643  12.169
11800POPC  C21376735   1.259   5.603  12.157
11800POPC  H13R76736   1.266   5.506  12.210
11800POPC  H13S76737   1.182   5.592  12.078
11800POPC  C21476738   1.212   5.711  12.256
11800POPC  H14R76739   1.112   5.681  12.294
11800POPC  H14S76740   1.199   5.808  12.203
11800POPC  C21576741   1.305   5.729  12.375
11800POPC  H15R76742   1.399   5.779  12.343
11800POPC  H15S76743   1.331   5.628  12.414
11800POPC  C21676744   1.239   5.811  12.488
11800POPC  H16R76745   1.152   5.753  12.526
11800POPC  H16S76746   1.200   5.907  12.448
11800POPC  C21776747   1.334   5.839  12.606
11800POPC  H17R76748   1.273   5.872  12.693
11800POPC  H17S76749   1.403   5.921  12.579
11800POPC  C21876750   1.416   5.717  12.646
11800POPC  H18R76751   1.351   5.628  12.657
11800POPC  H18S76752   1.470   5.735  12.741
11800POPC  H18T76753   1.492   5.694  12.568
11800POPC   C3376754   0.892   5.458  11.608
11800POPC   H3X76755   0.938   5.364  11.646
11800POPC   H3Y76756   0.789   5.464  11.649
11800POPC   C3476757   0.978   5.576  11.656
11800POPC   H4X76758   0.940   5.670  11.610
11800POPC   H4Y76759   1.083   5.562  11.622
11800POPC   C3576760   0.977   5.595  11.808
11800POPC   H5X76761   1.043   5.681  11.834
11800POPC   H5Y76762   1.018   5.505  11.858
11800POPC   C3676763   0.837   5.624  11.863
11800POPC   H6X76764   0.769   5.539  11.844
11800POPC   H6Y76765   0.795   5.713  11.810
11800POPC   C3776766   0.838   5.651  12.013
11800POPC   H7X76767   0.913   5.731  12.036
11800POPC   H7Y76768   0.870   5.559  12.067
11800POPC   C3876769   0.701   5.695  12.062
11800POPC   H8X76770   0.627   5.613  12.052
11800POPC   H8Y76771   0.666   5.780  11.998
11800POPC   C3976772   0.704   5.743  12.207
11800POPC   H9X76773   0.605   5.790  12.226
11800POPC   H9Y76774   0.783   5.819  12.221
11800POPC  C31076775   0.720   5.632  12.309
11800POPC  H10X76776   0.681   5.538  12.267
11800POPC  H10Y76777   0.659   5.657  12.399
11800POPC  C31176778   0.862   5.607  12.357
11800POPC  H11X76779   0.907   5.703  12.389
11800POPC  H11Y76780   0.925   5.566  12.275
11800POPC  C31276781   0.864   5.510  12.474
11800POPC  H12X76782   0.846   5.406  12.440
11800POPC  H12Y76783   0.783   5.537  12.546
11800POPC  C31376784   0.997   5.520  12.547
11800POPC  H13X76785   1.002   5.622  12.589
11800POPC  H13Y76786   1.082   5.509  12.476
11800POPC  C31476787   1.008   5.422  12.661
11800POPC  H14X76788   1.024   5.319  12.622
11800POPC  H14Y76789   0.913   5.422  12.719
11800POPC  C31576790   1.122   5.463  12.753
11800POPC  H15X76791   1.123   5.574  12.765
11800POPC  H15Y76792   1.218   5.433  12.705
11800POPC  C31676793   1.107   5.400  12.890
11800POPC  H16X76794   1.185   5.433  12.959
11800POPC  H16Y76795   1.112   5.290  12.882
11800POPC  H16Z76796   1.010   5.431  12.934
11801POPC     N76797   7.154   2.246  11.020
11801POPC   C1276798   7.236   2.122  10.985
11801POPC  H12A76799   7.167   2.037  10.979
11801POPC  H12B76800   7.306   2.101  11.064
11801POPC   C1376801   7.226   2.368  10.970
11801POPC  H13A76802   7.250   2.350  10.865
11801POPC  H13B76803   7.165   2.457  10.973
11801POPC  H13C76804   7.319   2.384  11.023
11801POPC   C1476805   7.023   2.237  10.947
11801POPC  H14A76806   7.040   2.213  10.842
11801POPC  H14B76807   6.958   2.159  10.985
11801POPC  H14C76808   6.968   2.330  10.949
11801POPC   C1576809   7.132   2.254  11.167
11801POPC  H15A76810   7.226   2.268  11.220
11801POPC  H15B76811   7.085   2.164  11.207
11801POPC  H15C76812   7.068   2.339  11.190
11801POPC   C1176813   7.313   2.121  10.849
11801POPC  H11A76814   7.365   2.023  10.840
11801POPC  H11B76815   7.393   2.198  10.851
11801POPC     P76816   7.142   2.025  10.679
11801POPC   O1376817   7.235   1.926  10.618
11801POPC   O1476818   7.027   2.078  10.600
11801POPC   O1276819   7.227   2.146  10.737
11801POPC   O1176820   7.088   1.965  10.815
11801POPC    C176821   6.963   1.903  10.839
11801POPC    HA76822   6.934   1.841  10.751
11801POPC    HB76823   6.884   1.980  10.853
11801POPC    C276824   6.969   1.810  10.964
11801POPC    HS76825   6.878   1.747  10.955
11801POPC   O2176826   6.968   1.886  11.087
11801POPC   C2176827   6.913   1.823  11.192
11801POPC   O2276828   6.863   1.712  11.188
11801POPC   C2276829   6.925   1.914  11.314
11801POPC   H2R76830   6.932   2.019  11.279
11801POPC   H2S76831   7.020   1.887  11.366
11801POPC    C376832   7.095   1.716  10.962
11801POPC    HX76833   7.101   1.675  10.859
11801POPC    HY76834   7.070   1.631  11.029
11801POPC   O3176835   7.223   1.776  10.993
11801POPC   C3176836   7.274   1.744  11.112
11801POPC   O3276837   7.217   1.680  11.199
11801POPC   C3276838   7.422   1.785  11.116
11801POPC   H2X76839   7.442   1.857  11.034
11801POPC   H2Y76840   7.481   1.693  11.096
11801POPC   C2376841   6.805   1.903  11.411
11801POPC   H3R76842   6.791   1.797  11.444
11801POPC   H3S76843   6.713   1.933  11.357
11801POPC   C2476844   6.817   1.992  11.536
11801POPC   H4R76845   6.723   1.980  11.595
11801POPC   H4S76846   6.821   2.099  11.504
11801POPC   C2576847   6.935   1.963  11.629
11801POPC   H5R76848   6.928   2.030  11.718
11801POPC   H5S76849   7.031   1.987  11.578
11801POPC   C2676850   6.941   1.817  11.679
11801POPC   H6R76851   6.960   1.750  11.592
11801POPC   H6S76852   6.843   1.790  11.724
11801POPC   C2776853   7.053   1.795  11.781
11801POPC   H7R76854   7.043   1.868  11.865
11801POPC   H7S76855   7.147   1.818  11.728
11801POPC   C2876856   7.063   1.652  11.836
11801POPC   H8R76857   7.163   1.640  11.883
11801POPC   H8S76858   7.061   1.581  11.750
11801POPC   C2976859   6.950   1.624  11.932
11801POPC   H9176860   6.851   1.624  11.885
11801POPC  C21076861   6.960   1.597  12.064
11801POPC  H10176862   6.867   1.581  12.121
11801POPC  C21176863   7.086   1.590  12.146
11801POPC  H11R76864   7.176   1.577  12.081
11801POPC  H11S76865   7.084   1.501  12.213
11801POPC  C21276866   7.108   1.716  12.231
11801POPC  H12R76867   7.095   1.805  12.165
11801POPC  H12S76868   7.214   1.720  12.265
11801POPC  C21376869   7.014   1.730  12.352
11801POPC  H13R76870   6.908   1.724  12.317
11801POPC  H13S76871   7.029   1.831  12.396
11801POPC  C21476872   7.036   1.626  12.464
11801POPC  H14R76873   7.014   1.524  12.425
11801POPC  H14S76874   6.963   1.646  12.546
11801POPC  C21576875   7.178   1.629  12.522
11801POPC  H15R76876   7.200   1.728  12.565
11801POPC  H15S76877   7.251   1.612  12.439
11801POPC  C21676878   7.208   1.520  12.626
11801POPC  H16R76879   7.314   1.530  12.657
11801POPC  H16S76880   7.195   1.423  12.575
11801POPC  C21776881   7.119   1.513  12.750
11801POPC  H17R76882   7.018   1.478  12.719
11801POPC  H17S76883   7.109   1.614  12.794
11801POPC  C21876884   7.177   1.414  12.852
11801POPC  H18R76885   7.270   1.455  12.898
11801POPC  H18S76886   7.201   1.317  12.804
11801POPC  H18T76887   7.105   1.394  12.934
11801POPC   C3376888   7.467   1.844  11.252
11801POPC   H3X76889   7.579   1.849  11.253
11801POPC   H3Y76890   7.438   1.778  11.336
11801POPC   C3476891   7.414   1.987  11.274
11801POPC   H4X76892   7.303   1.986  11.260
11801POPC   H4Y76893   7.458   2.052  11.195
11801POPC   C3576894   7.445   2.048  11.411
11801POPC   H5X76895   7.415   2.155  11.408
11801POPC   H5Y76896   7.554   2.045  11.431
11801POPC   C3676897   7.370   1.983  11.529
11801POPC   H6X76898   7.418   1.886  11.552
11801POPC   H6Y76899   7.264   1.961  11.500
11801POPC   C3776900   7.370   2.074  11.653
11801POPC   H7X76901   7.291   2.152  11.640
11801POPC   H7Y76902   7.467   2.128  11.658
11801POPC   C3876903   7.349   2.004  11.788
11801POPC   H8X76904   7.447   1.994  11.839
11801POPC   H8Y76905   7.314   1.900  11.775
11801POPC   C3976906   7.261   2.081  11.886
11801POPC   H9X76907   7.154   2.062  11.861
11801POPC   H9Y76908   7.279   2.190  11.876
11801POPC  C31076909   7.290   2.040  12.032
11801POPC  H10X76910   7.381   2.093  12.067
11801POPC  H10Y76911   7.312   1.931  12.036
11801POPC  C31176912   7.172   2.068  12.126
11801POPC  H11X76913   7.199   2.040  12.230
11801POPC  H11Y76914   7.087   2.003  12.094
11801POPC  C31276915   7.122   2.213  12.122
11801POPC  H12X76916   7.025   2.219  12.176
11801POPC  H12Y76917   7.102   2.243  12.017
11801POPC  C31376918   7.218   2.314  12.186
11801POPC  H13X76919   7.183   2.417  12.162
11801POPC  H13Y76920   7.320   2.303  12.143
11801POPC  C31476921   7.225   2.298  12.338
11801POPC  H14X76922   7.283   2.206  12.362
11801POPC  H14Y76923   7.122   2.282  12.378
11801POPC  C31576924   7.287   2.418  12.411
11801POPC  H15X76925   7.206   2.491  12.433
11801POPC  H15Y76926   7.359   2.468  12.343
11801POPC  C31676927   7.358   2.377  12.539
11801POPC  H16X76928   7.394   2.466  12.595
11801POPC  H16Y76929   7.445   2.312  12.515
11801POPC  H16Z76930   7.289   2.319  12.605
11802POPC     N76931   2.316   7.792  10.851
11802POPC   C1276932   2.207   7.692  10.815
11802POPC  H12A76933   2.194   7.693  10.707
11802POPC  H12B76934   2.114   7.722  10.862
11802POPC   C1376935   2.344   7.789  10.998
11802POPC  H13A76936   2.420   7.861  11.026
11802POPC  H13B76937   2.256   7.805  11.058
11802POPC  H13C76938   2.384   7.690  11.025
11802POPC   C1476939   2.440   7.752  10.778
11802POPC  H14A76940   2.424   7.747  10.670
11802POPC  H14B76941   2.522   7.817  10.799
11802POPC  H14C76942   2.467   7.650  10.807
11802POPC   C1576943   2.279   7.929  10.803
11802POPC  H15A76944   2.175   7.951  10.819
11802POPC  H15B76945   2.299   7.937  10.697
11802POPC  H15C76946   2.341   8.003  10.851
11802POPC   C1176947   2.234   7.544  10.848
11802POPC  H11A76948   2.138   7.489  10.839
11802POPC  H11B76949   2.263   7.538  10.956
11802POPC     P76950   2.424   7.376  10.820
11802POPC   O1376951   2.511   7.311  10.718
11802POPC   O1476952   2.337   7.296  10.909
11802POPC   O1276953   2.329   7.486  10.756
11802POPC   O1176954   2.506   7.486  10.900
11802POPC    C176955   2.634   7.459  10.953
11802POPC    HA76956   2.707   7.534  10.916
11802POPC    HB76957   2.673   7.359  10.921
11802POPC    C276958   2.636   7.459  11.108
11802POPC    HS76959   2.735   7.410  11.128
11802POPC   O2176960   2.519   7.389  11.161
11802POPC   C2176961   2.556   7.306  11.257
11802POPC   O2276962   2.671   7.290  11.292
11802POPC   C2276963   2.437   7.228  11.316
11802POPC   H2R76964   2.388   7.175  11.231
11802POPC   H2S76965   2.363   7.296  11.359
11802POPC    C376966   2.643   7.601  11.174
11802POPC    HX76967   2.693   7.669  11.102
11802POPC    HY76968   2.712   7.592  11.261
11802POPC   O3176969   2.514   7.657  11.209
11802POPC   C3176970   2.474   7.626  11.334
11802POPC   O3276971   2.545   7.581  11.421
11802POPC   C3276972   2.324   7.642  11.344
11802POPC   H2X76973   2.280   7.608  11.248
11802POPC   H2Y76974   2.299   7.748  11.360
11802POPC   C2376975   2.482   7.126  11.425
11802POPC   H3R76976   2.583   7.087  11.399
11802POPC   H3S76977   2.413   7.040  11.423
11802POPC   C2476978   2.486   7.177  11.570
11802POPC   H4R76979   2.383   7.199  11.605
11802POPC   H4S76980   2.546   7.272  11.573
11802POPC   C2576981   2.553   7.076  11.666
11802POPC   H5R76982   2.664   7.083  11.654
11802POPC   H5S76983   2.523   6.972  11.639
11802POPC   C2676984   2.524   7.099  11.814
11802POPC   H6R76985   2.586   7.030  11.876
11802POPC   H6S76986   2.417   7.071  11.829
11802POPC   C2776987   2.550   7.244  11.860
11802POPC   H7R76988   2.490   7.314  11.798
11802POPC   H7S76989   2.657   7.268  11.844
11802POPC   C2876990   2.514   7.271  12.007
11802POPC   H8R76991   2.508   7.381  12.024
11802POPC   H8S76992   2.601   7.235  12.068
11802POPC   C2976993   2.385   7.203  12.044
11802POPC   H9176994   2.303   7.211  11.970
11802POPC  C21076995   2.362   7.138  12.159
11802POPC  H10176996   2.263   7.094  12.179
11802POPC  C21176997   2.465   7.126  12.268
11802POPC  H11R76998   2.569   7.120  12.231
11802POPC  H11S76999   2.449   7.034  12.329
11802POPC  C21277000   2.448   7.250  12.358
11802POPC  H12R77001   2.415   7.340  12.302
11802POPC  H12S77002   2.547   7.273  12.403
11802POPC  C21377003   2.343   7.213  12.462
11802POPC  H13R77004   2.387   7.132  12.522
11802POPC  H13S77005   2.258   7.177  12.401
11802POPC  C21477006   2.279   7.310  12.561
11802POPC  H14R77007   2.220   7.387  12.507
11802POPC  H14S77008   2.352   7.361  12.626
11802POPC  C21577009   2.189   7.219  12.647
11802POPC  H15R77010   2.254   7.148  12.704
11802POPC  H15S77011   2.128   7.158  12.577
11802POPC  C21677012   2.090   7.288  12.739
11802POPC  H16R77013   2.000   7.224  12.750
11802POPC  H16S77014   2.058   7.379  12.685
11802POPC  C21777015   2.145   7.316  12.878
11802POPC  H17R77016   2.083   7.390  12.931
11802POPC  H17S77017   2.244   7.364  12.870
11802POPC  C21877018   2.153   7.188  12.963
11802POPC  H18R77019   2.198   7.209  13.061
11802POPC  H18S77020   2.215   7.112  12.911
11802POPC  H18T77021   2.051   7.145  12.978
11802POPC   C3377022   2.267   7.553  11.456
11802POPC   H3X77023   2.309   7.451  11.453
11802POPC   H3Y77024   2.158   7.545  11.440
11802POPC   C3477025   2.285   7.606  11.598
11802POPC   H4X77026   2.392   7.632  11.616
11802POPC   H4Y77027   2.260   7.525  11.670
11802POPC   C3577028   2.193   7.725  11.624
11802POPC   H5X77029   2.091   7.702  11.585
11802POPC   H5Y77030   2.233   7.813  11.568
11802POPC   C3677031   2.183   7.761  11.771
11802POPC   H6X77032   2.135   7.678  11.827
11802POPC   H6Y77033   2.119   7.851  11.783
11802POPC   C3777034   2.322   7.787  11.830
11802POPC   H7X77035   2.378   7.857  11.764
11802POPC   H7Y77036   2.377   7.691  11.830
11802POPC   C3877037   2.317   7.843  11.971
11802POPC   H8X77038   2.253   7.778  12.035
11802POPC   H8Y77039   2.273   7.945  11.969
11802POPC   C3977040   2.456   7.848  12.033
11802POPC   H9X77041   2.453   7.907  12.127
11802POPC   H9Y77042   2.528   7.898  11.963
11802POPC  C31077043   2.508   7.709  12.067
11802POPC  H10X77044   2.512   7.642  11.979
11802POPC  H10Y77045   2.437   7.665  12.140
11802POPC  C31177046   2.648   7.720  12.126
11802POPC  H11X77047   2.648   7.799  12.205
11802POPC  H11Y77048   2.716   7.753  12.044
11802POPC  C31277049   2.703   7.592  12.184
11802POPC  H12X77050   2.802   7.614  12.230
11802POPC  H12Y77051   2.719   7.518  12.102
11802POPC  C31377052   2.611   7.530  12.289
11802POPC  H13X77053   2.654   7.432  12.319
11802POPC  H13Y77054   2.513   7.508  12.243
11802POPC  C31477055   2.592   7.617  12.414
11802POPC  H14X77056   2.550   7.717  12.387
11802POPC  H14Y77057   2.690   7.633  12.463
11802POPC  C31577058   2.497   7.549  12.511
11802POPC  H15X77059   2.531   7.444  12.520
11802POPC  H15Y77060   2.394   7.547  12.468
11802POPC  C31677061   2.495   7.606  12.652
11802POPC  H16X77062   2.431   7.544  12.719
11802POPC  H16Y77063   2.458   7.710  12.653
11802POPC  H16Z77064   2.598   7.603  12.692
11803POPC     N77065   1.144   6.321  10.876
11803POPC   C1277066   1.243   6.296  10.988
11803POPC  H12A77067   1.208   6.211  11.046
11803POPC  H12B77068   1.244   6.383  11.054
11803POPC   C1377069   1.159   6.216  10.772
11803POPC  H13A77070   1.077   6.219  10.701
11803POPC  H13B77071   1.255   6.226  10.723
11803POPC  H13C77072   1.157   6.118  10.819
11803POPC   C1477073   1.005   6.321  10.927
11803POPC  H14A77074   0.977   6.231  10.980
11803POPC  H14B77075   0.982   6.407  10.989
11803POPC  H14C77076   0.935   6.324  10.843
11803POPC   C1577077   1.172   6.457  10.820
11803POPC  H15A77078   1.148   6.532  10.894
11803POPC  H15B77079   1.119   6.478  10.730
11803POPC  H15C77080   1.279   6.465  10.800
11803POPC   C1177081   1.390   6.268  10.945
11803POPC  H11A77082   1.394   6.165  10.905
11803POPC  H11B77083   1.453   6.267  11.037
11803POPC     P77084   1.535   6.476  10.885
11803POPC   O1377085   1.529   6.589  10.790
11803POPC   O1477086   1.667   6.417  10.915
11803POPC   O1277087   1.436   6.360  10.844
11803POPC   O1177088   1.475   6.528  11.022
11803POPC    C177089   1.558   6.628  11.087
11803POPC    HA77090   1.583   6.713  11.018
11803POPC    HB77091   1.654   6.583  11.119
11803POPC    C277092   1.483   6.691  11.207
11803POPC    HS77093   1.549   6.766  11.257
11803POPC   O2177094   1.442   6.591  11.302
11803POPC   C2177095   1.542   6.520  11.350
11803POPC   O2277096   1.660   6.551  11.348
11803POPC   C2277097   1.487   6.389  11.403
11803POPC   H2R77098   1.524   6.308  11.337
11803POPC   H2S77099   1.376   6.391  11.399
11803POPC    C377100   1.358   6.765  11.152
11803POPC    HX77101   1.300   6.694  11.089
11803POPC    HY77102   1.396   6.846  11.086
11803POPC   O3177103   1.280   6.823  11.258
11803POPC   C3177104   1.191   6.742  11.313
11803POPC   O3277105   1.146   6.641  11.261
11803POPC   C3277106   1.153   6.801  11.449
11803POPC   H2X77107   1.068   6.871  11.435
11803POPC   H2Y77108   1.240   6.860  11.485
11803POPC   C2377109   1.532   6.364  11.548
11803POPC   H3R77110   1.495   6.447  11.613
11803POPC   H3S77111   1.643   6.362  11.554
11803POPC   C2477112   1.477   6.230  11.597
11803POPC   H4R77113   1.510   6.153  11.524
11803POPC   H4S77114   1.366   6.234  11.597
11803POPC   C2577115   1.525   6.186  11.735
11803POPC   H5R77116   1.634   6.165  11.734
11803POPC   H5S77117   1.473   6.091  11.761
11803POPC   C2677118   1.495   6.289  11.844
11803POPC   H6R77119   1.471   6.232  11.936
11803POPC   H6S77120   1.404   6.348  11.818
11803POPC   C2777121   1.613   6.384  11.872
11803POPC   H7R77122   1.638   6.443  11.781
11803POPC   H7S77123   1.702   6.324  11.897
11803POPC   C2877124   1.582   6.483  11.985
11803POPC   H8R77125   1.505   6.554  11.948
11803POPC   H8S77126   1.673   6.544  12.005
11803POPC   C2977127   1.534   6.409  12.106
11803POPC   H9177128   1.426   6.412  12.121
11803POPC  C21077129   1.609   6.346  12.197
11803POPC  H10177130   1.561   6.298  12.284
11803POPC  C21177131   1.759   6.340  12.193
11803POPC  H11R77132   1.797   6.327  12.089
11803POPC  H11S77133   1.799   6.257  12.255
11803POPC  C21277134   1.807   6.474  12.250
11803POPC  H12R77135   1.759   6.559  12.197
11803POPC  H12S77136   1.917   6.483  12.235
11803POPC  C21377137   1.775   6.488  12.399
11803POPC  H13R77138   1.815   6.397  12.449
11803POPC  H13S77139   1.665   6.485  12.415
11803POPC  C21477140   1.838   6.614  12.459
11803POPC  H14R77141   1.897   6.659  12.379
11803POPC  H14S77142   1.918   6.591  12.530
11803POPC  C21577143   1.745   6.729  12.503
11803POPC  H15R77144   1.758   6.810  12.428
11803POPC  H15S77145   1.780   6.770  12.601
11803POPC  C21677146   1.594   6.706  12.508
11803POPC  H16R77147   1.553   6.660  12.416
11803POPC  H16S77148   1.549   6.807  12.517
11803POPC  C21777149   1.544   6.637  12.633
11803POPC  H17R77150   1.602   6.684  12.717
11803POPC  H17S77151   1.569   6.529  12.632
11803POPC  C21877152   1.394   6.662  12.650
11803POPC  H18R77153   1.373   6.771  12.658
11803POPC  H18S77154   1.354   6.615  12.741
11803POPC  H18T77155   1.338   6.622  12.563
11803POPC   C3377156   1.118   6.697  11.558
11803POPC   H3X77157   1.178   6.604  11.545
11803POPC   H3Y77158   1.011   6.670  11.546
11803POPC   C3477159   1.141   6.751  11.700
11803POPC   H4X77160   1.079   6.690  11.770
11803POPC   H4Y77161   1.104   6.856  11.705
11803POPC   C3577162   1.288   6.746  11.748
11803POPC   H5X77163   1.352   6.792  11.669
11803POPC   H5Y77164   1.319   6.640  11.759
11803POPC   C3677165   1.314   6.821  11.880
11803POPC   H6X77166   1.285   6.927  11.864
11803POPC   H6Y77167   1.422   6.819  11.905
11803POPC   C3777168   1.232   6.769  12.000
11803POPC   H7X77169   1.132   6.744  11.963
11803POPC   H7Y77170   1.223   6.853  12.074
11803POPC   C3877171   1.289   6.647  12.073
11803POPC   H8X77172   1.397   6.669  12.091
11803POPC   H8Y77173   1.282   6.557  12.008
11803POPC   C3977174   1.229   6.617  12.213
11803POPC   H9X77175   1.230   6.711  12.272
11803POPC   H9Y77176   1.299   6.547  12.264
11803POPC  C31077177   1.088   6.554  12.223
11803POPC  H10X77178   1.011   6.630  12.201
11803POPC  H10Y77179   1.070   6.528  12.329
11803POPC  C31177180   1.058   6.432  12.133
11803POPC  H11X77181   1.064   6.464  12.027
11803POPC  H11Y77182   0.953   6.400  12.153
11803POPC  C31277183   1.149   6.310  12.155
11803POPC  H12X77184   1.251   6.340  12.126
11803POPC  H12Y77185   1.120   6.228  12.085
11803POPC  C31377186   1.149   6.257  12.299
11803POPC  H13X77187   1.061   6.191  12.316
11803POPC  H13Y77188   1.137   6.343  12.368
11803POPC  C31477189   1.278   6.185  12.338
11803POPC  H14X77190   1.364   6.228  12.282
11803POPC  H14Y77191   1.272   6.078  12.310
11803POPC  C31577192   1.308   6.200  12.488
11803POPC  H15X77193   1.387   6.127  12.517
11803POPC  H15Y77194   1.216   6.175  12.545
11803POPC  C31677195   1.356   6.340  12.526
11803POPC  H16X77196   1.463   6.354  12.500
11803POPC  H16Y77197   1.344   6.358  12.635
11803POPC  H16Z77198   1.298   6.420  12.475
11804POPC     N77199   8.221   5.498  10.994
11804POPC   C1277200   8.227   5.350  11.030
11804POPC  H12A77201   8.190   5.335  11.131
11804POPC  H12B77202   8.331   5.318  11.031
11804POPC   C1377203   8.289   5.511  10.862
11804POPC  H13A77204   8.243   5.440  10.793
11804POPC  H13B77205   8.285   5.608  10.817
11804POPC  H13C77206   8.392   5.478  10.868
11804POPC   C1477207   8.079   5.543  10.978
11804POPC  H14A77208   8.076   5.648  10.952
11804POPC  H14B77209   8.031   5.485  10.900
11804POPC  H14C77210   8.021   5.529  11.069
11804POPC   C1577211   8.289   5.583  11.096
11804POPC  H15A77212   8.239   5.579  11.192
11804POPC  H15B77213   8.291   5.686  11.063
11804POPC  H15C77214   8.392   5.550  11.112
11804POPC   C1177215   8.155   5.250  10.934
11804POPC  H11A77216   8.047   5.277  10.927
11804POPC  H11B77217   8.158   5.148  10.979
11804POPC     P77218   8.341   5.162  10.775
11804POPC   O1377219   8.418   5.210  10.659
11804POPC   O1477220   8.297   5.020  10.774
11804POPC   O1277221   8.211   5.251  10.801
11804POPC   O1177222   8.425   5.188  10.907
11804POPC    C177223   8.545   5.109  10.916
11804POPC    HA77224   8.607   5.116  10.823
11804POPC    HB77225   8.520   5.002  10.932
11804POPC    C277226   8.632   5.163  11.032
11804POPC    HS77227   8.723   5.101  11.045
11804POPC   O2177228   8.557   5.167  11.154
11804POPC   C2177229   8.522   5.047  11.193
11804POPC   O2277230   8.580   4.943  11.161
11804POPC   C2277231   8.401   5.059  11.284
11804POPC   H2R77232   8.323   5.117  11.232
11804POPC   H2S77233   8.434   5.118  11.372
11804POPC    C377234   8.678   5.305  10.995
11804POPC    HX77235   8.589   5.363  10.961
11804POPC    HY77236   8.744   5.293  10.906
11804POPC   O3177237   8.751   5.370  11.101
11804POPC   C3177238   8.674   5.437  11.189
11804POPC   O3277239   8.554   5.454  11.176
11804POPC   C3277240   8.758   5.496  11.299
11804POPC   H2X77241   8.773   5.603  11.279
11804POPC   H2Y77242   8.856   5.445  11.303
11804POPC   C2377243   8.346   4.923  11.332
11804POPC   H3R77244   8.430   4.854  11.358
11804POPC   H3S77245   8.288   4.876  11.249
11804POPC   C2477246   8.257   4.935  11.456
11804POPC   H4R77247   8.313   4.979  11.541
11804POPC   H4S77248   8.233   4.831  11.485
11804POPC   C2577249   8.128   5.016  11.432
11804POPC   H5R77250   8.042   4.974  11.488
11804POPC   H5S77251   8.103   5.011  11.324
11804POPC   C2677252   8.139   5.162  11.478
11804POPC   H6R77253   8.247   5.191  11.478
11804POPC   H6S77254   8.103   5.172  11.582
11804POPC   C2777255   8.062   5.257  11.385
11804POPC   H7R77256   7.955   5.228  11.385
11804POPC   H7S77257   8.101   5.245  11.282
11804POPC   C2877258   8.074   5.404  11.428
11804POPC   H8R77259   8.026   5.415  11.528
11804POPC   H8S77260   8.014   5.465  11.357
11804POPC   C2977261   8.217   5.452  11.428
11804POPC   H9177262   8.264   5.457  11.330
11804POPC  C21077263   8.293   5.476  11.536
11804POPC  H10177264   8.398   5.506  11.522
11804POPC  C21177265   8.254   5.459  11.681
11804POPC  H11R77266   8.275   5.355  11.713
11804POPC  H11S77267   8.145   5.477  11.698
11804POPC  C21277268   8.335   5.554  11.770
11804POPC  H12R77269   8.309   5.660  11.749
11804POPC  H12S77270   8.444   5.541  11.749
11804POPC  C21377271   8.312   5.524  11.918
11804POPC  H13R77272   8.324   5.414  11.934
11804POPC  H13S77273   8.207   5.550  11.945
11804POPC  C21477274   8.411   5.596  12.010
11804POPC  H14R77275   8.398   5.706  12.004
11804POPC  H14S77276   8.514   5.572  11.975
11804POPC  C21577277   8.400   5.548  12.155
11804POPC  H15R77278   8.483   5.589  12.216
11804POPC  H15S77279   8.411   5.438  12.153
11804POPC  C21677280   8.267   5.581  12.224
11804POPC  H16R77281   8.181   5.558  12.157
11804POPC  H16S77282   8.263   5.689  12.249
11804POPC  C21777283   8.250   5.497  12.351
11804POPC  H17R77284   8.346   5.496  12.407
11804POPC  H17S77285   8.228   5.392  12.320
11804POPC  C21877286   8.137   5.544  12.442
11804POPC  H18R77287   8.163   5.644  12.484
11804POPC  H18S77288   8.121   5.474  12.526
11804POPC  H18T77289   8.043   5.553  12.383
11804POPC   C3377290   8.683   5.477  11.432
11804POPC   H3X77291   8.590   5.538  11.434
11804POPC   H3Y77292   8.748   5.512  11.516
11804POPC   C3477293   8.649   5.329  11.455
11804POPC   H4X77294   8.734   5.264  11.425
11804POPC   H4Y77295   8.560   5.302  11.394
11804POPC   C3577296   8.617   5.301  11.601
11804POPC   H5X77297   8.543   5.375  11.639
11804POPC   H5Y77298   8.709   5.312  11.662
11804POPC   C3677299   8.559   5.161  11.618
11804POPC   H6X77300   8.629   5.084  11.578
11804POPC   H6Y77301   8.462   5.155  11.564
11804POPC   C3777302   8.531   5.137  11.765
11804POPC   H7X77303   8.463   5.218  11.800
11804POPC   H7Y77304   8.627   5.146  11.821
11804POPC   C3877305   8.468   5.002  11.794
11804POPC   H8X77306   8.523   4.922  11.738
11804POPC   H8Y77307   8.362   5.001  11.761
11804POPC   C3977308   8.476   4.974  11.943
11804POPC   H9X77309   8.583   4.966  11.971
11804POPC   H9Y77310   8.426   4.879  11.967
11804POPC  C31077311   8.420   5.089  12.027
11804POPC  H10X77312   8.316   5.112  11.995
11804POPC  H10Y77313   8.481   5.181  12.014
11804POPC  C31177314   8.422   5.056  12.176
11804POPC  H11X77315   8.525   5.031  12.209
11804POPC  H11Y77316   8.357   4.968  12.194
11804POPC  C31277317   8.371   5.176  12.255
11804POPC  H12X77318   8.271   5.206  12.215
11804POPC  H12Y77319   8.441   5.260  12.240
11804POPC  C31377320   8.360   5.151  12.405
11804POPC  H13X77321   8.309   5.237  12.454
11804POPC  H13Y77322   8.464   5.146  12.444
11804POPC  C31477323   8.286   5.022  12.442
11804POPC  H14X77324   8.347   4.934  12.413
11804POPC  H14Y77325   8.189   5.017  12.386
11804POPC  C31577326   8.258   5.015  12.592
11804POPC  H15X77327   8.211   4.917  12.614
11804POPC  H15Y77328   8.185   5.093  12.618
11804POPC  C31677329   8.384   5.033  12.676
11804POPC  H16X77330   8.454   4.948  12.663
11804POPC  H16Y77331   8.358   5.043  12.784
11804POPC  H16Z77332   8.437   5.125  12.647
11805POPC     N77333   7.009   7.542  10.682
11805POPC   C1277334   7.143   7.591  10.737
11805POPC  H12A77335   7.124   7.679  10.797
11805POPC  H12B77336   7.206   7.620  10.653
11805POPC   C1377337   6.919   7.505  10.796
11805POPC  H13A77338   6.817   7.486  10.765
11805POPC  H13B77339   6.958   7.413  10.841
11805POPC  H13C77340   6.923   7.578  10.876
11805POPC   C1477341   6.945   7.646  10.597
11805POPC  H14A77342   6.845   7.616  10.566
11805POPC  H14B77343   6.940   7.742  10.646
11805POPC  H14C77344   7.003   7.657  10.505
11805POPC   C1577345   7.024   7.417  10.599
11805POPC  H15A77346   6.929   7.388  10.555
11805POPC  H15B77347   7.059   7.335  10.661
11805POPC  H15C77348   7.096   7.430  10.519
11805POPC   C1177349   7.222   7.496  10.828
11805POPC  H11A77350   7.325   7.536  10.844
11805POPC  H11B77351   7.235   7.399  10.773
11805POPC     P77352   7.135   7.335  11.014
11805POPC   O1377353   7.099   7.249  10.898
11805POPC   O1477354   7.039   7.344  11.127
11805POPC   O1277355   7.159   7.483  10.956
11805POPC   O1177356   7.280   7.295  11.065
11805POPC    C177357   7.372   7.242  10.969
11805POPC    HA77358   7.393   7.315  10.888
11805POPC    HB77359   7.329   7.151  10.921
11805POPC    C277360   7.509   7.205  11.032
11805POPC    HS77361   7.560   7.140  10.958
11805POPC   O2177362   7.507   7.135  11.155
11805POPC   C2177363   7.413   7.051  11.182
11805POPC   O2277364   7.333   7.001  11.105
11805POPC   C2277365   7.429   7.013  11.328
11805POPC   H2R77366   7.532   7.036  11.363
11805POPC   H2S77367   7.411   6.905  11.338
11805POPC    C377368   7.598   7.329  11.059
11805POPC    HX77369   7.610   7.378  10.961
11805POPC    HY77370   7.697   7.293  11.093
11805POPC   O3177371   7.541   7.413  11.163
11805POPC   C3177372   7.486   7.527  11.121
11805POPC   O3277373   7.513   7.581  11.015
11805POPC   C3277374   7.391   7.585  11.224
11805POPC   H2X77375   7.305   7.628  11.168
11805POPC   H2Y77376   7.442   7.667  11.277
11805POPC   C2377377   7.324   7.089  11.408
11805POPC   H3R77378   7.335   7.199  11.395
11805POPC   H3S77379   7.339   7.065  11.515
11805POPC   C2477380   7.185   7.043  11.362
11805POPC   H4R77381   7.186   6.933  11.351
11805POPC   H4S77382   7.163   7.087  11.261
11805POPC   C2577383   7.071   7.085  11.452
11805POPC   H5R77384   6.982   7.025  11.421
11805POPC   H5S77385   7.047   7.192  11.432
11805POPC   C2677386   7.095   7.063  11.601
11805POPC   H6R77387   7.173   7.134  11.636
11805POPC   H6S77388   7.130   6.959  11.620
11805POPC   C2777389   6.964   7.088  11.674
11805POPC   H7R77390   6.890   7.012  11.640
11805POPC   H7S77391   6.929   7.187  11.638
11805POPC   C2877392   6.963   7.095  11.828
11805POPC   H8R77393   6.880   7.029  11.862
11805POPC   H8S77394   6.934   7.198  11.856
11805POPC   C2977395   7.089   7.061  11.902
11805POPC   H9177396   7.179   7.039  11.843
11805POPC  C21077397   7.095   7.059  12.036
11805POPC  H10177398   7.189   7.027  12.084
11805POPC  C21177399   6.981   7.089  12.131
11805POPC  H11R77400   7.011   7.047  12.229
11805POPC  H11S77401   6.894   7.034  12.093
11805POPC  C21277402   6.917   7.227  12.161
11805POPC  H12R77403   6.894   7.280  12.066
11805POPC  H12S77404   6.989   7.287  12.219
11805POPC  C21377405   6.785   7.212  12.239
11805POPC  H13R77406   6.789   7.120  12.302
11805POPC  H13S77407   6.702   7.198  12.167
11805POPC  C21477408   6.753   7.328  12.333
11805POPC  H14R77409   6.646   7.322  12.364
11805POPC  H14S77410   6.766   7.424  12.279
11805POPC  C21577411   6.839   7.325  12.461
11805POPC  H15R77412   6.944   7.304  12.433
11805POPC  H15S77413   6.804   7.242  12.527
11805POPC  C21677414   6.834   7.457  12.538
11805POPC  H16R77415   6.736   7.466  12.590
11805POPC  H16S77416   6.840   7.540  12.464
11805POPC  C21777417   6.948   7.478  12.638
11805POPC  H17R77418   6.933   7.578  12.686
11805POPC  H17S77419   7.044   7.482  12.582
11805POPC  C21877420   6.959   7.372  12.747
11805POPC  H18R77421   6.860   7.349  12.791
11805POPC  H18S77422   7.026   7.408  12.828
11805POPC  H18T77423   7.003   7.279  12.705
11805POPC   C3377424   7.340   7.485  11.329
11805POPC   H3X77425   7.425   7.444  11.388
11805POPC   H3Y77426   7.288   7.400  11.280
11805POPC   C3477427   7.240   7.552  11.424
11805POPC   H4X77428   7.151   7.584  11.365
11805POPC   H4Y77429   7.286   7.643  11.468
11805POPC   C3577430   7.198   7.457  11.534
11805POPC   H5X77431   7.287   7.426  11.593
11805POPC   H5Y77432   7.156   7.365  11.487
11805POPC   C3677433   7.092   7.516  11.627
11805POPC   H6X77434   6.997   7.525  11.570
11805POPC   H6Y77435   7.122   7.619  11.659
11805POPC   C3777436   7.071   7.427  11.749
11805POPC   H7X77437   7.081   7.321  11.719
11805POPC   H7Y77438   6.968   7.438  11.789
11805POPC   C3877439   7.172   7.454  11.861
11805POPC   H8X77440   7.200   7.561  11.865
11805POPC   H8Y77441   7.262   7.393  11.837
11805POPC   C3977442   7.122   7.408  11.997
11805POPC   H9X77443   7.090   7.304  11.985
11805POPC   H9Y77444   7.031   7.464  12.027
11805POPC  C31077445   7.220   7.416  12.113
11805POPC  H10X77446   7.159   7.416  12.206
11805POPC  H10Y77447   7.271   7.514  12.111
11805POPC  C31177448   7.317   7.298  12.125
11805POPC  H11X77449   7.414   7.318  12.078
11805POPC  H11Y77450   7.280   7.213  12.067
11805POPC  C31277451   7.338   7.252  12.270
11805POPC  H12X77452   7.429   7.188  12.272
11805POPC  H12Y77453   7.252   7.187  12.300
11805POPC  C31377454   7.349   7.366  12.374
11805POPC  H13X77455   7.257   7.367  12.436
11805POPC  H13Y77456   7.354   7.465  12.324
11805POPC  C31477457   7.473   7.357  12.463
11805POPC  H14X77458   7.474   7.444  12.532
11805POPC  H14Y77459   7.563   7.363  12.398
11805POPC  C31577460   7.481   7.227  12.542
11805POPC  H15X77461   7.463   7.144  12.470
11805POPC  H15Y77462   7.401   7.223  12.619
11805POPC  C31677463   7.618   7.202  12.606
11805POPC  H16X77464   7.610   7.199  12.716
11805POPC  H16Y77465   7.690   7.281  12.576
11805POPC  H16Z77466   7.659   7.104  12.572
11806POPC     N77467   3.689   1.044  10.644
11806POPC   C1277468   3.817   1.036  10.725
11806POPC  H12A77469   3.863   1.135  10.737
11806POPC  H12B77470   3.891   0.976  10.673
11806POPC   C1377471   3.582   1.110  10.727
11806POPC  H13A77472   3.568   1.055  10.820
11806POPC  H13B77473   3.616   1.207  10.762
11806POPC  H13C77474   3.489   1.122  10.675
11806POPC   C1477475   3.716   1.128  10.524
11806POPC  H14A77476   3.629   1.132  10.458
11806POPC  H14B77477   3.737   1.230  10.554
11806POPC  H14C77478   3.797   1.089  10.465
11806POPC   C1577479   3.639   0.910  10.602
11806POPC  H15A77480   3.720   0.851  10.562
11806POPC  H15B77481   3.564   0.924  10.525
11806POPC  H15C77482   3.592   0.859  10.685
11806POPC   C1177483   3.802   0.984  10.867
11806POPC  H11A77484   3.903   0.957  10.907
11806POPC  H11B77485   3.741   0.892  10.864
11806POPC     P77486   3.820   1.214  10.985
11806POPC   O1377487   3.730   1.329  10.966
11806POPC   O1477488   3.947   1.212  10.909
11806POPC   O1277489   3.739   1.083  10.949
11806POPC   O1177490   3.851   1.191  11.138
11806POPC    C177491   3.889   1.060  11.182
11806POPC    HA77492   4.000   1.051  11.181
11806POPC    HB77493   3.854   0.979  11.115
11806POPC    C277494   3.833   1.019  11.322
11806POPC    HS77495   3.804   0.913  11.320
11806POPC   O2177496   3.722   1.097  11.367
11806POPC   C2177497   3.610   1.103  11.299
11806POPC   O2277498   3.581   1.048  11.194
11806POPC   C2277499   3.510   1.177  11.387
11806POPC   H2R77500   3.412   1.175  11.336
11806POPC   H2S77501   3.543   1.283  11.394
11806POPC    C377502   3.944   1.028  11.431
11806POPC    HX77503   3.980   1.133  11.429
11806POPC    HY77504   4.028   0.961  11.401
11806POPC   O3177505   3.892   0.995  11.561
11806POPC   C3177506   3.978   1.005  11.661
11806POPC   O3277507   4.099   1.004  11.649
11806POPC   C3277508   3.901   1.045  11.790
11806POPC   H2X77509   3.793   1.034  11.769
11806POPC   H2Y77510   3.923   1.153  11.802
11806POPC   C2377511   3.501   1.114  11.528
11806POPC   H3R77512   3.598   1.124  11.580
11806POPC   H3S77513   3.477   1.006  11.517
11806POPC   C2477514   3.390   1.180  11.610
11806POPC   H4R77515   3.300   1.177  11.546
11806POPC   H4S77516   3.418   1.286  11.630
11806POPC   C2577517   3.354   1.111  11.742
11806POPC   H5R77518   3.317   1.010  11.714
11806POPC   H5S77519   3.270   1.166  11.790
11806POPC   C2677520   3.469   1.098  11.841
11806POPC   H6R77521   3.550   1.043  11.787
11806POPC   H6S77522   3.439   1.037  11.929
11806POPC   C2777523   3.523   1.234  11.890
11806POPC   H7R77524   3.446   1.290  11.947
11806POPC   H7S77525   3.541   1.291  11.797
11806POPC   C2877526   3.654   1.224  11.969
11806POPC   H8R77527   3.708   1.137  11.929
11806POPC   H8S77528   3.634   1.203  12.076
11806POPC   C2977529   3.740   1.345  11.944
11806POPC   H9177530   3.775   1.352  11.840
11806POPC  C21077531   3.783   1.437  12.031
11806POPC  H10177532   3.854   1.514  11.998
11806POPC  C21177533   3.752   1.436  12.178
11806POPC  H11R77534   3.661   1.375  12.199
11806POPC  H11S77535   3.732   1.537  12.218
11806POPC  C21277536   3.874   1.371  12.243
11806POPC  H12R77537   3.960   1.440  12.250
11806POPC  H12S77538   3.910   1.285  12.180
11806POPC  C21377539   3.841   1.309  12.377
11806POPC  H13R77540   3.739   1.264  12.366
11806POPC  H13S77541   3.832   1.380  12.458
11806POPC  C21477542   3.935   1.193  12.410
11806POPC  H14R77543   3.969   1.141  12.318
11806POPC  H14S77544   3.863   1.131  12.463
11806POPC  C21577545   4.039   1.193  12.521
11806POPC  H15R77546   3.987   1.143  12.607
11806POPC  H15S77547   4.062   1.295  12.553
11806POPC  C21677548   4.157   1.107  12.472
11806POPC  H16R77549   4.173   1.138  12.366
11806POPC  H16S77550   4.123   1.001  12.467
11806POPC  C21777551   4.300   1.111  12.532
11806POPC  H17R77552   4.367   1.143  12.450
11806POPC  H17S77553   4.323   1.005  12.548
11806POPC  C21877554   4.343   1.177  12.662
11806POPC  H18R77555   4.354   1.102  12.744
11806POPC  H18S77556   4.272   1.254  12.695
11806POPC  H18T77557   4.443   1.224  12.649
11806POPC   C3377558   3.942   0.978  11.925
11806POPC   H3X77559   4.010   1.049  11.979
11806POPC   H3Y77560   4.006   0.889  11.907
11806POPC   C3477561   3.833   0.940  12.030
11806POPC   H4X77562   3.805   1.030  12.089
11806POPC   H4Y77563   3.885   0.873  12.101
11806POPC   C3577564   3.700   0.868  11.991
11806POPC   H5X77565   3.721   0.776  11.937
11806POPC   H5Y77566   3.638   0.929  11.924
11806POPC   C3677567   3.622   0.826  12.117
11806POPC   H6X77568   3.563   0.911  12.155
11806POPC   H6Y77569   3.705   0.807  12.185
11806POPC   C3777570   3.546   0.691  12.119
11806POPC   H7X77571   3.600   0.620  12.053
11806POPC   H7Y77572   3.449   0.704  12.069
11806POPC   C3877573   3.528   0.619  12.257
11806POPC   H8X77574   3.579   0.520  12.251
11806POPC   H8Y77575   3.420   0.597  12.269
11806POPC   C3977576   3.579   0.684  12.389
11806POPC   H9X77577   3.528   0.781  12.399
11806POPC   H9Y77578   3.687   0.703  12.384
11806POPC  C31077579   3.564   0.598  12.516
11806POPC  H10X77580   3.628   0.508  12.505
11806POPC  H10Y77581   3.456   0.574  12.509
11806POPC  C31177582   3.571   0.655  12.660
11806POPC  H11X77583   3.519   0.581  12.725
11806POPC  H11Y77584   3.508   0.745  12.662
11806POPC  C31277585   3.706   0.683  12.730
11806POPC  H12X77586   3.774   0.743  12.667
11806POPC  H12Y77587   3.760   0.587  12.746
11806POPC  C31377588   3.685   0.756  12.866
11806POPC  H13X77589   3.663   0.679  12.941
11806POPC  H13Y77590   3.592   0.816  12.865
11806POPC  C31477591   3.801   0.850  12.909
11806POPC  H14X77592   3.826   0.918  12.825
11806POPC  H14Y77593   3.890   0.785  12.924
11806POPC  C31577594   3.781   0.934  13.038
11806POPC  H15X77595   3.868   0.910  13.103
11806POPC  H15Y77596   3.691   0.899  13.092
11806POPC  C31677597   3.779   1.089  13.029
11806POPC  H16X77598   3.876   1.129  12.994
11806POPC  H16Y77599   3.762   1.133  13.130
11806POPC  H16Z77600   3.702   1.130  12.962
11807POPC     N77601   5.163   8.483  10.950
11807POPC   C1277602   5.051   8.384  10.977
11807POPC  H12A77603   4.956   8.435  10.968
11807POPC  H12B77604   5.060   8.348  11.078
11807POPC   C1377605   5.295   8.412  10.942
11807POPC  H13A77606   5.285   8.332  10.870
11807POPC  H13B77607   5.371   8.483  10.912
11807POPC  H13C77608   5.324   8.371  11.038
11807POPC   C1477609   5.135   8.546  10.817
11807POPC  H14A77610   5.138   8.469  10.739
11807POPC  H14B77611   5.036   8.589  10.812
11807POPC  H14C77612   5.210   8.620  10.792
11807POPC   C1577613   5.184   8.594  11.046
11807POPC  H15A77614   5.171   8.564  11.149
11807POPC  H15B77615   5.115   8.676  11.025
11807POPC  H15C77616   5.283   8.639  11.035
11807POPC   C1177617   5.040   8.258  10.884
11807POPC  H11A77618   4.952   8.198  10.918
11807POPC  H11B77619   5.128   8.192  10.901
11807POPC     P77620   4.897   8.279  10.662
11807POPC   O1377621   4.832   8.148  10.687
11807POPC   O1477622   4.921   8.316  10.519
11807POPC   O1277623   5.031   8.290  10.745
11807POPC   O1177624   4.816   8.393  10.736
11807POPC    C177625   4.690   8.363  10.798
11807POPC    HA77626   4.684   8.257  10.832
11807POPC    HB77627   4.611   8.382  10.723
11807POPC    C277628   4.657   8.450  10.923
11807POPC    HS77629   4.612   8.545  10.886
11807POPC   O2177630   4.779   8.479  10.998
11807POPC   C2177631   4.757   8.565  11.097
11807POPC   O2277632   4.648   8.606  11.129
11807POPC   C2277633   4.891   8.605  11.161
11807POPC   H2R77634   4.949   8.644  11.075
11807POPC   H2S77635   4.937   8.514  11.203
11807POPC    C377636   4.550   8.375  11.011
11807POPC    HX77637   4.476   8.331  10.940
11807POPC    HY77638   4.493   8.444  11.076
11807POPC   O3177639   4.612   8.268  11.084
11807POPC   C3177640   4.665   8.297  11.203
11807POPC   O3277641   4.625   8.376  11.285
11807POPC   C3277642   4.799   8.223  11.206
11807POPC   H2X77643   4.859   8.255  11.119
11807POPC   H2Y77644   4.771   8.119  11.190
11807POPC   C2377645   4.886   8.719  11.266
11807POPC   H3R77646   4.781   8.736  11.295
11807POPC   H3S77647   4.921   8.814  11.217
11807POPC   C2477648   4.966   8.705  11.398
11807POPC   H4R77649   4.924   8.779  11.470
11807POPC   H4S77650   5.070   8.736  11.376
11807POPC   C2577651   4.974   8.568  11.468
11807POPC   H5R77652   5.048   8.579  11.550
11807POPC   H5S77653   5.019   8.496  11.397
11807POPC   C2677654   4.846   8.508  11.532
11807POPC   H6R77655   4.840   8.402  11.508
11807POPC   H6S77656   4.753   8.551  11.489
11807POPC   C2777657   4.849   8.508  11.686
11807POPC   H7R77658   4.831   8.609  11.726
11807POPC   H7S77659   4.953   8.482  11.716
11807POPC   C2877660   4.759   8.403  11.759
11807POPC   H8R77661   4.789   8.408  11.865
11807POPC   H8S77662   4.786   8.302  11.723
11807POPC   C2977663   4.610   8.416  11.751
11807POPC   H9177664   4.570   8.400  11.649
11807POPC  C21077665   4.523   8.444  11.851
11807POPC  H10177666   4.418   8.457  11.820
11807POPC  C21177667   4.546   8.472  11.999
11807POPC  H11R77668   4.654   8.485  12.020
11807POPC  H11S77669   4.516   8.385  12.059
11807POPC  C21277670   4.472   8.599  12.055
11807POPC  H12R77671   4.403   8.642  11.978
11807POPC  H12S77672   4.551   8.676  12.074
11807POPC  C21377673   4.398   8.593  12.190
11807POPC  H13R77674   4.304   8.535  12.183
11807POPC  H13S77675   4.367   8.698  12.212
11807POPC  C21477676   4.488   8.545  12.304
11807POPC  H14R77677   4.593   8.574  12.281
11807POPC  H14S77678   4.486   8.434  12.310
11807POPC  C21577679   4.455   8.601  12.443
11807POPC  H15R77680   4.350   8.575  12.471
11807POPC  H15S77681   4.463   8.712  12.442
11807POPC  C21677682   4.553   8.543  12.545
11807POPC  H16R77683   4.655   8.580  12.522
11807POPC  H16S77684   4.555   8.432  12.533
11807POPC  C21777685   4.519   8.576  12.690
11807POPC  H17R77686   4.431   8.645  12.694
11807POPC  H17S77687   4.605   8.632  12.732
11807POPC  C21877688   4.490   8.451  12.773
11807POPC  H18R77689   4.580   8.386  12.777
11807POPC  H18S77690   4.407   8.392  12.728
11807POPC  H18T77691   4.462   8.478  12.877
11807POPC   C3377692   4.879   8.234  11.338
11807POPC   H3X77693   4.806   8.229  11.422
11807POPC   H3Y77694   4.932   8.330  11.338
11807POPC   C3477695   4.980   8.122  11.363
11807POPC   H4X77696   5.061   8.122  11.286
11807POPC   H4Y77697   4.922   8.028  11.354
11807POPC   C3577698   5.042   8.113  11.505
11807POPC   H5X77699   5.141   8.063  11.497
11807POPC   H5Y77700   4.977   8.047  11.567
11807POPC   C3677701   5.061   8.244  11.581
11807POPC   H6X77702   4.964   8.272  11.624
11807POPC   H6Y77703   5.095   8.324  11.512
11807POPC   C3777704   5.165   8.234  11.693
11807POPC   H7X77705   5.189   8.335  11.733
11807POPC   H7Y77706   5.256   8.193  11.646
11807POPC   C3877707   5.129   8.142  11.811
11807POPC   H8X77708   5.222   8.116  11.867
11807POPC   H8Y77709   5.085   8.048  11.772
11807POPC   C3977710   5.033   8.211  11.907
11807POPC   H9X77711   4.943   8.239  11.848
11807POPC   H9Y77712   5.080   8.305  11.945
11807POPC  C31077713   4.987   8.125  12.024
11807POPC  H10X77714   5.068   8.119  12.101
11807POPC  H10Y77715   4.967   8.021  11.989
11807POPC  C31177716   4.858   8.181  12.085
11807POPC  H11X77717   4.831   8.122  12.174
11807POPC  H11Y77718   4.775   8.168  12.010
11807POPC  C31277719   4.864   8.329  12.125
11807POPC  H12X77720   4.764   8.358  12.166
11807POPC  H12Y77721   4.884   8.394  12.037
11807POPC  C31377722   4.970   8.362  12.229
11807POPC  H13X77723   4.956   8.469  12.258
11807POPC  H13Y77724   5.072   8.353  12.186
11807POPC  C31477725   4.959   8.274  12.353
11807POPC  H14X77726   5.023   8.183  12.343
11807POPC  H14Y77727   4.853   8.240  12.367
11807POPC  C31577728   4.998   8.356  12.474
11807POPC  H15X77729   4.917   8.433  12.484
11807POPC  H15Y77730   5.094   8.407  12.454
11807POPC  C31677731   5.007   8.277  12.603
11807POPC  H16X77732   4.908   8.233  12.625
11807POPC  H16Y77733   5.035   8.345  12.687
11807POPC  H16Z77734   5.083   8.197  12.596
11808POPC     N77735   1.058   3.703  10.708
11808POPC   C1277736   1.186   3.661  10.779
11808POPC  H12A77737   1.268   3.719  10.744
11808POPC  H12B77738   1.207   3.557  10.748
11808POPC   C1377739   0.988   3.820  10.770
11808POPC  H13A77740   0.892   3.837  10.723
11808POPC  H13B77741   0.969   3.797  10.874
11808POPC  H13C77742   1.044   3.912  10.762
11808POPC   C1477743   1.080   3.731  10.563
11808POPC  H14A77744   1.123   3.644  10.514
11808POPC  H14B77745   0.985   3.754  10.513
11808POPC  H14C77746   1.145   3.816  10.546
11808POPC   C1577747   0.965   3.586  10.715
11808POPC  H15A77748   0.923   3.578  10.815
11808POPC  H15B77749   1.017   3.492  10.699
11808POPC  H15C77750   0.885   3.596  10.644
11808POPC   C1177751   1.188   3.656  10.935
11808POPC  H11A77752   1.154   3.753  10.977
11808POPC  H11B77753   1.293   3.641  10.971
11808POPC     P77754   1.145   3.400  10.965
11808POPC   O1377755   1.263   3.367  11.047
11808POPC   O1477756   1.151   3.376  10.818
11808POPC   O1277757   1.106   3.552  10.986
11808POPC   O1177758   1.015   3.329  11.021
11808POPC    C177759   0.928   3.262  10.931
11808POPC    HA77760   0.969   3.160  10.912
11808POPC    HB77761   0.919   3.314  10.833
11808POPC    C277762   0.786   3.246  10.991
11808POPC    HS77763   0.721   3.199  10.915
11808POPC   O2177764   0.727   3.369  11.033
11808POPC   C2177765   0.730   3.479  10.963
11808POPC   O2277766   0.730   3.488  10.841
11808POPC   C2277767   0.712   3.595  11.060
11808POPC   H2R77768   0.656   3.557  11.149
11808POPC   H2S77769   0.652   3.672  11.010
11808POPC    C377770   0.787   3.156  11.118
11808POPC    HX77771   0.798   3.051  11.085
11808POPC    HY77772   0.688   3.165  11.167
11808POPC   O3177773   0.893   3.183  11.212
11808POPC   C3177774   0.896   3.301  11.277
11808POPC   O3277775   0.803   3.379  11.286
11808POPC   C3277776   1.028   3.309  11.355
11808POPC   H2X77777   1.107   3.261  11.293
11808POPC   H2Y77778   1.013   3.254  11.450
11808POPC   C2377779   0.842   3.661  11.111
11808POPC   H3R77780   0.899   3.706  11.028
11808POPC   H3S77781   0.908   3.584  11.159
11808POPC   C2477782   0.805   3.767  11.216
11808POPC   H4R77783   0.737   3.719  11.290
11808POPC   H4S77784   0.748   3.847  11.164
11808POPC   C2577785   0.921   3.831  11.294
11808POPC   H5R77786   0.879   3.925  11.336
11808POPC   H5S77787   1.006   3.857  11.228
11808POPC   C2677788   0.965   3.752  11.417
11808POPC   H6R77789   1.065   3.709  11.399
11808POPC   H6S77790   0.892   3.669  11.430
11808POPC   C2777791   0.969   3.832  11.549
11808POPC   H7R77792   0.907   3.923  11.540
11808POPC   H7S77793   1.074   3.867  11.565
11808POPC   C2877794   0.925   3.750  11.671
11808POPC   H8R77795   0.944   3.811  11.763
11808POPC   H8S77796   0.994   3.664  11.674
11808POPC   C2977797   0.779   3.709  11.668
11808POPC   H9177798   0.709   3.793  11.670
11808POPC  C21077799   0.725   3.586  11.663
11808POPC  H10177800   0.615   3.579  11.662
11808POPC  C21177801   0.794   3.453  11.661
11808POPC  H11R77802   0.843   3.437  11.563
11808POPC  H11S77803   0.717   3.373  11.667
11808POPC  C21277804   0.894   3.427  11.776
11808POPC  H12R77805   0.978   3.499  11.774
11808POPC  H12S77806   0.939   3.327  11.759
11808POPC  C21377807   0.836   3.440  11.917
11808POPC  H13R77808   0.831   3.548  11.943
11808POPC  H13S77809   0.904   3.391  11.990
11808POPC  C21477810   0.695   3.381  11.927
11808POPC  H14R77811   0.695   3.274  11.896
11808POPC  H14S77812   0.626   3.434  11.858
11808POPC  C21577813   0.636   3.397  12.065
11808POPC  H15R77814   0.528   3.372  12.053
11808POPC  H15S77815   0.643   3.503  12.097
11808POPC  C21677816   0.700   3.312  12.174
11808POPC  H16R77817   0.777   3.374  12.226
11808POPC  H16S77818   0.757   3.228  12.132
11808POPC  C21777819   0.594   3.261  12.271
11808POPC  H17R77820   0.642   3.220  12.363
11808POPC  H17S77821   0.540   3.177  12.225
11808POPC  C21877822   0.496   3.372  12.305
11808POPC  H18R77823   0.459   3.365  12.408
11808POPC  H18S77824   0.411   3.374  12.234
11808POPC  H18T77825   0.546   3.471  12.300
11808POPC   C3377826   1.071   3.452  11.390
11808POPC   H3X77827   0.997   3.498  11.457
11808POPC   H3Y77828   1.074   3.510  11.294
11808POPC   C3477829   1.209   3.466  11.457
11808POPC   H4X77830   1.240   3.573  11.447
11808POPC   H4Y77831   1.281   3.405  11.401
11808POPC   C3577832   1.212   3.433  11.607
11808POPC   H5X77833   1.199   3.324  11.621
11808POPC   H5Y77834   1.126   3.485  11.654
11808POPC   C3677835   1.338   3.482  11.682
11808POPC   H6X77836   1.339   3.593  11.686
11808POPC   H6Y77837   1.426   3.450  11.622
11808POPC   C3777838   1.352   3.424  11.824
11808POPC   H7X77839   1.455   3.445  11.860
11808POPC   H7Y77840   1.341   3.313  11.818
11808POPC   C3877841   1.257   3.477  11.933
11808POPC   H8X77842   1.151   3.472  11.899
11808POPC   H8Y77843   1.281   3.583  11.954
11808POPC   C3977844   1.272   3.392  12.060
11808POPC   H9X77845   1.376   3.352  12.062
11808POPC   H9Y77846   1.203   3.305  12.057
11808POPC  C31077847   1.254   3.469  12.192
11808POPC  H10X77848   1.151   3.509  12.203
11808POPC  H10Y77849   1.324   3.555  12.192
11808POPC  C31177850   1.288   3.380  12.311
11808POPC  H11X77851   1.370   3.309  12.285
11808POPC  H11Y77852   1.200   3.318  12.341
11808POPC  C31277853   1.334   3.463  12.430
11808POPC  H12X77854   1.257   3.539  12.455
11808POPC  H12Y77855   1.427   3.519  12.402
11808POPC  C31377856   1.363   3.378  12.552
11808POPC  H13X77857   1.449   3.311  12.531
11808POPC  H13Y77858   1.276   3.311  12.574
11808POPC  C31477859   1.388   3.467  12.673
11808POPC  H14X77860   1.443   3.559  12.642
11808POPC  H14Y77861   1.447   3.414  12.750
11808POPC  C31577862   1.256   3.498  12.740
11808POPC  H15X77863   1.209   3.402  12.772
11808POPC  H15Y77864   1.191   3.549  12.665
11808POPC  C31677865   1.265   3.588  12.861
11808POPC  H16X77866   1.172   3.589  12.920
11808POPC  H16Y77867   1.281   3.691  12.824
11808POPC  H16Z77868   1.347   3.554  12.925
11809POPC     N77869   6.452   8.252  10.903
11809POPC   C1277870   6.447   8.124  10.986
11809POPC  H12A77871   6.404   8.142  11.083
11809POPC  H12B77872   6.549   8.089  11.003
11809POPC   C1377873   6.535   8.354  10.975
11809POPC  H13A77874   6.499   8.370  11.076
11809POPC  H13B77875   6.638   8.323  10.982
11809POPC  H13C77876   6.532   8.448  10.921
11809POPC   C1477877   6.517   8.220  10.772
11809POPC  H14A77878   6.464   8.135  10.726
11809POPC  H14B77879   6.515   8.300  10.700
11809POPC  H14C77880   6.618   8.183  10.786
11809POPC   C1577881   6.315   8.306  10.878
11809POPC  H15A77882   6.317   8.378  10.797
11809POPC  H15B77883   6.270   8.349  10.967
11809POPC  H15C77884   6.251   8.224  10.846
11809POPC   C1177885   6.375   8.002  10.926
11809POPC  H11A77886   6.267   8.022  10.910
11809POPC  H11B77887   6.384   7.920  11.002
11809POPC     P77888   6.413   7.818  10.754
11809POPC   O1377889   6.460   7.805  10.615
11809POPC   O1477890   6.273   7.784  10.787
11809POPC   O1277891   6.435   7.966  10.801
11809POPC   O1177892   6.520   7.745  10.850
11809POPC    C177893   6.649   7.809  10.862
11809POPC    HA77894   6.641   7.920  10.871
11809POPC    HB77895   6.710   7.788  10.771
11809POPC    C277896   6.733   7.769  10.988
11809POPC    HS77897   6.766   7.664  10.971
11809POPC   O2177898   6.659   7.778  11.113
11809POPC   C2177899   6.727   7.725  11.218
11809POPC   O2277900   6.829   7.660  11.207
11809POPC   C2277901   6.666   7.772  11.350
11809POPC   H2R77902   6.586   7.845  11.328
11809POPC   H2S77903   6.746   7.825  11.406
11809POPC    C377904   6.856   7.865  10.991
11809POPC    HX77905   6.904   7.862  10.891
11809POPC    HY77906   6.933   7.827  11.062
11809POPC   O3177907   6.813   8.003  11.015
11809POPC   C3177908   6.816   8.033  11.145
11809POPC   O3277909   6.864   7.962  11.231
11809POPC   C3277910   6.743   8.163  11.178
11809POPC   H2X77911   6.635   8.148  11.159
11809POPC   H2Y77912   6.782   8.244  11.114
11809POPC   C2377913   6.612   7.659  11.439
11809POPC   H3R77914   6.695   7.605  11.489
11809POPC   H3S77915   6.557   7.583  11.378
11809POPC   C2477916   6.511   7.714  11.542
11809POPC   H4R77917   6.463   7.628  11.594
11809POPC   H4S77918   6.430   7.768  11.488
11809POPC   C2577919   6.567   7.810  11.647
11809POPC   H5R77920   6.487   7.830  11.721
11809POPC   H5S77921   6.591   7.907  11.598
11809POPC   C2677922   6.692   7.762  11.720
11809POPC   H6R77923   6.719   7.839  11.796
11809POPC   H6S77924   6.777   7.754  11.648
11809POPC   C2777925   6.676   7.626  11.790
11809POPC   H7R77926   6.715   7.545  11.725
11809POPC   H7S77927   6.568   7.607  11.802
11809POPC   C2877928   6.743   7.623  11.929
11809POPC   H8R77929   6.730   7.521  11.973
11809POPC   H8S77930   6.694   7.696  11.997
11809POPC   C2977931   6.889   7.653  11.913
11809POPC   H9177932   6.926   7.634  11.811
11809POPC  C21077933   6.973   7.712  11.999
11809POPC  H10177934   7.076   7.730  11.965
11809POPC  C21177935   6.944   7.764  12.137
11809POPC  H11R77936   6.835   7.778  12.155
11809POPC  H11S77937   6.991   7.865  12.143
11809POPC  C21277938   7.004   7.680  12.250
11809POPC  H12R77939   7.090   7.620  12.214
11809POPC  H12S77940   6.927   7.608  12.285
11809POPC  C21377941   7.057   7.765  12.367
11809POPC  H13R77942   7.150   7.815  12.333
11809POPC  H13S77943   7.085   7.697  12.451
11809POPC  C21477944   6.960   7.873  12.420
11809POPC  H14R77945   6.933   7.942  12.337
11809POPC  H14S77946   7.011   7.932  12.499
11809POPC  C21577947   6.831   7.814  12.477
11809POPC  H15R77948   6.857   7.756  12.569
11809POPC  H15S77949   6.787   7.744  12.403
11809POPC  C21677950   6.725   7.918  12.513
11809POPC  H16R77951   6.679   7.958  12.419
11809POPC  H16S77952   6.772   8.004  12.567
11809POPC  C21777953   6.617   7.857  12.602
11809POPC  H17R77954   6.538   7.933  12.621
11809POPC  H17S77955   6.665   7.833  12.700
11809POPC  C21877956   6.555   7.727  12.549
11809POPC  H18R77957   6.472   7.694  12.614
11809POPC  H18S77958   6.631   7.646  12.548
11809POPC  H18T77959   6.517   7.741  12.446
11809POPC   C3377960   6.762   8.192  11.328
11809POPC   H3X77961   6.868   8.219  11.350
11809POPC   H3Y77962   6.740   8.099  11.385
11809POPC   C3477963   6.669   8.301  11.381
11809POPC   H4X77964   6.564   8.276  11.353
11809POPC   H4Y77965   6.695   8.399  11.336
11809POPC   C3577966   6.676   8.309  11.534
11809POPC   H5X77967   6.613   8.395  11.567
11809POPC   H5Y77968   6.780   8.330  11.568
11809POPC   C3677969   6.624   8.181  11.600
11809POPC   H6X77970   6.709   8.122  11.641
11809POPC   H6Y77971   6.575   8.117  11.523
11809POPC   C3777972   6.518   8.207  11.708
11809POPC   H7X77973   6.453   8.117  11.718
11809POPC   H7Y77974   6.453   8.291  11.673
11809POPC   C3877975   6.579   8.241  11.844
11809POPC   H8X77976   6.499   8.280  11.911
11809POPC   H8Y77977   6.653   8.323  11.831
11809POPC   C3977978   6.649   8.122  11.912
11809POPC   H9X77979   6.706   8.162  11.998
11809POPC   H9Y77980   6.723   8.076  11.843
11809POPC  C31077981   6.555   8.013  11.964
11809POPC  H10X77982   6.617   7.933  12.011
11809POPC  H10Y77983   6.501   7.967  11.879
11809POPC  C31177984   6.453   8.064  12.067
11809POPC  H11X77985   6.395   7.977  12.106
11809POPC  H11Y77986   6.381   8.132  12.016
11809POPC  C31277987   6.520   8.139  12.183
11809POPC  H12X77988   6.566   8.233  12.146
11809POPC  H12Y77989   6.601   8.075  12.224
11809POPC  C31377990   6.423   8.175  12.296
11809POPC  H13X77991   6.381   8.082  12.339
11809POPC  H13Y77992   6.338   8.235  12.255
11809POPC  C31477993   6.492   8.256  12.407
11809POPC  H14X77994   6.527   8.353  12.364
11809POPC  H14Y77995   6.582   8.201  12.442
11809POPC  C31577996   6.400   8.284  12.526
11809POPC  H15X77997   6.378   8.188  12.577
11809POPC  H15Y77998   6.304   8.325  12.488
11809POPC  C31677999   6.459   8.383  12.626
11809POPC  H16X78000   6.434   8.485  12.592
11809POPC  H16Y78001   6.569   8.374  12.633
11809POPC  H16Z78002   6.414   8.370  12.727
11810POPC     N78003   7.853   7.068  10.802
11810POPC   C1278004   7.905   6.931  10.765
11810POPC  H12A78005   8.014   6.937  10.757
11810POPC  H12B78006   7.870   6.906  10.665
11810POPC   C1378007   7.710   7.075  10.759
11810POPC  H13A78008   7.700   7.067  10.651
11810POPC  H13B78009   7.656   6.991  10.804
11810POPC  H13C78010   7.665   7.168  10.788
11810POPC   C1478011   7.862   7.085  10.951
11810POPC  H14A78012   7.816   7.176  10.985
11810POPC  H14B78013   7.810   7.001  10.999
11810POPC  H14C78014   7.965   7.080  10.984
11810POPC   C1578015   7.934   7.174  10.736
11810POPC  H15A78016   7.922   7.173  10.628
11810POPC  H15B78017   8.040   7.162  10.759
11810POPC  H15C78018   7.904   7.273  10.769
11810POPC   C1178019   7.873   6.815  10.862
11810POPC  H11A78020   7.945   6.822  10.946
11810POPC  H11B78021   7.900   6.720  10.810
11810POPC     P78022   7.643   6.699  10.868
11810POPC   O1378023   7.711   6.568  10.880
11810POPC   O1478024   7.590   6.734  10.736
11810POPC   O1278025   7.739   6.818  10.916
11810POPC   O1178026   7.517   6.693  10.963
11810POPC    C178027   7.511   6.767  11.083
11810POPC    HA78028   7.404   6.787  11.102
11810POPC    HB78029   7.564   6.865  11.077
11810POPC    C278030   7.556   6.684  11.205
11810POPC    HS78031   7.523   6.735  11.299
11810POPC   O2178032   7.699   6.665  11.206
11810POPC   C2178033   7.761   6.776  11.243
11810POPC   O2278034   7.705   6.877  11.284
11810POPC   C2278035   7.912   6.766  11.237
11810POPC   H2R78036   7.945   6.818  11.145
11810POPC   H2S78037   7.943   6.659  11.229
11810POPC    C378038   7.481   6.550  11.203
11810POPC    HX78039   7.522   6.487  11.121
11810POPC    HY78040   7.375   6.572  11.178
11810POPC   O3178041   7.485   6.494  11.335
11810POPC   C3178042   7.579   6.402  11.349
11810POPC   O3278043   7.630   6.338  11.259
11810POPC   C3278044   7.615   6.391  11.496
11810POPC   H2X78045   7.564   6.303  11.540
11810POPC   H2Y78046   7.581   6.482  11.550
11810POPC   C2378047   7.975   6.837  11.359
11810POPC   H3R78048   7.904   6.903  11.412
11810POPC   H3S78049   8.058   6.901  11.324
11810POPC   C2478050   8.033   6.736  11.458
11810POPC   H4R78051   8.126   6.702  11.408
11810POPC   H4S78052   7.963   6.650  11.470
11810POPC   C2578053   8.072   6.792  11.595
11810POPC   H5R78054   8.144   6.875  11.580
11810POPC   H5S78055   8.127   6.712  11.650
11810POPC   C2678056   7.957   6.841  11.684
11810POPC   H6R78057   7.891   6.756  11.712
11810POPC   H6S78058   7.895   6.916  11.631
11810POPC   C2778059   8.018   6.903  11.810
11810POPC   H7R78060   8.063   7.000  11.780
11810POPC   H7S78061   8.102   6.837  11.842
11810POPC   C2878062   7.923   6.928  11.927
11810POPC   H8R78063   7.825   6.966  11.889
11810POPC   H8S78064   7.966   7.007  11.992
11810POPC   C2978065   7.905   6.800  12.003
11810POPC   H9178066   7.824   6.736  11.967
11810POPC  C21078067   7.984   6.755  12.102
11810POPC  H10178068   7.966   6.656  12.147
11810POPC  C21178069   8.104   6.828  12.154
11810POPC  H11R78070   8.077   6.934  12.172
11810POPC  H11S78071   8.186   6.827  12.078
11810POPC  C21278072   8.158   6.764  12.282
11810POPC  H12R78073   8.190   6.659  12.262
11810POPC  H12S78074   8.077   6.759  12.359
11810POPC  C21378075   8.277   6.842  12.338
11810POPC  H13R78076   8.360   6.837  12.264
11810POPC  H13S78077   8.313   6.793  12.432
11810POPC  C21478078   8.245   6.989  12.365
11810POPC  H14R78079   8.224   7.042  12.270
11810POPC  H14S78080   8.335   7.037  12.406
11810POPC  C21578081   8.129   7.013  12.462
11810POPC  H15R78082   8.038   6.962  12.425
11810POPC  H15S78083   8.108   7.121  12.460
11810POPC  C21678084   8.157   6.973  12.607
11810POPC  H16R78085   8.227   7.046  12.653
11810POPC  H16S78086   8.206   6.873  12.611
11810POPC  C21778087   8.030   6.971  12.692
11810POPC  H17R78088   8.061   6.970  12.799
11810POPC  H17S78089   7.976   6.876  12.670
11810POPC  C21878090   7.936   7.089  12.667
11810POPC  H18R78091   7.991   7.184  12.669
11810POPC  H18S78092   7.855   7.095  12.743
11810POPC  H18T78093   7.887   7.076  12.569
11810POPC   C3378094   7.767   6.378  11.508
11810POPC   H3X78095   7.820   6.463  11.459
11810POPC   H3Y78096   7.799   6.285  11.454
11810POPC   C3478097   7.814   6.365  11.652
11810POPC   H4X78098   7.916   6.319  11.647
11810POPC   H4Y78099   7.745   6.299  11.708
11810POPC   C3578100   7.831   6.496  11.729
11810POPC   H5X78101   7.738   6.555  11.724
11810POPC   H5Y78102   7.911   6.553  11.677
11810POPC   C3678103   7.878   6.470  11.874
11810POPC   H6X78104   7.932   6.558  11.913
11810POPC   H6Y78105   7.954   6.390  11.867
11810POPC   C3778106   7.771   6.423  11.975
11810POPC   H7X78107   7.826   6.366  12.054
11810POPC   H7Y78108   7.702   6.352  11.925
11810POPC   C3878109   7.687   6.529  12.051
11810POPC   H8X78110   7.754   6.593  12.111
11810POPC   H8Y78111   7.622   6.475  12.124
11810POPC   C3978112   7.597   6.616  11.962
11810POPC   H9X78113   7.512   6.555  11.924
11810POPC   H9Y78114   7.654   6.652  11.874
11810POPC  C31078115   7.545   6.744  12.030
11810POPC  H10X78116   7.475   6.794  11.959
11810POPC  H10Y78117   7.629   6.814  12.048
11810POPC  C31178118   7.474   6.721  12.164
11810POPC  H11X78119   7.551   6.706  12.242
11810POPC  H11Y78120   7.411   6.629  12.159
11810POPC  C31278121   7.385   6.841  12.198
11810POPC  H12X78122   7.296   6.839  12.131
11810POPC  H12Y78123   7.441   6.935  12.176
11810POPC  C31378124   7.338   6.847  12.344
11810POPC  H13X78125   7.280   6.756  12.370
11810POPC  H13Y78126   7.269   6.935  12.354
11810POPC  C31478127   7.455   6.867  12.443
11810POPC  H14X78128   7.524   6.941  12.397
11810POPC  H14Y78129   7.512   6.773  12.455
11810POPC  C31578130   7.411   6.921  12.580
11810POPC  H15X78131   7.336   7.003  12.564
11810POPC  H15Y78132   7.500   6.964  12.630
11810POPC  C31678133   7.352   6.820  12.676
11810POPC  H16X78134   7.431   6.749  12.707
11810POPC  H16Y78135   7.268   6.764  12.628
11810POPC  H16Z78136   7.315   6.870  12.768
11811POPC     N78137   6.365   1.080  10.734
11811POPC   C1278138   6.309   1.089  10.876
11811POPC  H12A78139   6.361   1.167  10.929
11811POPC  H12B78140   6.328   0.995  10.927
11811POPC   C1378141   6.511   1.110  10.730
11811POPC  H13A78142   6.530   1.206  10.776
11811POPC  H13B78143   6.567   1.031  10.777
11811POPC  H13C78144   6.545   1.119  10.627
11811POPC   C1478145   6.341   0.942  10.681
11811POPC  H14A78146   6.367   0.931  10.576
11811POPC  H14B78147   6.399   0.870  10.737
11811POPC  H14C78148   6.236   0.916  10.692
11811POPC   C1578149   6.304   1.182  10.643
11811POPC  H15A78150   6.325   1.158  10.539
11811POPC  H15B78151   6.349   1.280  10.659
11811POPC  H15C78152   6.197   1.190  10.659
11811POPC   C1178153   6.157   1.115  10.900
11811POPC  H11A78154   6.123   1.205  10.845
11811POPC  H11B78155   6.147   1.141  11.009
11811POPC     P78156   5.961   0.951  10.961
11811POPC   O1378157   5.908   0.823  10.906
11811POPC   O1478158   5.863   1.061  10.980
11811POPC   O1278159   6.077   1.002  10.863
11811POPC   O1178160   6.041   0.927  11.094
11811POPC    C178161   6.133   0.821  11.118
11811POPC    HA78162   6.212   0.858  11.187
11811POPC    HB78163   6.182   0.785  11.025
11811POPC    C278164   6.062   0.701  11.187
11811POPC    HS78165   6.002   0.655  11.106
11811POPC   O2178166   5.982   0.752  11.297
11811POPC   C2178167   5.858   0.709  11.298
11811POPC   O2278168   5.809   0.634  11.215
11811POPC   C2278169   5.781   0.764  11.419
11811POPC   H2R78170   5.754   0.677  11.482
11811POPC   H2S78171   5.689   0.811  11.379
11811POPC    C378172   6.160   0.592  11.240
11811POPC    HX78173   6.242   0.580  11.165
11811POPC    HY78174   6.107   0.494  11.245
11811POPC   O3178175   6.219   0.628  11.367
11811POPC   C3178176   6.137   0.603  11.471
11811POPC   O3278177   6.042   0.527  11.469
11811POPC   C3278178   6.166   0.702  11.584
11811POPC   H2X78179   6.075   0.706  11.647
11811POPC   H2Y78180   6.179   0.801  11.535
11811POPC   C2378181   5.847   0.873  11.505
11811POPC   H3R78182   5.864   0.964  11.444
11811POPC   H3S78183   5.945   0.838  11.543
11811POPC   C2478184   5.758   0.906  11.626
11811POPC   H4R78185   5.750   0.815  11.690
11811POPC   H4S78186   5.655   0.931  11.591
11811POPC   C2578187   5.808   1.022  11.713
11811POPC   H5R78188   5.748   1.022  11.807
11811POPC   H5S78189   5.789   1.119  11.662
11811POPC   C2678190   5.958   1.014  11.747
11811POPC   H6R78191   6.015   1.055  11.661
11811POPC   H6S78192   5.990   0.908  11.761
11811POPC   C2778193   5.993   1.093  11.874
11811POPC   H7R78194   5.918   1.173  11.890
11811POPC   H7S78195   6.092   1.142  11.859
11811POPC   C2878196   6.005   1.005  12.001
11811POPC   H8R78197   6.024   1.071  12.088
11811POPC   H8S78198   6.095   0.941  11.990
11811POPC   C2978199   5.886   0.916  12.025
11811POPC   H9178200   5.893   0.816  11.980
11811POPC  C21078201   5.775   0.948  12.093
11811POPC  H10178202   5.699   0.870  12.109
11811POPC  C21178203   5.743   1.079  12.160
11811POPC  H11R78204   5.645   1.118  12.122
11811POPC  H11S78205   5.818   1.159  12.141
11811POPC  C21278206   5.730   1.055  12.312
11811POPC  H12R78207   5.670   0.963  12.328
11811POPC  H12S78208   5.673   1.137  12.360
11811POPC  C21378209   5.865   1.033  12.382
11811POPC  H13R78210   5.925   0.964  12.319
11811POPC  H13S78211   5.846   0.984  12.480
11811POPC  C21478212   5.948   1.160  12.406
11811POPC  H14R78213   5.981   1.200  12.308
11811POPC  H14S78214   6.040   1.132  12.463
11811POPC  C21578215   5.875   1.272  12.482
11811POPC  H15R78216   5.783   1.301  12.425
11811POPC  H15S78217   5.942   1.360  12.485
11811POPC  C21678218   5.838   1.239  12.626
11811POPC  H16R78219   5.805   1.133  12.634
11811POPC  H16S78220   5.752   1.303  12.658
11811POPC  C21778221   5.953   1.266  12.724
11811POPC  H17R78222   5.965   1.375  12.740
11811POPC  H17S78223   6.048   1.227  12.681
11811POPC  C21878224   5.927   1.196  12.857
11811POPC  H18R78225   6.009   1.215  12.930
11811POPC  H18S78226   5.921   1.087  12.837
11811POPC  H18T78227   5.831   1.229  12.901
11811POPC   C3378228   6.289   0.673  11.672
11811POPC   H3X78229   6.335   0.771  11.697
11811POPC   H3Y78230   6.366   0.614  11.617
11811POPC   C3478231   6.254   0.606  11.805
11811POPC   H4X78232   6.210   0.505  11.786
11811POPC   H4Y78233   6.177   0.667  11.856
11811POPC   C3578234   6.377   0.592  11.896
11811POPC   H5X78235   6.423   0.692  11.912
11811POPC   H5Y78236   6.452   0.528  11.845
11811POPC   C3678237   6.346   0.529  12.032
11811POPC   H6X78238   6.442   0.510  12.086
11811POPC   H6Y78239   6.297   0.431  12.015
11811POPC   C3778240   6.255   0.611  12.124
11811POPC   H7X78241   6.241   0.550  12.216
11811POPC   H7Y78242   6.154   0.623  12.078
11811POPC   C3878243   6.309   0.750  12.160
11811POPC   H8X78244   6.316   0.812  12.068
11811POPC   H8Y78245   6.411   0.741  12.203
11811POPC   C3978246   6.219   0.823  12.261
11811POPC   H9X78247   6.114   0.822  12.223
11811POPC   H9Y78248   6.250   0.929  12.272
11811POPC  C31078249   6.221   0.756  12.399
11811POPC  H10X78250   6.323   0.764  12.443
11811POPC  H10Y78251   6.197   0.648  12.388
11811POPC  C31178252   6.118   0.813  12.496
11811POPC  H11X78253   6.025   0.838  12.441
11811POPC  H11Y78254   6.158   0.907  12.539
11811POPC  C31278255   6.081   0.709  12.601
11811POPC  H12X78256   6.174   0.656  12.631
11811POPC  H12Y78257   6.014   0.636  12.550
11811POPC  C31378258   6.009   0.759  12.727
11811POPC  H13X78259   5.948   0.675  12.767
11811POPC  H13Y78260   5.940   0.842  12.701
11811POPC  C31478261   6.106   0.802  12.837
11811POPC  H14X78262   6.178   0.720  12.858
11811POPC  H14Y78263   6.052   0.819  12.932
11811POPC  C31578264   6.182   0.928  12.796
11811POPC  H15X78265   6.114   0.995  12.738
11811POPC  H15Y78266   6.265   0.899  12.728
11811POPC  C31678267   6.237   1.008  12.913
11811POPC  H16X78268   6.281   0.942  12.991
11811POPC  H16Y78269   6.156   1.067  12.961
11811POPC  H16Z78270   6.315   1.078  12.877
11812POPC     N78271   5.403   0.844  10.693
11812POPC   C1278272   5.259   0.881  10.722
11812POPC  H12A78273   5.196   0.823  10.655
11812POPC  H12B78274   5.242   0.985  10.696
11812POPC   C1378275   5.420   0.694  10.703
11812POPC  H13A78276   5.345   0.643  10.643
11812POPC  H13B78277   5.519   0.662  10.675
11812POPC  H13C78278   5.400   0.665  10.806
11812POPC   C1478279   5.443   0.889  10.556
11812POPC  H14A78280   5.405   0.989  10.535
11812POPC  H14B78281   5.550   0.890  10.543
11812POPC  H14C78282   5.401   0.822  10.482
11812POPC   C1578283   5.493   0.906  10.795
11812POPC  H15A78284   5.491   1.013  10.790
11812POPC  H15B78285   5.595   0.871  10.786
11812POPC  H15C78286   5.458   0.877  10.894
11812POPC   C1178287   5.202   0.855  10.864
11812POPC  H11A78288   5.103   0.906  10.868
11812POPC  H11B78289   5.267   0.901  10.942
11812POPC     P78290   5.115   0.669  11.023
11812POPC   O1378291   5.031   0.554  10.985
11812POPC   O1478292   5.044   0.786  11.079
11812POPC   O1278293   5.187   0.716  10.888
11812POPC   O1178294   5.236   0.623  11.116
11812POPC    C178295   5.368   0.602  11.065
11812POPC    HA78296   5.403   0.693  11.011
11812POPC    HB78297   5.368   0.516  10.994
11812POPC    C278298   5.480   0.574  11.173
11812POPC    HS78299   5.577   0.569  11.120
11812POPC   O2178300   5.456   0.448  11.237
11812POPC   C2178301   5.541   0.401  11.328
11812POPC   O2278302   5.657   0.434  11.343
11812POPC   C2278303   5.469   0.299  11.416
11812POPC   H2R78304   5.448   0.349  11.513
11812POPC   H2S78305   5.545   0.221  11.435
11812POPC    C378306   5.489   0.690  11.279
11812POPC    HX78307   5.540   0.772  11.225
11812POPC    HY78308   5.556   0.657  11.360
11812POPC   O3178309   5.365   0.744  11.331
11812POPC   C3178310   5.331   0.708  11.454
11812POPC   O3278311   5.386   0.622  11.520
11812POPC   C3278312   5.221   0.802  11.507
11812POPC   H2X78313   5.154   0.742  11.572
11812POPC   H2Y78314   5.162   0.836  11.419
11812POPC   C2378315   5.340   0.239  11.355
11812POPC   H3R78316   5.312   0.147  11.411
11812POPC   H3S78317   5.359   0.207  11.250
11812POPC   C2478318   5.216   0.331  11.360
11812POPC   H4R78319   5.134   0.285  11.301
11812POPC   H4S78320   5.239   0.428  11.310
11812POPC   C2578321   5.165   0.364  11.501
11812POPC   H5R78322   5.088   0.444  11.493
11812POPC   H5S78323   5.250   0.404  11.559
11812POPC   C2678324   5.103   0.244  11.575
11812POPC   H6R78325   5.179   0.164  11.586
11812POPC   H6S78326   5.020   0.203  11.514
11812POPC   C2778327   5.048   0.276  11.716
11812POPC   H7R78328   5.016   0.179  11.760
11812POPC   H7S78329   4.958   0.340  11.707
11812POPC   C2878330   5.147   0.341  11.816
11812POPC   H8R78331   5.245   0.289  11.809
11812POPC   H8S78332   5.109   0.321  11.918
11812POPC   C2978333   5.164   0.490  11.796
11812POPC   H9178334   5.248   0.520  11.731
11812POPC  C21078335   5.091   0.586  11.854
11812POPC  H10178336   5.115   0.691  11.834
11812POPC  C21178337   4.977   0.566  11.950
11812POPC  H11R78338   4.943   0.461  11.954
11812POPC  H11S78339   4.889   0.628  11.921
11812POPC  C21278340   5.026   0.608  12.090
11812POPC  H12R78341   5.061   0.714  12.089
11812POPC  H12S78342   5.114   0.544  12.118
11812POPC  C21378343   4.919   0.593  12.197
11812POPC  H13R78344   4.884   0.487  12.200
11812POPC  H13S78345   4.831   0.656  12.170
11812POPC  C21478346   4.968   0.634  12.336
11812POPC  H14R78347   4.883   0.624  12.406
11812POPC  H14S78348   4.996   0.742  12.336
11812POPC  C21578349   5.088   0.552  12.388
11812POPC  H15R78350   5.181   0.584  12.336
11812POPC  H15S78351   5.071   0.445  12.366
11812POPC  C21678352   5.106   0.570  12.539
11812POPC  H16R78353   5.014   0.533  12.590
11812POPC  H16S78354   5.116   0.678  12.563
11812POPC  C21778355   5.224   0.496  12.601
11812POPC  H17R78356   5.318   0.550  12.576
11812POPC  H17S78357   5.232   0.394  12.556
11812POPC  C21878358   5.208   0.483  12.753
11812POPC  H18R78359   5.111   0.437  12.779
11812POPC  H18S78360   5.213   0.583  12.801
11812POPC  H18T78361   5.288   0.419  12.796
11812POPC   C3378362   5.273   0.928  11.584
11812POPC   H3X78363   5.188   1.001  11.587
11812POPC   H3Y78364   5.356   0.976  11.529
11812POPC   C3478365   5.314   0.902  11.730
11812POPC   H4X78366   5.407   0.841  11.733
11812POPC   H4Y78367   5.234   0.843  11.779
11812POPC   C3578368   5.335   1.030  11.814
11812POPC   H5X78369   5.256   1.105  11.789
11812POPC   H5Y78370   5.433   1.075  11.789
11812POPC   C3678371   5.328   1.006  11.966
11812POPC   H6X78372   5.223   0.983  11.996
11812POPC   H6Y78373   5.358   1.099  12.019
11812POPC   C3778374   5.417   0.891  12.016
11812POPC   H7X78375   5.522   0.911  11.984
11812POPC   H7Y78376   5.385   0.795  11.969
11812POPC   C3878377   5.411   0.875  12.168
11812POPC   H8X78378   5.306   0.883  12.203
11812POPC   H8Y78379   5.468   0.960  12.214
11812POPC   C3978380   5.469   0.743  12.219
11812POPC   H9X78381   5.565   0.722  12.167
11812POPC   H9Y78382   5.400   0.658  12.196
11812POPC  C31078383   5.495   0.748  12.370
11812POPC  H10X78384   5.401   0.724  12.425
11812POPC  H10Y78385   5.523   0.851  12.400
11812POPC  C31178386   5.607   0.654  12.414
11812POPC  H11X78387   5.700   0.669  12.356
11812POPC  H11Y78388   5.571   0.550  12.400
11812POPC  C31278389   5.639   0.676  12.561
11812POPC  H12X78390   5.542   0.702  12.610
11812POPC  H12Y78391   5.705   0.764  12.578
11812POPC  C31378392   5.699   0.553  12.627
11812POPC  H13X78393   5.803   0.537  12.594
11812POPC  H13Y78394   5.640   0.462  12.598
11812POPC  C31478395   5.685   0.568  12.777
11812POPC  H14X78396   5.701   0.675  12.803
11812POPC  H14Y78397   5.757   0.507  12.835
11812POPC  C31578398   5.543   0.524  12.809
11812POPC  H15X78399   5.538   0.412  12.802
11812POPC  H15Y78400   5.473   0.562  12.732
11812POPC  C31678401   5.491   0.572  12.942
11812POPC  H16X78402   5.477   0.682  12.946
11812POPC  H16Y78403   5.559   0.541  13.024
11812POPC  H16Z78404   5.391   0.528  12.954
11813POPC     N78405   2.352   1.524  10.663
11813POPC   C1278406   2.412   1.489  10.799
11813POPC  H12A78407   2.401   1.577  10.863
11813POPC  H12B78408   2.518   1.471  10.789
11813POPC   C1378409   2.207   1.556  10.681
11813POPC  H13A78410   2.194   1.642  10.745
11813POPC  H13B78411   2.157   1.570  10.586
11813POPC  H13C78412   2.160   1.472  10.733
11813POPC   C1478413   2.420   1.643  10.607
11813POPC  H14A78414   2.527   1.622  10.599
11813POPC  H14B78415   2.385   1.663  10.506
11813POPC  H14C78416   2.407   1.732  10.666
11813POPC   C1578417   2.367   1.411  10.565
11813POPC  H15A78418   2.472   1.394  10.541
11813POPC  H15B78419   2.315   1.435  10.472
11813POPC  H15C78420   2.320   1.321  10.604
11813POPC   C1178421   2.347   1.372  10.877
11813POPC  H11A78422   2.409   1.354  10.969
11813POPC  H11B78423   2.351   1.280  10.816
11813POPC     P78424   2.142   1.343  11.039
11813POPC   O1378425   2.213   1.218  11.077
11813POPC   O1478426   1.997   1.329  11.011
11813POPC   O1278427   2.212   1.404  10.910
11813POPC   O1178428   2.166   1.455  11.150
11813POPC    C178429   2.117   1.587  11.125
11813POPC    HA78430   2.008   1.585  11.101
11813POPC    HB78431   2.170   1.629  11.037
11813POPC    C278432   2.136   1.688  11.245
11813POPC    HS78433   2.142   1.789  11.198
11813POPC   O2178434   2.252   1.667  11.326
11813POPC   C2178435   2.363   1.665  11.261
11813POPC   O2278436   2.381   1.703  11.146
11813POPC   C2278437   2.474   1.624  11.353
11813POPC   H2R78438   2.443   1.538  11.414
11813POPC   H2S78439   2.497   1.709  11.420
11813POPC    C378440   2.020   1.690  11.345
11813POPC    HX78441   1.924   1.696  11.289
11813POPC    HY78442   2.030   1.778  11.412
11813POPC   O3178443   2.031   1.569  11.421
11813POPC   C3178444   1.926   1.526  11.482
11813POPC   O3278445   1.826   1.591  11.506
11813POPC   C3278446   1.949   1.379  11.509
11813POPC   H2X78447   2.056   1.354  11.493
11813POPC   H2Y78448   1.891   1.323  11.433
11813POPC   C2378449   2.597   1.591  11.267
11813POPC   H3R78450   2.685   1.594  11.336
11813POPC   H3S78451   2.615   1.670  11.191
11813POPC   C2478452   2.591   1.456  11.194
11813POPC   H4R78453   2.673   1.447  11.120
11813POPC   H4S78454   2.495   1.452  11.137
11813POPC   C2578455   2.596   1.333  11.285
11813POPC   H5R78456   2.591   1.241  11.223
11813POPC   H5S78457   2.504   1.336  11.345
11813POPC   C2678458   2.721   1.325  11.375
11813POPC   H6R78459   2.762   1.425  11.401
11813POPC   H6S78460   2.801   1.273  11.316
11813POPC   C2778461   2.699   1.250  11.508
11813POPC   H7R78462   2.800   1.215  11.540
11813POPC   H7S78463   2.636   1.161  11.491
11813POPC   C2878464   2.644   1.339  11.623
11813POPC   H8R78465   2.704   1.433  11.626
11813POPC   H8S78466   2.663   1.286  11.718
11813POPC   C2978467   2.498   1.370  11.611
11813POPC   H9178468   2.446   1.322  11.527
11813POPC  C21078469   2.423   1.443  11.695
11813POPC  H10178470   2.318   1.462  11.669
11813POPC  C21178471   2.472   1.509  11.821
11813POPC  H11R78472   2.401   1.589  11.851
11813POPC  H11S78473   2.572   1.555  11.808
11813POPC  C21278474   2.479   1.404  11.933
11813POPC  H12R78475   2.572   1.343  11.921
11813POPC  H12S78476   2.393   1.334  11.928
11813POPC  C21378477   2.477   1.466  12.073
11813POPC  H13R78478   2.378   1.513  12.089
11813POPC  H13S78479   2.554   1.547  12.078
11813POPC  C21478480   2.504   1.363  12.183
11813POPC  H14R78481   2.612   1.334  12.177
11813POPC  H14S78482   2.444   1.272  12.164
11813POPC  C21578483   2.474   1.414  12.324
11813POPC  H15R78484   2.530   1.349  12.395
11813POPC  H15S78485   2.366   1.401  12.345
11813POPC  C21678486   2.509   1.562  12.344
11813POPC  H16R78487   2.442   1.625  12.281
11813POPC  H16S78488   2.613   1.579  12.309
11813POPC  C21778489   2.497   1.612  12.489
11813POPC  H17R78490   2.390   1.622  12.516
11813POPC  H17S78491   2.542   1.714  12.494
11813POPC  C21878492   2.566   1.522  12.590
11813POPC  H18R78493   2.655   1.479  12.541
11813POPC  H18S78494   2.501   1.437  12.619
11813POPC  H18T78495   2.599   1.577  12.680
11813POPC   C3378496   1.906   1.337  11.651
11813POPC   H3X78497   1.892   1.226  11.650
11813POPC   H3Y78498   1.808   1.382  11.678
11813POPC   C3478499   2.010   1.371  11.757
11813POPC   H4X78500   2.019   1.481  11.771
11813POPC   H4Y78501   2.110   1.334  11.725
11813POPC   C3578502   1.972   1.302  11.888
11813POPC   H5X78503   1.962   1.194  11.868
11813POPC   H5Y78504   1.872   1.339  11.921
11813POPC   C3678505   2.074   1.322  12.000
11813POPC   H6X78506   2.072   1.428  12.034
11813POPC   H6Y78507   2.176   1.301  11.963
11813POPC   C3778508   2.045   1.229  12.119
11813POPC   H7X78509   2.074   1.126  12.091
11813POPC   H7Y78510   1.936   1.229  12.141
11813POPC   C3878511   2.124   1.268  12.243
11813POPC   H8X78512   2.203   1.339  12.212
11813POPC   H8Y78513   2.175   1.179  12.287
11813POPC   C3978514   2.035   1.334  12.349
11813POPC   H9X78515   1.986   1.256  12.413
11813POPC   H9Y78516   1.954   1.392  12.299
11813POPC  C31078517   2.118   1.429  12.433
11813POPC  H10X78518   2.169   1.501  12.364
11813POPC  H10Y78519   2.196   1.372  12.487
11813POPC  C31178520   2.038   1.511  12.534
11813POPC  H11X78521   1.993   1.443  12.609
11813POPC  H11Y78522   1.956   1.568  12.484
11813POPC  C31278523   2.135   1.608  12.602
11813POPC  H12X78524   2.161   1.689  12.531
11813POPC  H12Y78525   2.228   1.551  12.623
11813POPC  C31378526   2.086   1.663  12.735
11813POPC  H13X78527   2.175   1.667  12.801
11813POPC  H13Y78528   2.012   1.594  12.781
11813POPC  C31478529   2.031   1.805  12.728
11813POPC  H14X78530   1.948   1.808  12.655
11813POPC  H14Y78531   2.111   1.874  12.693
11813POPC  C31578532   1.982   1.852  12.865
11813POPC  H15X78533   1.892   1.791  12.889
11813POPC  H15Y78534   1.951   1.958  12.857
11813POPC  C31678535   2.086   1.836  12.976
11813POPC  H16X78536   2.183   1.879  12.944
11813POPC  H16Y78537   2.103   1.728  13.000
11813POPC  H16Z78538   2.054   1.886  13.070
11814POPC     N78539   7.985   2.560  10.663
11814POPC   C1278540   7.938   2.564  10.807
11814POPC  H12A78541   7.889   2.469  10.833
11814POPC  H12B78542   7.858   2.635  10.819
11814POPC   C1378543   7.871   2.555  10.568
11814POPC  H13A78544   7.807   2.642  10.573
11814POPC  H13B78545   7.906   2.543  10.467
11814POPC  H13C78546   7.809   2.468  10.590
11814POPC   C1478547   8.071   2.678  10.628
11814POPC  H14A78548   8.160   2.680  10.691
11814POPC  H14B78549   8.102   2.671  10.525
11814POPC  H14C78550   8.017   2.771  10.641
11814POPC   C1578551   8.069   2.436  10.651
11814POPC  H15A78552   8.010   2.347  10.666
11814POPC  H15B78553   8.141   2.438  10.733
11814POPC  H15C78554   8.124   2.430  10.559
11814POPC   C1178555   8.046   2.587  10.913
11814POPC  H11A78556   7.996   2.611  11.009
11814POPC  H11B78557   8.109   2.676  10.889
11814POPC     P78558   8.086   2.354  11.018
11814POPC   O1378559   8.195   2.255  11.028
11814POPC   O1478560   7.951   2.310  10.976
11814POPC   O1278561   8.131   2.472  10.922
11814POPC   O1178562   8.076   2.441  11.148
11814POPC    C178563   8.192   2.516  11.189
11814POPC    HA78564   8.150   2.583  11.264
11814POPC    HB78565   8.237   2.578  11.109
11814POPC    C278566   8.298   2.428  11.258
11814POPC    HS78567   8.343   2.361  11.181
11814POPC   O2178568   8.216   2.352  11.346
11814POPC   C2178569   8.272   2.266  11.419
11814POPC   O2278570   8.391   2.250  11.440
11814POPC   C2278571   8.161   2.187  11.483
11814POPC   H2R78572   8.141   2.102  11.416
11814POPC   H2S78573   8.070   2.249  11.494
11814POPC    C378574   8.417   2.502  11.331
11814POPC    HX78575   8.448   2.587  11.267
11814POPC    HY78576   8.503   2.431  11.333
11814POPC   O3178577   8.385   2.544  11.466
11814POPC   C3178578   8.483   2.604  11.531
11814POPC   O3278579   8.595   2.623  11.486
11814POPC   C3278580   8.440   2.652  11.672
11814POPC   H2X78581   8.517   2.605  11.737
11814POPC   H2Y78582   8.344   2.610  11.702
11814POPC   C2378583   8.217   2.145  11.617
11814POPC   H3R78584   8.317   2.095  11.605
11814POPC   H3S78585   8.154   2.072  11.669
11814POPC   C2478586   8.224   2.258  11.716
11814POPC   H4R78587   8.120   2.281  11.751
11814POPC   H4S78588   8.269   2.351  11.675
11814POPC   C2578589   8.307   2.202  11.828
11814POPC   H5R78590   8.305   2.090  11.823
11814POPC   H5S78591   8.257   2.231  11.922
11814POPC   C2678592   8.453   2.243  11.823
11814POPC   H6R78593   8.464   2.353  11.829
11814POPC   H6S78594   8.493   2.215  11.722
11814POPC   C2778595   8.535   2.173  11.932
11814POPC   H7R78596   8.638   2.211  11.927
11814POPC   H7S78597   8.538   2.065  11.899
11814POPC   C2878598   8.477   2.174  12.077
11814POPC   H8R78599   8.457   2.066  12.098
11814POPC   H8S78600   8.378   2.221  12.073
11814POPC   C2978601   8.547   2.227  12.201
11814POPC   H9178602   8.651   2.193  12.213
11814POPC  C21078603   8.499   2.316  12.293
11814POPC  H10178604   8.562   2.338  12.381
11814POPC  C21178605   8.363   2.384  12.294
11814POPC  H11R78606   8.292   2.322  12.235
11814POPC  H11S78607   8.372   2.479  12.239
11814POPC  C21278608   8.285   2.423  12.423
11814POPC  H12R78609   8.321   2.361  12.508
11814POPC  H12S78610   8.178   2.395  12.406
11814POPC  C21378611   8.283   2.571  12.471
11814POPC  H13R78612   8.380   2.586  12.522
11814POPC  H13S78613   8.206   2.582  12.551
11814POPC  C21478614   8.263   2.691  12.377
11814POPC  H14R78615   8.156   2.720  12.368
11814POPC  H14S78616   8.297   2.668  12.275
11814POPC  C21578617   8.336   2.813  12.437
11814POPC  H15R78618   8.368   2.887  12.360
11814POPC  H15S78619   8.429   2.778  12.488
11814POPC  C21678620   8.250   2.880  12.544
11814POPC  H16R78621   8.206   2.802  12.609
11814POPC  H16S78622   8.165   2.934  12.497
11814POPC  C21778623   8.337   2.974  12.627
11814POPC  H17R78624   8.365   3.053  12.555
11814POPC  H17S78625   8.431   2.924  12.658
11814POPC  C21878626   8.269   3.036  12.749
11814POPC  H18R78627   8.292   3.144  12.756
11814POPC  H18S78628   8.306   2.987  12.842
11814POPC  H18T78629   8.159   3.023  12.744
11814POPC   C3378630   8.447   2.805  11.699
11814POPC   H3X78631   8.462   2.857  11.601
11814POPC   H3Y78632   8.542   2.823  11.754
11814POPC   C3478633   8.337   2.888  11.776
11814POPC   H4X78634   8.296   2.956  11.700
11814POPC   H4Y78635   8.391   2.945  11.854
11814POPC   C3578636   8.214   2.833  11.854
11814POPC   H5X78637   8.239   2.797  11.955
11814POPC   H5Y78638   8.190   2.748  11.791
11814POPC   C3678639   8.089   2.922  11.871
11814POPC   H6X78640   8.051   2.942  11.768
11814POPC   H6Y78641   8.118   3.017  11.919
11814POPC   C3778642   7.965   2.869  11.952
11814POPC   H7X78643   7.922   2.783  11.898
11814POPC   H7Y78644   7.889   2.950  11.947
11814POPC   C3878645   7.983   2.832  12.102
11814POPC   H8X78646   7.955   2.919  12.166
11814POPC   H8Y78647   8.091   2.813  12.120
11814POPC   C3978648   7.904   2.705  12.145
11814POPC   H9X78649   7.983   2.629  12.167
11814POPC   H9Y78650   7.845   2.664  12.060
11814POPC  C31078651   7.810   2.718  12.268
11814POPC  H10X78652   7.712   2.759  12.235
11814POPC  H10Y78653   7.855   2.793  12.337
11814POPC  C31178654   7.786   2.590  12.351
11814POPC  H11X78655   7.719   2.519  12.299
11814POPC  H11Y78656   7.735   2.620  12.445
11814POPC  C31278657   7.917   2.518  12.389
11814POPC  H12X78658   7.999   2.592  12.382
11814POPC  H12Y78659   7.939   2.438  12.316
11814POPC  C31378660   7.923   2.462  12.533
11814POPC  H13X78661   7.885   2.536  12.606
11814POPC  H13Y78662   8.031   2.449  12.556
11814POPC  C31478663   7.852   2.327  12.550
11814POPC  H14X78664   7.858   2.271  12.454
11814POPC  H14Y78665   7.745   2.345  12.572
11814POPC  C31578666   7.915   2.240  12.660
11814POPC  H15X78667   7.850   2.151  12.678
11814POPC  H15Y78668   7.914   2.299  12.754
11814POPC  C31678669   8.057   2.191  12.628
11814POPC  H16X78670   8.057   2.127  12.537
11814POPC  H16Y78671   8.098   2.132  12.713
11814POPC  H16Z78672   8.127   2.275  12.612
11815POPC     N78673   1.793   2.062  10.764
11815POPC   C1278674   1.773   1.932  10.840
11815POPC  H12A78675   1.853   1.919  10.911
11815POPC  H12B78676   1.777   1.849  10.771
11815POPC   C1378677   1.777   2.179  10.856
11815POPC  H13A78678   1.853   2.181  10.934
11815POPC  H13B78679   1.776   2.272  10.802
11815POPC  H13C78680   1.680   2.170  10.905
11815POPC   C1478681   1.925   2.064  10.693
11815POPC  H14A78682   1.937   1.978  10.629
11815POPC  H14B78683   1.936   2.154  10.633
11815POPC  H14C78684   2.007   2.064  10.764
11815POPC   C1578685   1.684   2.073  10.662
11815POPC  H15A78686   1.587   2.052  10.712
11815POPC  H15B78687   1.692   2.004  10.580
11815POPC  H15C78688   1.676   2.172  10.619
11815POPC   C1178689   1.641   1.917  10.921
11815POPC  H11A78690   1.642   1.997  10.999
11815POPC  H11B78691   1.642   1.820  10.974
11815POPC     P78692   1.388   1.971  10.906
11815POPC   O1378693   1.279   1.895  10.842
11815POPC   O1478694   1.390   2.119  10.895
11815POPC   O1278695   1.525   1.923  10.838
11815POPC   O1178696   1.423   1.920  11.053
11815POPC    C178697   1.334   1.862  11.147
11815POPC    HA78698   1.396   1.806  11.221
11815POPC    HB78699   1.268   1.787  11.098
11815POPC    C278700   1.249   1.969  11.223
11815POPC    HS78701   1.142   1.950  11.195
11815POPC   O2178702   1.287   2.098  11.176
11815POPC   C2178703   1.227   2.195  11.236
11815POPC   O2278704   1.117   2.193  11.290
11815POPC   C2278705   1.337   2.292  11.276
11815POPC   H2R78706   1.289   2.325  11.369
11815POPC   H2S78707   1.344   2.373  11.201
11815POPC    C378708   1.260   1.964  11.381
11815POPC    HX78709   1.159   1.991  11.421
11815POPC    HY78710   1.323   2.041  11.426
11815POPC   O3178711   1.300   1.834  11.428
11815POPC   C3178712   1.263   1.806  11.553
11815POPC   O3278713   1.188   1.716  11.585
11815POPC   C3278714   1.347   1.884  11.654
11815POPC   H2X78715   1.291   1.886  11.749
11815POPC   H2Y78716   1.364   1.989  11.621
11815POPC   C2378717   1.475   2.230  11.309
11815POPC   H3R78718   1.531   2.212  11.215
11815POPC   H3S78719   1.467   2.131  11.357
11815POPC   C2478720   1.560   2.309  11.410
11815POPC   H4R78721   1.514   2.305  11.512
11815POPC   H4S78722   1.566   2.416  11.379
11815POPC   C2578723   1.701   2.250  11.415
11815POPC   H5R78724   1.768   2.315  11.476
11815POPC   H5S78725   1.736   2.253  11.310
11815POPC   C2678726   1.712   2.103  11.462
11815POPC   H6R78727   1.815   2.068  11.439
11815POPC   H6S78728   1.645   2.037  11.403
11815POPC   C2778729   1.689   2.077  11.612
11815POPC   H7R78730   1.727   1.974  11.634
11815POPC   H7S78731   1.579   2.077  11.633
11815POPC   C2878732   1.757   2.178  11.706
11815POPC   H8R78733   1.709   2.277  11.692
11815POPC   H8S78734   1.863   2.192  11.676
11815POPC   C2978735   1.752   2.134  11.850
11815POPC   H9178736   1.832   2.065  11.882
11815POPC  C21078737   1.654   2.164  11.936
11815POPC  H10178738   1.659   2.124  12.039
11815POPC  C21178739   1.532   2.248  11.906
11815POPC  H11R78740   1.530   2.283  11.800
11815POPC  H11S78741   1.530   2.339  11.970
11815POPC  C21278742   1.404   2.166  11.928
11815POPC  H12R78743   1.407   2.073  11.867
11815POPC  H12S78744   1.317   2.226  11.894
11815POPC  C21378745   1.384   2.127  12.075
11815POPC  H13R78746   1.390   2.217  12.140
11815POPC  H13S78747   1.465   2.057  12.105
11815POPC  C21478748   1.251   2.056  12.096
11815POPC  H14R78749   1.256   1.996  12.189
11815POPC  H14S78750   1.233   1.985  12.012
11815POPC  C21578751   1.138   2.158  12.105
11815POPC  H15R78752   1.053   2.130  12.041
11815POPC  H15S78753   1.174   2.255  12.062
11815POPC  C21678754   1.098   2.188  12.250
11815POPC  H16R78755   1.017   2.264  12.248
11815POPC  H16S78756   1.192   2.226  12.294
11815POPC  C21778757   1.053   2.079  12.346
11815POPC  H17R78758   1.134   2.004  12.355
11815POPC  H17S78759   0.962   2.034  12.303
11815POPC  C21878760   1.016   2.127  12.487
11815POPC  H18R78761   0.982   2.043  12.550
11815POPC  H18S78762   0.933   2.200  12.483
11815POPC  H18T78763   1.104   2.175  12.535
11815POPC   C3378764   1.481   1.807  11.663
11815POPC   H3X78765   1.550   1.842  11.584
11815POPC   H3Y78766   1.459   1.699  11.641
11815POPC   C3478767   1.558   1.795  11.796
11815POPC   H4X78768   1.489   1.775  11.881
11815POPC   H4Y78769   1.613   1.888  11.818
11815POPC   C3578770   1.652   1.674  11.777
11815POPC   H5X78771   1.673   1.664  11.668
11815POPC   H5Y78772   1.597   1.582  11.807
11815POPC   C3678773   1.787   1.676  11.848
11815POPC   H6X78774   1.848   1.762  11.809
11815POPC   H6Y78775   1.842   1.582  11.824
11815POPC   C3778776   1.770   1.690  11.998
11815POPC   H7X78777   1.708   1.782  12.006
11815POPC   H7Y78778   1.868   1.707  12.048
11815POPC   C3878779   1.693   1.578  12.067
11815POPC   H8X78780   1.741   1.480  12.046
11815POPC   H8Y78781   1.589   1.573  12.025
11815POPC   C3978782   1.683   1.597  12.219
11815POPC   H9X78783   1.784   1.589  12.264
11815POPC   H9Y78784   1.624   1.511  12.258
11815POPC  C31078785   1.616   1.728  12.264
11815POPC  H10X78786   1.587   1.714  12.371
11815POPC  H10Y78787   1.522   1.745  12.206
11815POPC  C31178788   1.705   1.853  12.259
11815POPC  H11X78789   1.731   1.888  12.157
11815POPC  H11Y78790   1.802   1.827  12.305
11815POPC  C31278791   1.642   1.976  12.325
11815POPC  H12X78792   1.555   1.945  12.386
11815POPC  H12Y78793   1.604   2.044  12.246
11815POPC  C31378794   1.743   2.056  12.408
11815POPC  H13X78795   1.696   2.150  12.443
11815POPC  H13Y78796   1.830   2.082  12.344
11815POPC  C31478797   1.789   1.976  12.530
11815POPC  H14X78798   1.871   2.031  12.581
11815POPC  H14Y78799   1.832   1.879  12.497
11815POPC  C31578800   1.675   1.949  12.628
11815POPC  H15X78801   1.578   1.988  12.589
11815POPC  H15Y78802   1.697   2.012  12.715
11815POPC  C31678803   1.658   1.804  12.673
11815POPC  H16X78804   1.687   1.794  12.780
11815POPC  H16Y78805   1.722   1.735  12.614
11815POPC  H16Z78806   1.552   1.771  12.663
11816POPC     N78807   1.344   7.207  10.861
11816POPC   C1278808   1.341   7.332  10.949
11816POPC  H12A78809   1.300   7.305  11.046
11816POPC  H12B78810   1.277   7.405  10.902
11816POPC   C1378811   1.453   7.115  10.906
11816POPC  H13A78812   1.473   7.040  10.830
11816POPC  H13B78813   1.546   7.171  10.918
11816POPC  H13C78814   1.433   7.065  10.999
11816POPC   C1478815   1.213   7.135  10.868
11816POPC  H14A78816   1.192   7.101  10.969
11816POPC  H14B78817   1.133   7.199  10.834
11816POPC  H14C78818   1.216   7.046  10.806
11816POPC   C1578819   1.376   7.246  10.720
11816POPC  H15A78820   1.301   7.306  10.670
11816POPC  H15B78821   1.396   7.159  10.659
11816POPC  H15C78822   1.468   7.307  10.723
11816POPC   C1178823   1.473   7.408  10.978
11816POPC  H11A78824   1.535   7.344  11.047
11816POPC  H11B78825   1.450   7.501  11.035
11816POPC     P78826   1.692   7.403  10.842
11816POPC   O1378827   1.738   7.424  10.704
11816POPC   O1478828   1.706   7.263  10.888
11816POPC   O1278829   1.539   7.445  10.857
11816POPC   O1178830   1.763   7.502  10.942
11816POPC    C178831   1.891   7.476  10.998
11816POPC    HA78832   1.931   7.572  11.035
11816POPC    HB78833   1.961   7.437  10.921
11816POPC    C278834   1.886   7.378  11.119
11816POPC    HS78835   1.871   7.276  11.078
11816POPC   O2178836   1.777   7.419  11.204
11816POPC   C2178837   1.717   7.322  11.270
11816POPC   O2278838   1.743   7.203  11.262
11816POPC   C2278839   1.615   7.383  11.366
11816POPC   H2R78840   1.523   7.405  11.307
11816POPC   H2S78841   1.657   7.479  11.404
11816POPC    C378842   2.023   7.384  11.194
11816POPC    HX78843   2.044   7.491  11.218
11816POPC    HY78844   2.102   7.352  11.122
11816POPC   O3178845   2.031   7.299  11.312
11816POPC   C3178846   1.989   7.358  11.424
11816POPC   O3278847   1.941   7.469  11.431
11816POPC   C3278848   2.018   7.269  11.544
11816POPC   H2X78849   2.123   7.233  11.538
11816POPC   H2Y78850   1.950   7.182  11.538
11816POPC   C2378851   1.580   7.293  11.488
11816POPC   H3R78852   1.671   7.279  11.549
11816POPC   H3S78853   1.547   7.193  11.453
11816POPC   C2478854   1.470   7.355  11.576
11816POPC   H4R78855   1.381   7.374  11.512
11816POPC   H4S78856   1.505   7.453  11.614
11816POPC   C2578857   1.425   7.269  11.696
11816POPC   H5R78858   1.510   7.256  11.767
11816POPC   H5S78859   1.395   7.168  11.661
11816POPC   C2678860   1.307   7.334  11.770
11816POPC   H6R78861   1.233   7.369  11.694
11816POPC   H6S78862   1.342   7.424  11.825
11816POPC   C2778863   1.231   7.242  11.868
11816POPC   H7R78864   1.187   7.157  11.810
11816POPC   H7S78865   1.145   7.298  11.911
11816POPC   C2878866   1.315   7.185  11.983
11816POPC   H8R78867   1.402   7.129  11.942
11816POPC   H8S78868   1.252   7.109  12.035
11816POPC   C2978869   1.362   7.293  12.078
11816POPC   H9178870   1.454   7.345  12.046
11816POPC  C21078871   1.304   7.329  12.194
11816POPC  H10178872   1.350   7.409  12.253
11816POPC  C21178873   1.179   7.269  12.254
11816POPC  H11R78874   1.101   7.255  12.175
11816POPC  H11S78875   1.134   7.338  12.329
11816POPC  C21278876   1.203   7.132  12.321
11816POPC  H12R78877   1.238   7.060  12.244
11816POPC  H12S78878   1.105   7.093  12.358
11816POPC  C21378879   1.301   7.129  12.438
11816POPC  H13R78880   1.245   7.147  12.533
11816POPC  H13S78881   1.378   7.209  12.428
11816POPC  C21478882   1.373   6.993  12.445
11816POPC  H14R78883   1.299   6.912  12.425
11816POPC  H14S78884   1.410   6.977  12.548
11816POPC  C21578885   1.488   6.982  12.343
11816POPC  H15R78886   1.453   7.017  12.244
11816POPC  H15S78887   1.514   6.875  12.328
11816POPC  C21678888   1.617   7.059  12.380
11816POPC  H16R78889   1.601   7.160  12.337
11816POPC  H16S78890   1.702   7.012  12.327
11816POPC  C21778891   1.652   7.079  12.529
11816POPC  H17R78892   1.614   6.994  12.590
11816POPC  H17S78893   1.598   7.171  12.563
11816POPC  C21878894   1.801   7.094  12.563
11816POPC  H18R78895   1.854   7.156  12.489
11816POPC  H18S78896   1.850   6.995  12.567
11816POPC  H18T78897   1.813   7.143  12.662
11816POPC   C3378898   1.997   7.348  11.676
11816POPC   H3X78899   1.910   7.418  11.668
11816POPC   H3Y78900   2.086   7.410  11.697
11816POPC   C3478901   1.967   7.256  11.795
11816POPC   H4X78902   1.983   7.314  11.889
11816POPC   H4Y78903   2.037   7.170  11.794
11816POPC   C3578904   1.820   7.210  11.790
11816POPC   H5X78905   1.796   7.175  11.687
11816POPC   H5Y78906   1.755   7.298  11.811
11816POPC   C3678907   1.784   7.097  11.887
11816POPC   H6X78908   1.826   7.001  11.850
11816POPC   H6Y78909   1.673   7.085  11.888
11816POPC   C3778910   1.834   7.121  12.029
11816POPC   H7X78911   1.944   7.136  12.030
11816POPC   H7Y78912   1.813   7.030  12.088
11816POPC   C3878913   1.764   7.234  12.103
11816POPC   H8X78914   1.658   7.202  12.118
11816POPC   H8Y78915   1.762   7.326  12.043
11816POPC   C3978916   1.828   7.257  12.241
11816POPC   H9X78917   1.868   7.161  12.280
11816POPC   H9Y78918   1.748   7.289  12.311
11816POPC  C31078919   1.935   7.365  12.248
11816POPC  H10X78920   2.025   7.335  12.190
11816POPC  H10Y78921   1.967   7.375  12.355
11816POPC  C31178922   1.885   7.502  12.200
11816POPC  H11X78923   1.883   7.503  12.089
11816POPC  H11Y78924   1.961   7.576  12.234
11816POPC  C31278925   1.747   7.543  12.255
11816POPC  H12X78926   1.668   7.474  12.219
11816POPC  H12Y78927   1.719   7.644  12.218
11816POPC  C31378928   1.749   7.549  12.407
11816POPC  H13X78929   1.840   7.606  12.436
11816POPC  H13Y78930   1.758   7.448  12.451
11816POPC  C31478931   1.629   7.620  12.469
11816POPC  H14X78932   1.535   7.563  12.451
11816POPC  H14Y78933   1.617   7.721  12.424
11816POPC  C31578934   1.655   7.633  12.618
11816POPC  H15X78935   1.763   7.618  12.639
11816POPC  H15Y78936   1.603   7.552  12.672
11816POPC  C31678937   1.617   7.770  12.673
11816POPC  H16X78938   1.513   7.797  12.645
11816POPC  H16Y78939   1.686   7.849  12.637
11816POPC  H16Z78940   1.623   7.764  12.783
11817POPC     N78941   8.559   6.268  11.045
11817POPC   C1278942   8.551   6.365  10.929
11817POPC  H12A78943   8.647   6.412  10.919
11817POPC  H12B78944   8.479   6.443  10.953
11817POPC   C1378945   8.426   6.201  11.061
11817POPC  H13A78946   8.427   6.118  11.129
11817POPC  H13B78947   8.348   6.270  11.093
11817POPC  H13C78948   8.390   6.166  10.963
11817POPC   C1478949   8.663   6.162  11.024
11817POPC  H14A78950   8.636   6.101  10.938
11817POPC  H14B78951   8.761   6.206  11.006
11817POPC  H14C78952   8.671   6.098  11.111
11817POPC   C1578953   8.599   6.342  11.169
11817POPC  H15A78954   8.600   6.275  11.254
11817POPC  H15B78955   8.533   6.424  11.191
11817POPC  H15C78956   8.699   6.382  11.157
11817POPC   C1178957   8.506   6.310  10.792
11817POPC  H11A78958   8.547   6.207  10.779
11817POPC  H11B78959   8.548   6.375  10.714
11817POPC     P78960   8.297   6.205  10.685
11817POPC   O1378961   8.389   6.167  10.575
11817POPC   O1478962   8.155   6.236  10.651
11817POPC   O1278963   8.364   6.317  10.779
11817POPC   O1178964   8.301   6.086  10.790
11817POPC    C178965   8.190   6.000  10.816
11817POPC    HA78966   8.231   5.904  10.853
11817POPC    HB78967   8.132   5.977  10.723
11817POPC    C278968   8.092   6.055  10.925
11817POPC    HS78969   7.998   6.078  10.870
11817POPC   O2178970   8.146   6.173  10.988
11817POPC   C2178971   8.061   6.273  11.007
11817POPC   O2278972   7.942   6.270  10.983
11817POPC   C2278973   8.133   6.393  11.067
11817POPC   H2R78974   8.083   6.484  11.029
11817POPC   H2S78975   8.236   6.395  11.028
11817POPC    C378976   8.063   5.946  11.032
11817POPC    HX78977   8.018   5.859  10.979
11817POPC    HY78978   7.982   5.984  11.100
11817POPC   O3178979   8.182   5.900  11.102
11817POPC   C3178980   8.207   5.967  11.217
11817POPC   O3278981   8.134   6.053  11.263
11817POPC   C3278982   8.335   5.920  11.285
11817POPC   H2X78983   8.420   5.936  11.216
11817POPC   H2Y78984   8.324   5.812  11.306
11817POPC   C2378985   8.129   6.393  11.222
11817POPC   H3R78986   8.122   6.289  11.261
11817POPC   H3S78987   8.037   6.446  11.254
11817POPC   C2478988   8.252   6.456  11.288
11817POPC   H4R78989   8.269   6.555  11.239
11817POPC   H4S78990   8.342   6.394  11.270
11817POPC   C2578991   8.233   6.480  11.438
11817POPC   H5R78992   8.125   6.503  11.454
11817POPC   H5S78993   8.294   6.567  11.470
11817POPC   C2678994   8.262   6.365  11.535
11817POPC   H6R78995   8.370   6.338  11.531
11817POPC   H6S78996   8.202   6.276  11.505
11817POPC   C2778997   8.225   6.409  11.678
11817POPC   H7R78998   8.114   6.422  11.683
11817POPC   H7S78999   8.270   6.509  11.698
11817POPC   C2879000   8.272   6.314  11.789
11817POPC   H8R79001   8.242   6.359  11.886
11817POPC   H8S79002   8.383   6.310  11.787
11817POPC   C2979003   8.215   6.175  11.774
11817POPC   H9179004   8.201   6.140  11.671
11817POPC  C21079005   8.183   6.093  11.876
11817POPC  H10179006   8.145   5.993  11.853
11817POPC  C21179007   8.199   6.126  12.021
11817POPC  H11R79008   8.295   6.180  12.037
11817POPC  H11S79009   8.206   6.031  12.079
11817POPC  C21279010   8.092   6.215  12.086
11817POPC  H12R79011   7.999   6.155  12.094
11817POPC  H12S79012   8.070   6.304  12.023
11817POPC  C21379013   8.144   6.263  12.222
11817POPC  H13R79014   8.215   6.348  12.206
11817POPC  H13S79015   8.204   6.181  12.267
11817POPC  C21479016   8.036   6.304  12.322
11817POPC  H14R79017   7.985   6.397  12.289
11817POPC  H14S79018   8.086   6.325  12.419
11817POPC  C21579019   7.931   6.194  12.345
11817POPC  H15R79020   7.866   6.187  12.255
11817POPC  H15S79021   7.866   6.224  12.430
11817POPC  C21679022   7.995   6.057  12.374
11817POPC  H16R79023   8.085   6.078  12.434
11817POPC  H16S79024   8.031   6.009  12.280
11817POPC  C21779025   7.904   5.959  12.450
11817POPC  H17R79026   7.834   5.910  12.379
11817POPC  H17S79027   7.845   6.015  12.526
11817POPC  C21879028   7.975   5.842  12.516
11817POPC  H18R79029   8.062   5.869  12.575
11817POPC  H18S79030   8.002   5.766  12.441
11817POPC  H18T79031   7.909   5.799  12.592
11817POPC   C3379032   8.359   5.997  11.418
11817POPC   H3X79033   8.275   5.977  11.489
11817POPC   H3Y79034   8.359   6.107  11.400
11817POPC   C3479035   8.491   5.961  11.489
11817POPC   H4X79036   8.576   5.979  11.419
11817POPC   H4Y79037   8.492   5.853  11.515
11817POPC   C3579038   8.514   6.043  11.617
11817POPC   H5X79039   8.435   6.019  11.692
11817POPC   H5Y79040   8.505   6.151  11.592
11817POPC   C3679041   8.652   6.021  11.682
11817POPC   H6X79042   8.728   6.028  11.602
11817POPC   H6Y79043   8.658   5.918  11.725
11817POPC   C3779044   8.689   6.125  11.790
11817POPC   H7X79045   8.630   6.217  11.778
11817POPC   H7Y79046   8.796   6.152  11.774
11817POPC   C3879047   8.679   6.075  11.936
11817POPC   H8X79048   8.734   6.147  12.001
11817POPC   H8Y79049   8.728   5.976  11.946
11817POPC   C3979050   8.534   6.067  11.987
11817POPC   H9X79051   8.476   6.001  11.918
11817POPC   H9Y79052   8.492   6.169  11.980
11817POPC  C31079053   8.518   6.013  12.131
11817POPC  H10X79054   8.558   5.910  12.136
11817POPC  H10Y79055   8.410   6.008  12.155
11817POPC  C31179056   8.587   6.100  12.237
11817POPC  H11X79057   8.565   6.207  12.218
11817POPC  H11Y79058   8.697   6.086  12.228
11817POPC  C31279059   8.546   6.068  12.382
11817POPC  H12X79060   8.525   5.959  12.393
11817POPC  H12Y79061   8.451   6.123  12.401
11817POPC  C31379062   8.653   6.111  12.484
11817POPC  H13X79063   8.710   6.196  12.441
11817POPC  H13Y79064   8.723   6.025  12.494
11817POPC  C31479065   8.606   6.152  12.625
11817POPC  H14X79066   8.694   6.140  12.692
11817POPC  H14Y79067   8.528   6.084  12.665
11817POPC  C31579068   8.561   6.299  12.641
11817POPC  H15X79069   8.646   6.365  12.611
11817POPC  H15Y79070   8.542   6.317  12.749
11817POPC  C31679071   8.437   6.342  12.563
11817POPC  H16X79072   8.454   6.337  12.453
11817POPC  H16Y79073   8.405   6.445  12.590
11817POPC  H16Z79074   8.353   6.274  12.585
11818POPC     N79075   0.721   4.974  10.704
11818POPC   C1279076   0.704   4.858  10.801
11818POPC  H12A79077   0.800   4.828  10.841
11818POPC  H12B79078   0.667   4.772  10.744
11818POPC   C1379079   0.832   4.948  10.608
11818POPC  H13A79080   0.804   4.866  10.544
11818POPC  H13B79081   0.849   5.036  10.547
11818POPC  H13C79082   0.925   4.922  10.658
11818POPC   C1479083   0.593   4.987  10.624
11818POPC  H14A79084   0.509   5.005  10.692
11818POPC  H14B79085   0.597   5.068  10.553
11818POPC  H14C79086   0.569   4.894  10.574
11818POPC   C1579087   0.745   5.103  10.777
11818POPC  H15A79088   0.825   5.092  10.850
11818POPC  H15B79089   0.655   5.128  10.834
11818POPC  H15C79090   0.767   5.186  10.711
11818POPC   C1179091   0.604   4.876  10.918
11818POPC  H11A79092   0.636   4.960  10.985
11818POPC  H11B79093   0.601   4.783  10.979
11818POPC     P79094   0.350   4.939  10.949
11818POPC   O1379095   0.319   4.829  11.042
11818POPC   O1479096   0.245   4.977  10.852
11818POPC   O1279097   0.476   4.900  10.862
11818POPC   O1179098   0.398   5.058  11.043
11818POPC    C179099   0.443   5.188  11.012
11818POPC    HA79100   0.359   5.245  10.966
11818POPC    HB79101   0.522   5.182  10.935
11818POPC    C279102   0.498   5.273  11.134
11818POPC    HS79103   0.490   5.380  11.102
11818POPC   O2179104   0.635   5.238  11.163
11818POPC   C2179105   0.719   5.296  11.079
11818POPC   O2279106   0.686   5.363  10.983
11818POPC   C2279107   0.865   5.265  11.111
11818POPC   H2R79108   0.898   5.325  11.198
11818POPC   H2S79109   0.922   5.301  11.022
11818POPC    C379110   0.428   5.275  11.274
11818POPC    HX79111   0.346   5.348  11.268
11818POPC    HY79112   0.502   5.318  11.346
11818POPC   O3179113   0.379   5.149  11.324
11818POPC   C3179114   0.327   5.155  11.447
11818POPC   O3279115   0.338   5.250  11.523
11818POPC   C3279116   0.240   5.029  11.466
11818POPC   H2X79117   0.307   4.943  11.482
11818POPC   H2Y79118   0.187   5.014  11.369
11818POPC   C2379119   0.896   5.115  11.131
11818POPC   H3R79120   0.996   5.096  11.084
11818POPC   H3S79121   0.824   5.050  11.077
11818POPC   C2479122   0.909   5.072  11.278
11818POPC   H4R79123   0.969   5.146  11.335
11818POPC   H4S79124   0.965   4.976  11.279
11818POPC   C2579125   0.775   5.048  11.349
11818POPC   H5R79126   0.708   4.989  11.282
11818POPC   H5S79127   0.725   5.144  11.371
11818POPC   C2679128   0.793   4.969  11.479
11818POPC   H6R79129   0.850   5.030  11.553
11818POPC   H6S79130   0.853   4.878  11.458
11818POPC   C2779131   0.660   4.925  11.542
11818POPC   H7R79132   0.599   4.874  11.465
11818POPC   H7S79133   0.604   5.016  11.575
11818POPC   C2879134   0.684   4.831  11.661
11818POPC   H8R79135   0.748   4.885  11.735
11818POPC   H8S79136   0.741   4.743  11.626
11818POPC   C2979137   0.552   4.788  11.721
11818POPC   H9179138   0.488   4.728  11.654
11818POPC  C21079139   0.508   4.820  11.843
11818POPC  H10179140   0.408   4.785  11.875
11818POPC  C21179141   0.582   4.904  11.943
11818POPC  H11R79142   0.691   4.878  11.947
11818POPC  H11S79143   0.543   4.881  12.044
11818POPC  C21279144   0.570   5.056  11.915
11818POPC  H12R79145   0.465   5.081  11.888
11818POPC  H12S79146   0.633   5.081  11.827
11818POPC  C21379147   0.610   5.143  12.035
11818POPC  H13R79148   0.624   5.248  12.002
11818POPC  H13S79149   0.707   5.106  12.077
11818POPC  C21479150   0.502   5.138  12.143
11818POPC  H14R79151   0.475   5.031  12.159
11818POPC  H14S79152   0.410   5.190  12.105
11818POPC  C21579153   0.540   5.193  12.280
11818POPC  H15R79154   0.649   5.178  12.299
11818POPC  H15S79155   0.485   5.135  12.357
11818POPC  C21679156   0.501   5.340  12.295
11818POPC  H16R79157   0.394   5.353  12.266
11818POPC  H16S79158   0.561   5.395  12.220
11818POPC  C21779159   0.519   5.394  12.437
11818POPC  H17R79160   0.510   5.505  12.436
11818POPC  H17S79161   0.623   5.371  12.470
11818POPC  C21879162   0.417   5.338  12.537
11818POPC  H18R79163   0.441   5.371  12.640
11818POPC  H18S79164   0.415   5.227  12.536
11818POPC  H18T79165   0.316   5.373  12.511
11818POPC   C3379166   0.133   5.037  11.577
11818POPC   H3X79167   0.059   4.956  11.559
11818POPC   H3Y79168   0.077   5.133  11.575
11818POPC   C3479169   0.193   5.016  11.716
11818POPC   H4X79170   0.261   5.102  11.739
11818POPC   H4Y79171   0.256   4.924  11.715
11818POPC   C3579172   0.089   5.005  11.828
11818POPC   H5X79173   0.017   4.923  11.805
11818POPC   H5Y79174   0.031   5.100  11.834
11818POPC   C3679175   0.157   4.977  11.963
11818POPC   H6X79176   0.264   5.006  11.956
11818POPC   H6Y79177   0.154   4.867  11.980
11818POPC   C3779178   0.096   5.053  12.082
11818POPC   H7X79179  -0.011   5.027  12.093
11818POPC   H7Y79180   0.103   5.163  12.061
11818POPC   C3879181   0.169   5.023  12.215
11818POPC   H8X79182   0.129   5.086  12.296
11818POPC   H8Y79183   0.275   5.051  12.204
11818POPC   C3979184   0.161   4.875  12.254
11818POPC   H9X79185   0.211   4.813  12.176
11818POPC   H9Y79186   0.054   4.850  12.255
11818POPC  C31079187   0.219   4.835  12.390
11818POPC  H10X79188   0.202   4.726  12.402
11818POPC  H10Y79189   0.165   4.887  12.472
11818POPC  C31179190   0.369   4.864  12.400
11818POPC  H11X79191   0.379   4.970  12.431
11818POPC  H11Y79192   0.415   4.854  12.299
11818POPC  C31279193   0.445   4.770  12.495
11818POPC  H12X79194   0.440   4.666  12.455
11818POPC  H12Y79195   0.396   4.769  12.595
11818POPC  C31379196   0.592   4.812  12.511
11818POPC  H13X79197   0.635   4.827  12.409
11818POPC  H13Y79198   0.650   4.731  12.560
11818POPC  C31479199   0.604   4.940  12.593
11818POPC  H14X79200   0.598   4.915  12.702
11818POPC  H14Y79201   0.518   5.006  12.572
11818POPC  C31579202   0.729   5.024  12.566
11818POPC  H15X79203   0.740   5.043  12.457
11818POPC  H15Y79204   0.820   4.971  12.601
11818POPC  C31679205   0.714   5.157  12.638
11818POPC  H16X79206   0.691   5.138  12.745
11818POPC  H16Y79207   0.628   5.213  12.599
11818POPC  H16Z79208   0.804   5.221  12.630
11819POPC     N79209   6.942   1.378  10.982
11819POPC   C1279210   7.095   1.374  10.963
11819POPC  H12A79211   7.134   1.286  11.014
11819POPC  H12B79212   7.139   1.458  11.014
11819POPC   C1379213   6.876   1.459  10.874
11819POPC  H13A79214   6.886   1.410  10.778
11819POPC  H13B79215   6.773   1.480  10.896
11819POPC  H13C79216   6.927   1.554  10.864
11819POPC   C1479217   6.889   1.238  10.981
11819POPC  H14A79218   6.932   1.182  11.064
11819POPC  H14B79219   6.782   1.235  10.987
11819POPC  H14C79220   6.922   1.185  10.892
11819POPC   C1579221   6.908   1.435  11.115
11819POPC  H15A79222   6.937   1.540  11.123
11819POPC  H15B79223   6.956   1.382  11.197
11819POPC  H15C79224   6.802   1.434  11.132
11819POPC   C1179225   7.154   1.365  10.821
11819POPC  H11A79226   7.243   1.432  10.818
11819POPC  H11B79227   7.087   1.402  10.740
11819POPC     P79228   7.123   1.126  10.712
11819POPC   O1379229   7.216   1.023  10.661
11819POPC   O1479230   7.038   1.195  10.612
11819POPC   O1279231   7.200   1.233  10.798
11819POPC   O1179232   7.027   1.057  10.819
11819POPC    C179233   6.928   0.969  10.765
11819POPC    HA79234   6.971   0.906  10.683
11819POPC    HB79235   6.842   1.028  10.726
11819POPC    C279236   6.872   0.866  10.867
11819POPC    HS79237   6.806   0.800  10.807
11819POPC   O2179238   6.800   0.931  10.975
11819POPC   C2179239   6.668   0.924  10.972
11819POPC   O2279240   6.601   0.882  10.879
11819POPC   C2279241   6.615   0.962  11.108
11819POPC   H2R79242   6.513   1.002  11.097
11819POPC   H2S79243   6.681   1.041  11.149
11819POPC    C379244   6.981   0.774  10.931
11819POPC    HX79245   7.034   0.723  10.847
11819POPC    HY79246   6.930   0.694  10.990
11819POPC   O3179247   7.067   0.845  11.020
11819POPC   C3179248   7.198   0.828  11.005
11819POPC   O3279249   7.252   0.760  10.919
11819POPC   C3279250   7.271   0.894  11.122
11819POPC   H2X79251   7.357   0.950  11.081
11819POPC   H2Y79252   7.311   0.811  11.184
11819POPC   C2379253   6.615   0.840  11.202
11819POPC   H3R79254   6.707   0.778  11.189
11819POPC   H3S79255   6.527   0.775  11.184
11819POPC   C2479256   6.615   0.886  11.347
11819POPC   H4R79257   6.525   0.948  11.370
11819POPC   H4S79258   6.705   0.951  11.363
11819POPC   C2579259   6.624   0.771  11.447
11819POPC   H5R79260   6.700   0.697  11.413
11819POPC   H5S79261   6.526   0.718  11.453
11819POPC   C2679262   6.666   0.826  11.582
11819POPC   H6R79263   6.596   0.908  11.611
11819POPC   H6S79264   6.768   0.871  11.572
11819POPC   C2779265   6.671   0.722  11.693
11819POPC   H7R79266   6.727   0.633  11.656
11819POPC   H7S79267   6.568   0.688  11.719
11819POPC   C2879268   6.743   0.775  11.818
11819POPC   H8R79269   6.847   0.801  11.788
11819POPC   H8S79270   6.751   0.690  11.889
11819POPC   C2979271   6.679   0.895  11.883
11819POPC   H9179272   6.645   0.975  11.815
11819POPC  C21079273   6.668   0.912  12.015
11819POPC  H10179274   6.626   1.005  12.057
11819POPC  C21179275   6.718   0.811  12.115
11819POPC  H11R79276   6.694   0.708  12.083
11819POPC  H11S79277   6.665   0.822  12.212
11819POPC  C21279278   6.871   0.822  12.133
11819POPC  H12R79279   6.921   0.805  12.035
11819POPC  H12S79280   6.911   0.743  12.198
11819POPC  C21379281   6.921   0.956  12.189
11819POPC  H13R79282   6.919   1.027  12.104
11819POPC  H13S79283   7.026   0.941  12.220
11819POPC  C21479284   6.840   1.020  12.304
11819POPC  H14R79285   6.744   0.968  12.321
11819POPC  H14S79286   6.816   1.125  12.276
11819POPC  C21579287   6.911   1.023  12.439
11819POPC  H15R79288   7.003   1.084  12.437
11819POPC  H15S79289   6.944   0.920  12.464
11819POPC  C21679290   6.822   1.083  12.547
11819POPC  H16R79291   6.760   1.004  12.595
11819POPC  H16S79292   6.752   1.156  12.500
11819POPC  C21779293   6.903   1.159  12.652
11819POPC  H17R79294   6.937   1.256  12.609
11819POPC  H17S79295   6.996   1.101  12.675
11819POPC  C21879296   6.825   1.183  12.780
11819POPC  H18R79297   6.812   1.089  12.837
11819POPC  H18S79298   6.725   1.225  12.758
11819POPC  H18T79299   6.881   1.254  12.843
11819POPC   C3379300   7.180   0.986  11.207
11819POPC   H3X79301   7.090   0.930  11.242
11819POPC   H3Y79302   7.146   1.071  11.145
11819POPC   C3479303   7.253   1.037  11.332
11819POPC   H4X79304   7.351   1.080  11.300
11819POPC   H4Y79305   7.275   0.950  11.398
11819POPC   C3579306   7.174   1.142  11.411
11819POPC   H5X79307   7.172   1.238  11.356
11819POPC   H5Y79308   7.235   1.157  11.503
11819POPC   C3679309   7.030   1.102  11.446
11819POPC   H6X79310   7.025   0.992  11.462
11819POPC   H6Y79311   6.964   1.122  11.359
11819POPC   C3779312   6.969   1.170  11.571
11819POPC   H7X79313   6.873   1.118  11.595
11819POPC   H7Y79314   6.945   1.275  11.546
11819POPC   C3879315   7.059   1.168  11.696
11819POPC   H8X79316   7.155   1.219  11.672
11819POPC   H8Y79317   7.082   1.064  11.727
11819POPC   C3979318   7.003   1.247  11.816
11819POPC   H9X79319   6.922   1.188  11.867
11819POPC   H9Y79320   6.956   1.340  11.778
11819POPC  C31079321   7.113   1.287  11.917
11819POPC  H10X79322   7.090   1.388  11.955
11819POPC  H10Y79323   7.212   1.292  11.866
11819POPC  C31179324   7.120   1.193  12.038
11819POPC  H11X79325   7.132   1.089  12.001
11819POPC  H11Y79326   7.022   1.201  12.090
11819POPC  C31279327   7.229   1.222  12.142
11819POPC  H12X79328   7.213   1.321  12.188
11819POPC  H12Y79329   7.329   1.223  12.095
11819POPC  C31379330   7.220   1.113  12.251
11819POPC  H13X79331   7.228   1.013  12.202
11819POPC  H13Y79332   7.117   1.122  12.289
11819POPC  C31479333   7.317   1.115  12.370
11819POPC  H14X79334   7.423   1.109  12.337
11819POPC  H14Y79335   7.296   1.024  12.432
11819POPC  C31579336   7.302   1.235  12.461
11819POPC  H15X79337   7.195   1.240  12.492
11819POPC  H15Y79338   7.326   1.328  12.405
11819POPC  C31679339   7.390   1.226  12.587
11819POPC  H16X79340   7.354   1.146  12.655
11819POPC  H16Y79341   7.389   1.322  12.643
11819POPC  H16Z79342   7.496   1.205  12.558
11820POPC     N79343   5.957   8.657  10.709
11820POPC   C1279344   5.962   8.654  10.862
11820POPC  H12A79345   5.965   8.756  10.899
11820POPC  H12B79346   6.053   8.608  10.896
11820POPC   C1379347   5.862   8.767  10.672
11820POPC  H13A79348   5.854   8.781  10.566
11820POPC  H13B79349   5.765   8.748  10.718
11820POPC  H13C79350   5.895   8.861  10.716
11820POPC   C1479351   6.086   8.692  10.644
11820POPC  H14A79352   6.071   8.706  10.536
11820POPC  H14B79353   6.121   8.790  10.677
11820POPC  H14C79354   6.163   8.619  10.659
11820POPC   C1579355   5.895   8.529  10.659
11820POPC  H15A79356   5.848   8.543  10.563
11820POPC  H15B79357   5.814   8.508  10.730
11820POPC  H15C79358   5.963   8.446  10.660
11820POPC   C1179359   5.841   8.584  10.931
11820POPC  H11A79360   5.852   8.596  11.042
11820POPC  H11B79361   5.848   8.474  10.913
11820POPC     P79362   5.609   8.697  10.976
11820POPC   O1379363   5.582   8.600  11.084
11820POPC   O1479364   5.494   8.746  10.895
11820POPC   O1279365   5.716   8.632  10.878
11820POPC   O1179366   5.694   8.821  11.027
11820POPC    C179367   5.701   8.845  11.167
11820POPC    HA79368   5.738   8.755  11.223
11820POPC    HB79369   5.601   8.872  11.207
11820POPC    C279370   5.799   8.961  11.193
11820POPC    HS79371   5.849   8.988  11.097
11820POPC   O2179372   5.895   8.921  11.292
11820POPC   C2179373   6.007   8.870  11.250
11820POPC   O2279374   6.036   8.838  11.136
11820POPC   C2279375   6.108   8.883  11.363
11820POPC   H2R79376   6.129   8.992  11.374
11820POPC   H2S79377   6.201   8.832  11.334
11820POPC    C379378   5.724   9.087  11.244
11820POPC    HX79379   5.638   9.103  11.175
11820POPC    HY79380   5.786   9.178  11.235
11820POPC   O3179381   5.673   9.067  11.377
11820POPC   C3179382   5.756   9.073  11.480
11820POPC   O3279383   5.867   9.121  11.482
11820POPC   C3279384   5.690   9.007  11.599
11820POPC   H2X79385   5.705   8.898  11.589
11820POPC   H2Y79386   5.581   9.028  11.596
11820POPC   C2379387   6.057   8.832  11.499
11820POPC   H3R79388   6.070   8.722  11.502
11820POPC   H3S79389   5.948   8.853  11.512
11820POPC   C2479390   6.128   8.903  11.615
11820POPC   H4R79391   6.097   9.011  11.614
11820POPC   H4S79392   6.238   8.899  11.600
11820POPC   C2579393   6.092   8.845  11.751
11820POPC   H5R79394   5.983   8.862  11.765
11820POPC   H5S79395   6.144   8.902  11.832
11820POPC   C2679396   6.119   8.694  11.768
11820POPC   H6R79397   6.200   8.680  11.842
11820POPC   H6S79398   6.153   8.647  11.673
11820POPC   C2779399   5.991   8.626  11.818
11820POPC   H7R79400   5.914   8.625  11.737
11820POPC   H7S79401   5.952   8.693  11.899
11820POPC   C2879402   6.009   8.485  11.875
11820POPC   H8R79403   6.104   8.482  11.933
11820POPC   H8S79404   6.018   8.410  11.793
11820POPC   C2979405   5.889   8.459  11.963
11820POPC   H9179406   5.800   8.420  11.911
11820POPC  C21079407   5.887   8.473  12.096
11820POPC  H10179408   5.794   8.451  12.151
11820POPC  C21179409   6.004   8.518  12.181
11820POPC  H11R79410   6.036   8.621  12.151
11820POPC  H11S79411   6.091   8.451  12.166
11820POPC  C21279412   5.968   8.519  12.332
11820POPC  H12R79413   5.876   8.460  12.352
11820POPC  H12S79414   5.945   8.624  12.358
11820POPC  C21379415   6.077   8.470  12.429
11820POPC  H13R79416   6.166   8.536  12.422
11820POPC  H13S79417   6.112   8.368  12.402
11820POPC  C21479418   6.026   8.464  12.573
11820POPC  H14R79419   6.030   8.360  12.612
11820POPC  H14S79420   5.918   8.493  12.575
11820POPC  C21579421   6.105   8.557  12.666
11820POPC  H15R79422   6.132   8.649  12.609
11820POPC  H15S79423   6.199   8.506  12.696
11820POPC  C21679424   6.026   8.601  12.790
11820POPC  H16R79425   5.982   8.513  12.839
11820POPC  H16S79426   5.942   8.668  12.759
11820POPC  C21779427   6.115   8.676  12.889
11820POPC  H17R79428   6.166   8.760  12.835
11820POPC  H17S79429   6.195   8.607  12.925
11820POPC  C21879430   6.038   8.732  13.007
11820POPC  H18R79431   5.969   8.813  12.974
11820POPC  H18S79432   6.108   8.774  13.083
11820POPC  H18T79433   5.977   8.653  13.056
11820POPC   C3379434   5.749   9.056  11.732
11820POPC   H3X79435   5.745   9.167  11.740
11820POPC   H3Y79436   5.857   9.030  11.736
11820POPC   C3479437   5.674   8.992  11.849
11820POPC   H4X79438   5.682   8.881  11.841
11820POPC   H4Y79439   5.566   9.019  11.841
11820POPC   C3579440   5.726   9.038  11.984
11820POPC   H5X79441   5.659   9.004  12.066
11820POPC   H5Y79442   5.730   9.149  11.984
11820POPC   C3679443   5.868   8.989  12.012
11820POPC   H6X79444   5.937   9.017  11.930
11820POPC   H6Y79445   5.865   8.878  12.019
11820POPC   C3779446   5.924   9.047  12.140
11820POPC   H7X79447   5.846   9.039  12.219
11820POPC   H7Y79448   5.948   9.155  12.130
11820POPC   C3879449   6.048   8.967  12.178
11820POPC   H8X79450   6.132   9.004  12.115
11820POPC   H8Y79451   6.035   8.858  12.157
11820POPC   C3979452   6.084   8.983  12.324
11820POPC   H9X79453   6.061   9.088  12.354
11820POPC   H9Y79454   6.194   8.964  12.330
11820POPC  C31079455   6.019   8.887  12.424
11820POPC  H10X79456   6.037   8.925  12.527
11820POPC  H10Y79457   6.072   8.789  12.417
11820POPC  C31179458   5.869   8.863  12.405
11820POPC  H11X79459   5.852   8.810  12.309
11820POPC  H11Y79460   5.813   8.958  12.402
11820POPC  C31279461   5.815   8.780  12.521
11820POPC  H12X79462   5.790   8.847  12.606
11820POPC  H12Y79463   5.895   8.711  12.555
11820POPC  C31379464   5.692   8.696  12.488
11820POPC  H13X79465   5.721   8.613  12.421
11820POPC  H13Y79466   5.618   8.757  12.433
11820POPC  C31479467   5.634   8.641  12.619
11820POPC  H14X79468   5.552   8.705  12.656
11820POPC  H14Y79469   5.715   8.644  12.696
11820POPC  C31579470   5.588   8.496  12.608
11820POPC  H15X79471   5.604   8.449  12.707
11820POPC  H15Y79472   5.651   8.440  12.535
11820POPC  C31679473   5.441   8.485  12.570
11820POPC  H16X79474   5.408   8.379  12.563
11820POPC  H16Y79475   5.423   8.535  12.473
11820POPC  H16Z79476   5.378   8.536  12.648
11821POPC     N79477   0.847   2.856  10.741
11821POPC   C1279478   0.832   2.715  10.684
11821POPC  H12A79479   0.850   2.718  10.577
11821POPC  H12B79480   0.730   2.683  10.697
11821POPC   C1379481   0.821   2.855  10.889
11821POPC  H13A79482   0.717   2.841  10.912
11821POPC  H13B79483   0.873   2.770  10.935
11821POPC  H13C79484   0.858   2.945  10.937
11821POPC   C1479485   0.987   2.908  10.722
11821POPC  H14A79486   1.012   2.921  10.618
11821POPC  H14B79487   1.001   3.006  10.769
11821POPC  H14C79488   1.058   2.840  10.769
11821POPC   C1579489   0.749   2.946  10.672
11821POPC  H15A79490   0.752   3.047  10.709
11821POPC  H15B79491   0.647   2.911  10.681
11821POPC  H15C79492   0.769   2.949  10.565
11821POPC   C1179493   0.921   2.604  10.744
11821POPC  H11A79494   1.028   2.635  10.738
11821POPC  H11B79495   0.908   2.512  10.682
11821POPC     P79496   0.974   2.511  10.985
11821POPC   O1379497   0.993   2.369  10.948
11821POPC   O1479498   0.916   2.549  11.115
11821POPC   O1279499   0.878   2.576  10.876
11821POPC   O1179500   1.110   2.592  10.961
11821POPC    C179501   1.132   2.719  11.024
11821POPC    HA79502   1.046   2.753  11.087
11821POPC    HB79503   1.146   2.796  10.945
11821POPC    C279504   1.257   2.724  11.115
11821POPC    HS79505   1.342   2.677  11.059
11821POPC   O2179506   1.230   2.653  11.238
11821POPC   C2179507   1.338   2.626  11.310
11821POPC   O2279508   1.453   2.637  11.273
11821POPC   C2279509   1.295   2.564  11.443
11821POPC   H2R79510   1.356   2.473  11.447
11821POPC   H2S79511   1.187   2.540  11.443
11821POPC    C379512   1.295   2.872  11.146
11821POPC    HX79513   1.303   2.926  11.049
11821POPC    HY79514   1.396   2.878  11.192
11821POPC   O3179515   1.192   2.935  11.227
11821POPC   C3179516   1.215   2.922  11.357
11821POPC   O3279517   1.318   2.883  11.410
11821POPC   C3279518   1.093   2.964  11.437
11821POPC   H2X79519   1.004   2.910  11.401
11821POPC   H2Y79520   1.080   3.071  11.416
11821POPC   C2379521   1.342   2.619  11.579
11821POPC   H3R79522   1.281   2.707  11.607
11821POPC   H3S79523   1.449   2.651  11.574
11821POPC   C2479524   1.328   2.502  11.677
11821POPC   H4R79525   1.414   2.432  11.665
11821POPC   H4S79526   1.236   2.444  11.653
11821POPC   C2579527   1.318   2.542  11.822
11821POPC   H5R79528   1.413   2.593  11.852
11821POPC   H5S79529   1.308   2.450  11.885
11821POPC   C2679530   1.198   2.631  11.849
11821POPC   H6R79531   1.105   2.588  11.804
11821POPC   H6S79532   1.213   2.733  11.806
11821POPC   C2779533   1.177   2.643  11.999
11821POPC   H7R79534   1.146   2.542  12.035
11821POPC   H7S79535   1.093   2.712  12.016
11821POPC   C2879536   1.303   2.686  12.074
11821POPC   H8R79537   1.387   2.616  12.057
11821POPC   H8S79538   1.287   2.679  12.182
11821POPC   C2979539   1.341   2.826  12.032
11821POPC   H9179540   1.430   2.831  11.968
11821POPC  C21079541   1.275   2.939  12.062
11821POPC  H10179542   1.317   3.035  12.032
11821POPC  C21179543   1.150   2.958  12.143
11821POPC  H11R79544   1.084   2.868  12.142
11821POPC  H11S79545   1.090   3.042  12.103
11821POPC  C21279546   1.189   2.987  12.288
11821POPC  H12R79547   1.098   3.020  12.340
11821POPC  H12S79548   1.259   3.072  12.291
11821POPC  C21379549   1.245   2.860  12.353
11821POPC  H13R79550   1.349   2.840  12.320
11821POPC  H13S79551   1.182   2.779  12.311
11821POPC  C21479552   1.229   2.836  12.503
11821POPC  H14R79553   1.311   2.773  12.544
11821POPC  H14S79554   1.135   2.777  12.513
11821POPC  C21579555   1.205   2.955  12.592
11821POPC  H15R79556   1.122   3.012  12.546
11821POPC  H15S79557   1.287   3.028  12.593
11821POPC  C21679558   1.162   2.898  12.729
11821POPC  H16R79559   1.236   2.825  12.770
11821POPC  H16S79560   1.069   2.839  12.712
11821POPC  C21779561   1.132   3.003  12.833
11821POPC  H17R79562   1.224   3.034  12.886
11821POPC  H17S79563   1.066   2.955  12.909
11821POPC  C21879564   1.065   3.125  12.772
11821POPC  H18R79565   1.012   3.108  12.676
11821POPC  H18S79566   1.141   3.203  12.755
11821POPC  H18T79567   0.988   3.160  12.843
11821POPC   C3379568   1.113   2.944  11.589
11821POPC   H3X79569   1.217   2.967  11.621
11821POPC   H3Y79570   1.094   2.837  11.613
11821POPC   C3479571   1.019   3.034  11.668
11821POPC   H4X79572   0.929   3.054  11.605
11821POPC   H4Y79573   1.067   3.133  11.686
11821POPC   C3579574   0.969   2.975  11.801
11821POPC   H5X79575   1.054   2.964  11.872
11821POPC   H5Y79576   0.926   2.875  11.783
11821POPC   C3679577   0.862   3.069  11.858
11821POPC   H6X79578   0.784   3.085  11.781
11821POPC   H6Y79579   0.912   3.167  11.876
11821POPC   C3779580   0.795   3.030  11.990
11821POPC   H7X79581   0.703   3.092  12.000
11821POPC   H7Y79582   0.866   3.059  12.071
11821POPC   C3879583   0.751   2.887  12.014
11821POPC   H8X79584   0.823   2.815  11.970
11821POPC   H8Y79585   0.650   2.869  11.972
11821POPC   C3979586   0.743   2.865  12.166
11821POPC   H9X79587   0.694   2.953  12.214
11821POPC   H9Y79588   0.849   2.865  12.198
11821POPC  C31079589   0.673   2.736  12.211
11821POPC  H10X79590   0.564   2.748  12.201
11821POPC  H10Y79591   0.694   2.720  12.319
11821POPC  C31179592   0.717   2.613  12.131
11821POPC  H11X79593   0.692   2.630  12.024
11821POPC  H11Y79594   0.660   2.524  12.165
11821POPC  C31279595   0.867   2.587  12.145
11821POPC  H12X79596   0.923   2.682  12.126
11821POPC  H12Y79597   0.902   2.517  12.066
11821POPC  C31379598   0.910   2.532  12.281
11821POPC  H13X79599   0.858   2.435  12.299
11821POPC  H13Y79600   0.880   2.603  12.362
11821POPC  C31479601   1.061   2.513  12.284
11821POPC  H14X79602   1.112   2.608  12.266
11821POPC  H14Y79603   1.086   2.448  12.197
11821POPC  C31579604   1.118   2.443  12.408
11821POPC  H15X79605   1.213   2.393  12.378
11821POPC  H15Y79606   1.042   2.369  12.439
11821POPC  C31679607   1.156   2.524  12.528
11821POPC  H16X79608   1.179   2.456  12.614
11821POPC  H16Y79609   1.071   2.590  12.556
11821POPC  H16Z79610   1.248   2.582  12.506
11822POPC     N79611   3.547   8.557  10.942
11822POPC   C1279612   3.596   8.645  10.828
11822POPC  H12A79613   3.686   8.602  10.788
11822POPC  H12B79614   3.616   8.744  10.869
11822POPC   C1379615   3.659   8.496  11.019
11822POPC  H13A79616   3.726   8.570  11.060
11822POPC  H13B79617   3.619   8.436  11.101
11822POPC  H13C79618   3.716   8.427  10.959
11822POPC   C1479619   3.465   8.643  11.034
11822POPC  H14A79620   3.379   8.685  10.981
11822POPC  H14B79621   3.429   8.585  11.118
11822POPC  H14C79622   3.522   8.728  11.069
11822POPC   C1579623   3.459   8.449  10.886
11822POPC  H15A79624   3.511   8.389  10.812
11822POPC  H15B79625   3.373   8.496  10.838
11822POPC  H15C79626   3.425   8.382  10.964
11822POPC   C1179627   3.499   8.669  10.709
11822POPC  H11A79628   3.481   8.573  10.655
11822POPC  H11B79629   3.550   8.736  10.635
11822POPC     P79630   3.359   8.877  10.787
11822POPC   O1379631   3.292   8.887  10.918
11822POPC   O1479632   3.313   8.954  10.670
11822POPC   O1279633   3.374   8.723  10.751
11822POPC   O1179634   3.513   8.921  10.815
11822POPC    C179635   3.533   9.061  10.847
11822POPC    HA79636   3.438   9.114  10.873
11822POPC    HB79637   3.569   9.112  10.755
11822POPC    C279638   3.633   9.095  10.964
11822POPC    HS79639   3.708   9.166  10.923
11822POPC   O2179640   3.700   8.978  11.017
11822POPC   C2179641   3.793   9.010  11.110
11822POPC   O2279642   3.831   9.123  11.132
11822POPC   C2279643   3.828   8.887  11.193
11822POPC   H2R79644   3.915   8.835  11.147
11822POPC   H2S79645   3.739   8.819  11.196
11822POPC    C379646   3.553   9.172  11.077
11822POPC    HX79647   3.526   9.269  11.034
11822POPC    HY79648   3.616   9.199  11.165
11822POPC   O3179649   3.429   9.108  11.115
11822POPC   C3179650   3.437   9.029  11.222
11822POPC   O3279651   3.539   9.010  11.285
11822POPC   C3279652   3.298   8.975  11.262
11822POPC   H2X79653   3.264   8.906  11.183
11822POPC   H2Y79654   3.227   9.061  11.265
11822POPC   C2379655   3.861   8.933  11.337
11822POPC   H3R79656   3.787   9.011  11.366
11822POPC   H3S79657   3.961   8.981  11.338
11822POPC   C2479658   3.854   8.823  11.443
11822POPC   H4R79659   3.920   8.738  11.415
11822POPC   H4S79660   3.749   8.785  11.449
11822POPC   C2579661   3.894   8.874  11.583
11822POPC   H5R79662   4.002   8.902  11.582
11822POPC   H5S79663   3.879   8.793  11.657
11822POPC   C2679664   3.812   8.996  11.625
11822POPC   H6R79665   3.704   8.973  11.608
11822POPC   H6S79666   3.838   9.083  11.562
11822POPC   C2779667   3.831   9.036  11.772
11822POPC   H7R79668   3.936   9.071  11.783
11822POPC   H7S79669   3.815   8.949  11.840
11822POPC   C2879670   3.739   9.152  11.810
11822POPC   H8R79671   3.755   9.227  11.730
11822POPC   H8S79672   3.776   9.197  11.905
11822POPC   C2979673   3.592   9.120  11.813
11822POPC   H9179674   3.548   9.094  11.715
11822POPC  C21079675   3.512   9.124  11.921
11822POPC  H10179676   3.406   9.098  11.911
11822POPC  C21179677   3.559   9.160  12.060
11822POPC  H11R79678   3.474   9.194  12.123
11822POPC  H11S79679   3.634   9.242  12.059
11822POPC  C21279680   3.622   9.033  12.118
11822POPC  H12R79681   3.706   9.000  12.053
11822POPC  H12S79682   3.547   8.951  12.120
11822POPC  C21379683   3.678   9.050  12.259
11822POPC  H13R79684   3.597   9.074  12.331
11822POPC  H13S79685   3.750   9.136  12.259
11822POPC  C21479686   3.753   8.923  12.303
11822POPC  H14R79687   3.807   8.947  12.398
11822POPC  H14S79688   3.828   8.898  12.225
11822POPC  C21579689   3.667   8.799  12.325
11822POPC  H15R79690   3.613   8.774  12.231
11822POPC  H15S79691   3.592   8.822  12.404
11822POPC  C21679692   3.750   8.676  12.367
11822POPC  H16R79693   3.822   8.651  12.286
11822POPC  H16S79694   3.681   8.589  12.378
11822POPC  C21779695   3.828   8.694  12.498
11822POPC  H17R79696   3.913   8.761  12.478
11822POPC  H17S79697   3.871   8.596  12.529
11822POPC  C21879698   3.747   8.753  12.613
11822POPC  H18R79699   3.807   8.754  12.707
11822POPC  H18S79700   3.654   8.694  12.630
11822POPC  H18T79701   3.717   8.858  12.591
11822POPC   C3379702   3.297   8.905  11.401
11822POPC   H3X79703   3.191   8.884  11.429
11822POPC   H3Y79704   3.340   8.973  11.478
11822POPC   C3479705   3.374   8.771  11.403
11822POPC   H4X79706   3.479   8.789  11.370
11822POPC   H4Y79707   3.327   8.703  11.329
11822POPC   C3579708   3.380   8.699  11.539
11822POPC   H5X79709   3.437   8.604  11.524
11822POPC   H5Y79710   3.278   8.672  11.574
11822POPC   C3679711   3.452   8.778  11.651
11822POPC   H6X79712   3.382   8.850  11.697
11822POPC   H6Y79713   3.535   8.837  11.605
11822POPC   C3779714   3.516   8.689  11.760
11822POPC   H7X79715   3.566   8.753  11.835
11822POPC   H7Y79716   3.595   8.627  11.711
11822POPC   C3879717   3.419   8.593  11.832
11822POPC   H8X79718   3.477   8.529  11.902
11822POPC   H8Y79719   3.371   8.527  11.756
11822POPC   C3979720   3.307   8.663  11.911
11822POPC   H9X79721   3.229   8.588  11.937
11822POPC   H9Y79722   3.259   8.739  11.846
11822POPC  C31079723   3.352   8.731  12.042
11822POPC  H10X79724   3.437   8.799  12.021
11822POPC  H10Y79725   3.386   8.655  12.116
11822POPC  C31179726   3.234   8.812  12.098
11822POPC  H11X79727   3.149   8.743  12.118
11822POPC  H11Y79728   3.205   8.881  12.017
11822POPC  C31279729   3.260   8.896  12.224
11822POPC  H12X79730   3.167   8.954  12.245
11822POPC  H12Y79731   3.341   8.970  12.204
11822POPC  C31379732   3.294   8.813  12.348
11822POPC  H13X79733   3.400   8.783  12.340
11822POPC  H13Y79734   3.234   8.720  12.347
11822POPC  C31479735   3.270   8.885  12.483
11822POPC  H14X79736   3.329   8.833  12.561
11822POPC  H14Y79737   3.162   8.876  12.509
11822POPC  C31579738   3.306   9.035  12.484
11822POPC  H15X79739   3.237   9.089  12.415
11822POPC  H15Y79740   3.410   9.048  12.444
11822POPC  C31679741   3.298   9.099  12.623
11822POPC  H16X79742   3.379   9.060  12.689
11822POPC  H16Y79743   3.200   9.077  12.671
11822POPC  H16Z79744   3.309   9.209  12.616
11823POPC     N79745   2.894   0.616  10.785
11823POPC   C1279746   3.003   0.715  10.748
11823POPC  H12A79747   3.058   0.678  10.663
11823POPC  H12B79748   3.073   0.725  10.831
11823POPC   C1379749   2.787   0.622  10.680
11823POPC  H13A79750   2.707   0.551  10.698
11823POPC  H13B79751   2.751   0.724  10.673
11823POPC  H13C79752   2.828   0.594  10.583
11823POPC   C1479753   2.945   0.476  10.787
11823POPC  H14A79754   2.998   0.451  10.694
11823POPC  H14B79755   3.012   0.460  10.870
11823POPC  H14C79756   2.862   0.407  10.793
11823POPC   C1579757   2.840   0.656  10.919
11823POPC  H15A79758   2.762   0.593  10.956
11823POPC  H15B79759   2.806   0.760  10.913
11823POPC  H15C79760   2.921   0.663  10.992
11823POPC   C1179761   2.957   0.861  10.720
11823POPC  H11A79762   2.886   0.864  10.635
11823POPC  H11B79763   3.046   0.920  10.685
11823POPC     P79764   2.989   1.000  10.936
11823POPC   O1379765   2.916   1.017  11.064
11823POPC   O1479766   3.047   1.116  10.865
11823POPC   O1279767   2.895   0.919  10.836
11823POPC   O1179768   3.104   0.892  10.962
11823POPC    C179769   3.234   0.948  10.985
11823POPC    HA79770   3.233   1.053  11.025
11823POPC    HB79771   3.288   0.952  10.888
11823POPC    C279772   3.319   0.867  11.087
11823POPC    HS79773   3.425   0.899  11.072
11823POPC   O2179774   3.306   0.725  11.070
11823POPC   C2179775   3.333   0.669  10.956
11823POPC   O2279776   3.393   0.716  10.861
11823POPC   C2279777   3.270   0.528  10.956
11823POPC   H2R79778   3.349   0.456  10.982
11823POPC   H2S79779   3.240   0.510  10.850
11823POPC    C379780   3.284   0.903  11.235
11823POPC    HX79781   3.270   1.013  11.241
11823POPC    HY79782   3.369   0.876  11.301
11823POPC   O3179783   3.167   0.831  11.277
11823POPC   C3179784   3.086   0.888  11.364
11823POPC   O3279785   3.111   0.985  11.434
11823POPC   C3279786   2.957   0.805  11.360
11823POPC   H2X79787   2.982   0.705  11.402
11823POPC   H2Y79788   2.930   0.793  11.253
11823POPC   C2379789   3.147   0.504  11.048
11823POPC   H3R79790   3.091   0.417  11.009
11823POPC   H3S79791   3.081   0.594  11.048
11823POPC   C2479792   3.181   0.465  11.192
11823POPC   H4R79793   3.229   0.554  11.240
11823POPC   H4S79794   3.252   0.381  11.191
11823POPC   C2579795   3.056   0.426  11.274
11823POPC   H5R79796   3.000   0.345  11.221
11823POPC   H5S79797   2.990   0.515  11.280
11823POPC   C2679798   3.084   0.377  11.418
11823POPC   H6R79799   3.120   0.272  11.415
11823POPC   H6S79800   2.989   0.379  11.475
11823POPC   C2779801   3.189   0.461  11.491
11823POPC   H7R79802   3.170   0.569  11.470
11823POPC   H7S79803   3.287   0.433  11.449
11823POPC   C2879804   3.199   0.439  11.643
11823POPC   H8R79805   3.226   0.333  11.663
11823POPC   H8S79806   3.099   0.457  11.689
11823POPC   C2979807   3.305   0.532  11.695
11823POPC   H9179808   3.408   0.492  11.694
11823POPC  C21079809   3.285   0.659  11.734
11823POPC  H10179810   3.370   0.720  11.767
11823POPC  C21179811   3.151   0.731  11.733
11823POPC  H11R79812   3.071   0.667  11.690
11823POPC  H11S79813   3.156   0.821  11.668
11823POPC  C21279814   3.109   0.774  11.875
11823POPC  H12R79815   3.135   0.694  11.948
11823POPC  H12S79816   2.999   0.788  11.878
11823POPC  C21379817   3.176   0.907  11.913
11823POPC  H13R79818   3.135   0.985  11.845
11823POPC  H13S79819   3.284   0.894  11.892
11823POPC  C21479820   3.165   0.957  12.058
11823POPC  H14R79821   3.063   0.993  12.079
11823POPC  H14S79822   3.229   1.048  12.066
11823POPC  C21579823   3.211   0.855  12.164
11823POPC  H15R79824   3.277   0.782  12.115
11823POPC  H15S79825   3.123   0.798  12.201
11823POPC  C21679826   3.286   0.920  12.282
11823POPC  H16R79827   3.244   1.021  12.298
11823POPC  H16S79828   3.393   0.934  12.256
11823POPC  C21779829   3.276   0.841  12.414
11823POPC  H17R79830   3.319   0.739  12.402
11823POPC  H17S79831   3.169   0.825  12.438
11823POPC  C21879832   3.344   0.910  12.533
11823POPC  H18R79833   3.301   0.873  12.629
11823POPC  H18S79834   3.333   1.020  12.528
11823POPC  H18T79835   3.452   0.891  12.537
11823POPC   C3379836   2.835   0.863  11.435
11823POPC   H3X79837   2.816   0.967  11.399
11823POPC   H3Y79838   2.859   0.870  11.543
11823POPC   C3479839   2.707   0.780  11.414
11823POPC   H4X79840   2.674   0.795  11.308
11823POPC   H4Y79841   2.627   0.821  11.479
11823POPC   C3579842   2.719   0.628  11.439
11823POPC   H5X79843   2.779   0.583  11.357
11823POPC   H5Y79844   2.617   0.583  11.435
11823POPC   C3679845   2.783   0.589  11.573
11823POPC   H6X79846   2.892   0.611  11.571
11823POPC   H6Y79847   2.773   0.480  11.588
11823POPC   C3779848   2.722   0.661  11.695
11823POPC   H7X79849   2.612   0.647  11.694
11823POPC   H7Y79850   2.742   0.770  11.687
11823POPC   C3879851   2.781   0.610  11.827
11823POPC   H8X79852   2.891   0.606  11.819
11823POPC   H8Y79853   2.746   0.507  11.848
11823POPC   C3979854   2.742   0.703  11.943
11823POPC   H9X79855   2.632   0.713  11.949
11823POPC   H9Y79856   2.784   0.803  11.920
11823POPC  C31079857   2.795   0.654  12.078
11823POPC  H10X79858   2.905   0.641  12.071
11823POPC  H10Y79859   2.751   0.554  12.102
11823POPC  C31179860   2.763   0.751  12.194
11823POPC  H11X79861   2.815   0.710  12.283
11823POPC  H11Y79862   2.654   0.753  12.215
11823POPC  C31279863   2.813   0.894  12.167
11823POPC  H12X79864   2.751   0.944  12.090
11823POPC  H12Y79865   2.915   0.880  12.125
11823POPC  C31379866   2.823   0.984  12.291
11823POPC  H13X79867   2.723   0.990  12.341
11823POPC  H13Y79868   2.851   1.087  12.259
11823POPC  C31479869   2.929   0.936  12.391
11823POPC  H14X79870   3.026   0.940  12.337
11823POPC  H14Y79871   2.911   0.830  12.419
11823POPC  C31579872   2.939   1.018  12.520
11823POPC  H15X79873   2.912   0.951  12.603
11823POPC  H15Y79874   2.868   1.102  12.518
11823POPC  C31679875   3.080   1.062  12.558
11823POPC  H16X79876   3.084   1.150  12.625
11823POPC  H16Y79877   3.140   1.086  12.469
11823POPC  H16Z79878   3.125   0.979  12.616
11824POPC     N79879   4.623   0.595  10.789
11824POPC   C1279880   4.635   0.449  10.831
11824POPC  H12A79881   4.604   0.440  10.935
11824POPC  H12B79882   4.738   0.418  10.827
11824POPC   C1379883   4.483   0.650  10.807
11824POPC  H13A79884   4.409   0.590  10.753
11824POPC  H13B79885   4.447   0.637  10.910
11824POPC  H13C79886   4.474   0.754  10.782
11824POPC   C1479887   4.716   0.670  10.878
11824POPC  H14A79888   4.729   0.773  10.850
11824POPC  H14B79889   4.676   0.671  10.980
11824POPC  H14C79890   4.814   0.623  10.888
11824POPC   C1579891   4.652   0.603  10.644
11824POPC  H15A79892   4.746   0.555  10.618
11824POPC  H15B79893   4.648   0.704  10.607
11824POPC  H15C79894   4.574   0.546  10.593
11824POPC   C1179895   4.548   0.346  10.756
11824POPC  H11A79896   4.577   0.242  10.782
11824POPC  H11B79897   4.560   0.355  10.645
11824POPC     P79898   4.362   0.358  10.940
11824POPC   O1379899   4.259   0.254  10.933
11824POPC   O1479900   4.327   0.495  10.984
11824POPC   O1279901   4.414   0.371  10.790
11824POPC   O1179902   4.490   0.309  11.022
11824POPC    C179903   4.485   0.316  11.165
11824POPC    HA79904   4.462   0.419  11.202
11824POPC    HB79905   4.585   0.290  11.205
11824POPC    C279906   4.383   0.215  11.224
11824POPC    HS79907   4.378   0.130  11.152
11824POPC   O2179908   4.255   0.278  11.236
11824POPC   C2179909   4.155   0.190  11.238
11824POPC   O2279910   4.163   0.071  11.216
11824POPC   C2279911   4.041   0.257  11.308
11824POPC   H2R79912   3.948   0.237  11.249
11824POPC   H2S79913   4.062   0.365  11.308
11824POPC    C379914   4.426   0.161  11.362
11824POPC    HX79915   4.499   0.083  11.340
11824POPC    HY79916   4.340   0.110  11.409
11824POPC   O3179917   4.490   0.261  11.444
11824POPC   C3179918   4.480   0.242  11.575
11824POPC   O3279919   4.421   0.151  11.629
11824POPC   C3279920   4.555   0.351  11.648
11824POPC   H2X79921   4.498   0.445  11.633
11824POPC   H2Y79922   4.654   0.364  11.602
11824POPC   C2379923   4.023   0.203  11.452
11824POPC   H3R79924   4.014   0.092  11.450
11824POPC   H3S79925   3.925   0.243  11.482
11824POPC   C2479926   4.125   0.242  11.560
11824POPC   H4R79927   4.205   0.166  11.560
11824POPC   H4S79928   4.075   0.232  11.659
11824POPC   C2579929   4.188   0.383  11.552
11824POPC   H5R79930   4.118   0.450  11.499
11824POPC   H5S79931   4.279   0.383  11.489
11824POPC   C2679932   4.216   0.444  11.691
11824POPC   H6R79933   4.288   0.380  11.745
11824POPC   H6S79934   4.121   0.442  11.749
11824POPC   C2779935   4.268   0.590  11.688
11824POPC   H7R79936   4.182   0.658  11.667
11824POPC   H7S79937   4.339   0.601  11.604
11824POPC   C2879938   4.341   0.637  11.817
11824POPC   H8R79939   4.347   0.749  11.814
11824POPC   H8S79940   4.446   0.600  11.812
11824POPC   C2979941   4.279   0.592  11.947
11824POPC   H9179942   4.186   0.535  11.935
11824POPC  C21079943   4.326   0.609  12.071
11824POPC  H10179944   4.268   0.568  12.155
11824POPC  C21179945   4.454   0.677  12.113
11824POPC  H11R79946   4.498   0.740  12.033
11824POPC  H11S79947   4.530   0.599  12.137
11824POPC  C21279948   4.433   0.762  12.240
11824POPC  H12R79949   4.368   0.707  12.311
11824POPC  H12S79950   4.382   0.857  12.214
11824POPC  C21379951   4.566   0.791  12.311
11824POPC  H13R79952   4.627   0.858  12.246
11824POPC  H13S79953   4.624   0.697  12.324
11824POPC  C21479954   4.550   0.856  12.449
11824POPC  H14R79955   4.506   0.957  12.434
11824POPC  H14S79956   4.651   0.871  12.493
11824POPC  C21579957   4.461   0.781  12.550
11824POPC  H15R79958   4.432   0.679  12.518
11824POPC  H15S79959   4.363   0.830  12.554
11824POPC  C21679960   4.519   0.778  12.692
11824POPC  H16R79961   4.601   0.853  12.702
11824POPC  H16S79962   4.562   0.678  12.710
11824POPC  C21779963   4.414   0.801  12.799
11824POPC  H17R79964   4.316   0.779  12.751
11824POPC  H17S79965   4.417   0.909  12.829
11824POPC  C21879966   4.420   0.712  12.924
11824POPC  H18R79967   4.405   0.606  12.894
11824POPC  H18S79968   4.340   0.741  12.995
11824POPC  H18T79969   4.518   0.722  12.975
11824POPC   C3379970   4.566   0.322  11.800
11824POPC   H3X79971   4.472   0.282  11.843
11824POPC   H3Y79972   4.585   0.420  11.850
11824POPC   C3479973   4.684   0.230  11.833
11824POPC   H4X79974   4.769   0.257  11.766
11824POPC   H4Y79975   4.658   0.124  11.812
11824POPC   C3579976   4.733   0.246  11.978
11824POPC   H5X79977   4.745   0.355  12.000
11824POPC   H5Y79978   4.833   0.198  11.987
11824POPC   C3679979   4.640   0.184  12.083
11824POPC   H6X79980   4.626   0.076  12.059
11824POPC   H6Y79981   4.540   0.233  12.079
11824POPC   C3779982   4.698   0.196  12.224
11824POPC   H7X79983   4.711   0.304  12.250
11824POPC   H7Y79984   4.799   0.149  12.225
11824POPC   C3879985   4.611   0.129  12.331
11824POPC   H8X79986   4.579   0.029  12.294
11824POPC   H8Y79987   4.520   0.191  12.344
11824POPC   C3979988   4.687   0.111  12.463
11824POPC   H9X79989   4.766   0.190  12.469
11824POPC   H9Y79990   4.741   0.014  12.459
11824POPC  C31079991   4.607   0.118  12.594
11824POPC  H10X79992   4.646   0.204  12.652
11824POPC  H10Y79993   4.632   0.028  12.656
11824POPC  C31179994   4.454   0.137  12.591
11824POPC  H11X79995   4.404   0.059  12.529
11824POPC  H11Y79996   4.430   0.236  12.547
11824POPC  C31279997   4.401   0.131  12.734
11824POPC  H12X79998   4.487   0.155  12.800
11824POPC  H12Y79999   4.371   0.028  12.761
11824POPC  C31380000   4.290   0.231  12.772
11824POPC  H13X80001   4.328   0.335  12.762
11824POPC  H13Y80002   4.268   0.215  12.880
11824POPC  C31480003   4.159   0.215  12.695
11824POPC  H14X80004   4.151   0.112  12.652
11824POPC  H14Y80005   4.158   0.287  12.610
11824POPC  C31580006   4.038   0.239  12.786
11824POPC  H15X80007   3.951   0.274  12.726
11824POPC  H15Y80008   4.063   0.321  12.857
11824POPC  C31680009   3.998   0.113  12.864
11824POPC  H16X80010   3.932   0.139  12.949
11824POPC  H16Y80011   4.088   0.062  12.905
11824POPC  H16Z80012   3.944   0.040  12.800
11825POPC     N80013   4.226   8.959  10.634
11825POPC   C1280014   4.330   8.869  10.697
11825POPC  H12A80015   4.429   8.903  10.667
11825POPC  H12B80016   4.316   8.768  10.661
11825POPC   C1380017   4.269   9.102  10.653
11825POPC  H13A80018   4.202   9.171  10.605
11825POPC  H13B80019   4.270   9.123  10.761
11825POPC  H13C80020   4.370   9.113  10.617
11825POPC   C1480021   4.214   8.935  10.488
11825POPC  H14A80022   4.137   9.000  10.448
11825POPC  H14B80023   4.307   8.957  10.437
11825POPC  H14C80024   4.183   8.834  10.465
11825POPC   C1580025   4.094   8.946  10.704
11825POPC  H15A80026   4.018   9.008  10.657
11825POPC  H15B80027   4.104   8.980  10.808
11825POPC  H15C80028   4.060   8.844  10.706
11825POPC   C1180029   4.328   8.862  10.850
11825POPC  H11A80030   4.422   8.817  10.887
11825POPC  H11B80031   4.244   8.795  10.881
11825POPC     P80032   4.263   9.009  11.050
11825POPC   O1380033   4.267   8.876  11.113
11825POPC   O1480034   4.130   9.073  11.042
11825POPC   O1280035   4.313   8.993  10.902
11825POPC   O1180036   4.375   9.111  11.104
11825POPC    C180037   4.447   9.206  11.020
11825POPC    HA80038   4.406   9.308  11.036
11825POPC    HB80039   4.433   9.184  10.912
11825POPC    C280040   4.606   9.220  11.037
11825POPC    HS80041   4.643   9.264  10.942
11825POPC   O2180042   4.674   9.099  11.060
11825POPC   C2180043   4.658   9.006  10.973
11825POPC   O2280044   4.646   9.021  10.852
11825POPC   C2280045   4.652   8.876  11.052
11825POPC   H2R80046   4.756   8.837  11.056
11825POPC   H2S80047   4.590   8.804  10.996
11825POPC    C380048   4.658   9.310  11.151
11825POPC    HX80049   4.620   9.413  11.134
11825POPC    HY80050   4.770   9.311  11.140
11825POPC   O3180051   4.617   9.265  11.281
11825POPC   C3180052   4.702   9.278  11.380
11825POPC   O3280053   4.820   9.308  11.371
11825POPC   C3280054   4.629   9.260  11.513
11825POPC   H2X80055   4.554   9.340  11.522
11825POPC   H2Y80056   4.701   9.269  11.597
11825POPC   C2380057   4.598   8.901  11.196
11825POPC   H3R80058   4.542   8.997  11.204
11825POPC   H3S80059   4.688   8.921  11.258
11825POPC   C2480060   4.496   8.799  11.254
11825POPC   H4R80061   4.456   8.733  11.174
11825POPC   H4S80062   4.409   8.859  11.291
11825POPC   C2580063   4.538   8.721  11.377
11825POPC   H5R80064   4.608   8.637  11.356
11825POPC   H5S80065   4.447   8.675  11.424
11825POPC   C2680066   4.596   8.819  11.476
11825POPC   H6R80067   4.511   8.886  11.497
11825POPC   H6S80068   4.683   8.877  11.441
11825POPC   C2780069   4.640   8.754  11.602
11825POPC   H7R80070   4.750   8.738  11.593
11825POPC   H7S80071   4.588   8.656  11.609
11825POPC   C2880072   4.613   8.844  11.721
11825POPC   H8R80073   4.506   8.876  11.722
11825POPC   H8S80074   4.678   8.933  11.717
11825POPC   C2980075   4.643   8.754  11.834
11825POPC   H9180076   4.569   8.674  11.840
11825POPC  C21080077   4.740   8.764  11.925
11825POPC  H10180078   4.753   8.686  12.001
11825POPC  C21180079   4.838   8.876  11.926
11825POPC  H11R80080   4.885   8.877  11.826
11825POPC  H11S80081   4.917   8.855  12.001
11825POPC  C21280082   4.777   9.016  11.950
11825POPC  H12R80083   4.765   9.071  11.854
11825POPC  H12S80084   4.846   9.076  12.013
11825POPC  C21380085   4.642   9.009  12.020
11825POPC  H13R80086   4.639   8.918  12.084
11825POPC  H13S80087   4.560   8.996  11.946
11825POPC  C21480088   4.613   9.124  12.115
11825POPC  H14R80089   4.596   9.216  12.055
11825POPC  H14S80090   4.699   9.141  12.183
11825POPC  C21580091   4.492   9.085  12.197
11825POPC  H15R80092   4.427   9.030  12.126
11825POPC  H15S80093   4.435   9.173  12.233
11825POPC  C21680094   4.515   8.979  12.306
11825POPC  H16R80095   4.591   8.906  12.270
11825POPC  H16S80096   4.423   8.919  12.320
11825POPC  C21780097   4.564   9.033  12.441
11825POPC  H17R80098   4.669   9.063  12.426
11825POPC  H17S80099   4.561   8.950  12.515
11825POPC  C21880100   4.500   9.158  12.499
11825POPC  H18R80101   4.564   9.196  12.581
11825POPC  H18S80102   4.402   9.138  12.542
11825POPC  H18T80103   4.489   9.237  12.422
11825POPC   C3380104   4.556   9.125  11.516
11825POPC   H3X80105   4.624   9.057  11.569
11825POPC   H3Y80106   4.542   9.085  11.412
11825POPC   C3480107   4.415   9.122  11.578
11825POPC   H4X80108   4.377   9.017  11.573
11825POPC   H4Y80109   4.346   9.183  11.515
11825POPC   C3580110   4.404   9.167  11.724
11825POPC   H5X80111   4.416   9.277  11.727
11825POPC   H5Y80112   4.487   9.124  11.783
11825POPC   C3680113   4.268   9.128  11.785
11825POPC   H6X80114   4.196   9.103  11.704
11825POPC   H6Y80115   4.229   9.217  11.839
11825POPC   C3780116   4.277   9.009  11.883
11825POPC   H7X80117   4.353   9.039  11.956
11825POPC   H7Y80118   4.314   8.919  11.830
11825POPC   C3880119   4.148   8.973  11.960
11825POPC   H8X80120   4.164   8.882  12.020
11825POPC   H8Y80121   4.071   8.947  11.883
11825POPC   C3980122   4.091   9.084  12.051
11825POPC   H9X80123   3.980   9.074  12.056
11825POPC   H9Y80124   4.112   9.184  12.007
11825POPC  C31080125   4.144   9.082  12.196
11825POPC  H10X80126   4.136   9.184  12.240
11825POPC  H10Y80127   4.249   9.053  12.198
11825POPC  C31180128   4.068   8.984  12.286
11825POPC  H11X80129   4.051   8.889  12.230
11825POPC  H11Y80130   3.971   9.034  12.306
11825POPC  C31280131   4.133   8.950  12.421
11825POPC  H12X80132   4.230   8.897  12.405
11825POPC  H12Y80133   4.068   8.880  12.476
11825POPC  C31380134   4.152   9.069  12.514
11825POPC  H13X80135   4.054   9.121  12.528
11825POPC  H13Y80136   4.220   9.143  12.465
11825POPC  C31480137   4.206   9.028  12.652
11825POPC  H14X80138   4.307   8.983  12.641
11825POPC  H14Y80139   4.142   8.949  12.695
11825POPC  C31580140   4.211   9.151  12.743
11825POPC  H15X80141   4.108   9.179  12.772
11825POPC  H15Y80142   4.250   9.235  12.682
11825POPC  C31680143   4.298   9.136  12.869
11825POPC  H16X80144   4.405   9.133  12.841
11825POPC  H16Y80145   4.272   9.044  12.925
11825POPC  H16Z80146   4.282   9.224  12.936
11826POPC     N80147   0.409   4.281  10.996
11826POPC   C1280148   0.319   4.266  10.874
11826POPC  H12A80149   0.368   4.312  10.789
11826POPC  H12B80150   0.227   4.323  10.888
11826POPC   C1380151   0.528   4.194  10.976
11826POPC  H13A80152   0.493   4.091  10.979
11826POPC  H13B80153   0.569   4.207  10.876
11826POPC  H13C80154   0.603   4.211  11.052
11826POPC   C1480155   0.456   4.423  11.009
11826POPC  H14A80156   0.377   4.491  11.038
11826POPC  H14B80157   0.535   4.429  11.084
11826POPC  H14C80158   0.498   4.460  10.916
11826POPC   C1580159   0.336   4.237  11.119
11826POPC  H15A80160   0.306   4.133  11.109
11826POPC  H15B80161   0.244   4.296  11.133
11826POPC  H15C80162   0.397   4.248  11.207
11826POPC   C1180163   0.283   4.124  10.825
11826POPC  H11A80164   0.196   4.132  10.755
11826POPC  H11B80165   0.250   4.064  10.913
11826POPC     P80166   0.387   3.914  10.710
11826POPC   O1380167   0.524   3.861  10.686
11826POPC   O1480168   0.291   3.894  10.600
11826POPC   O1280169   0.395   4.066  10.756
11826POPC   O1180170   0.333   3.843  10.839
11826POPC    C180171   0.417   3.829  10.953
11826POPC    HA80172   0.467   3.924  10.982
11826POPC    HB80173   0.495   3.754  10.932
11826POPC    C280174   0.326   3.781  11.066
11826POPC    HS80175   0.255   3.710  11.017
11826POPC   O2180176   0.260   3.901  11.117
11826POPC   C2180177   0.149   3.862  11.175
11826POPC   O2280178   0.120   3.745  11.193
11826POPC   C2280179   0.062   3.982  11.208
11826POPC   H2R80180  -0.042   3.953  11.182
11826POPC   H2S80181   0.089   4.068  11.144
11826POPC    C380182   0.402   3.705  11.178
11826POPC    HX80183   0.450   3.615  11.134
11826POPC    HY80184   0.332   3.662  11.254
11826POPC   O3180185   0.503   3.791  11.234
11826POPC   C3180186   0.457   3.861  11.337
11826POPC   O3280187   0.356   3.838  11.400
11826POPC   C3280188   0.544   3.984  11.359
11826POPC   H2X80189   0.477   4.072  11.368
11826POPC   H2Y80190   0.611   4.001  11.272
11826POPC   C2380191   0.069   4.017  11.358
11826POPC   H3R80192   0.087   3.924  11.416
11826POPC   H3S80193  -0.030   4.055  11.391
11826POPC   C2480194   0.174   4.124  11.391
11826POPC   H4R80195   0.147   4.219  11.341
11826POPC   H4S80196   0.271   4.090  11.347
11826POPC   C2580197   0.195   4.152  11.541
11826POPC   H5R80198   0.098   4.175  11.589
11826POPC   H5S80199   0.260   4.243  11.551
11826POPC   C2680200   0.267   4.035  11.609
11826POPC   H6R80201   0.372   4.035  11.574
11826POPC   H6S80202   0.220   3.940  11.574
11826POPC   C2780203   0.266   4.032  11.762
11826POPC   H7R80204   0.168   3.997  11.798
11826POPC   H7S80205   0.283   4.133  11.803
11826POPC   C2880206   0.367   3.933  11.823
11826POPC   H8R80207   0.333   3.918  11.928
11826POPC   H8S80208   0.465   3.985  11.828
11826POPC   C2980209   0.382   3.801  11.750
11826POPC   H9180210   0.386   3.807  11.640
11826POPC  C21080211   0.388   3.679  11.806
11826POPC  H10180212   0.402   3.591  11.742
11826POPC  C21180213   0.380   3.653  11.954
11826POPC  H11R80214   0.385   3.543  11.973
11826POPC  H11S80215   0.280   3.685  11.990
11826POPC  C21280216   0.490   3.722  12.036
11826POPC  H12R80217   0.501   3.830  12.013
11826POPC  H12S80218   0.588   3.677  12.012
11826POPC  C21380219   0.458   3.712  12.185
11826POPC  H13R80220   0.550   3.731  12.245
11826POPC  H13S80221   0.424   3.609  12.206
11826POPC  C21480222   0.349   3.810  12.230
11826POPC  H14R80223   0.267   3.815  12.155
11826POPC  H14S80224   0.395   3.910  12.233
11826POPC  C21580225   0.290   3.772  12.365
11826POPC  H15R80226   0.366   3.713  12.421
11826POPC  H15S80227   0.202   3.709  12.341
11826POPC  C21680228   0.241   3.883  12.457
11826POPC  H16R80229   0.165   3.945  12.404
11826POPC  H16S80230   0.328   3.946  12.483
11826POPC  C21780231   0.188   3.834  12.592
11826POPC  H17R80232   0.114   3.753  12.578
11826POPC  H17S80233   0.134   3.920  12.639
11826POPC  C21880234   0.302   3.791  12.685
11826POPC  H18R80235   0.344   3.694  12.653
11826POPC  H18S80236   0.270   3.780  12.790
11826POPC  H18T80237   0.384   3.866  12.683
11826POPC   C3380238   0.621   3.967  11.490
11826POPC   H3X80239   0.713   3.909  11.471
11826POPC   H3Y80240   0.560   3.905  11.559
11826POPC   C3480241   0.651   4.096  11.568
11826POPC   H4X80242   0.556   4.152  11.584
11826POPC   H4Y80243   0.721   4.161  11.513
11826POPC   C3580244   0.708   4.053  11.703
11826POPC   H5X80245   0.811   4.015  11.690
11826POPC   H5Y80246   0.647   3.967  11.739
11826POPC   C3680247   0.707   4.152  11.818
11826POPC   H6X80248   0.604   4.191  11.836
11826POPC   H6Y80249   0.774   4.238  11.799
11826POPC   C3780250   0.753   4.071  11.939
11826POPC   H7X80251   0.841   4.008  11.911
11826POPC   H7Y80252   0.670   4.002  11.965
11826POPC   C3880253   0.792   4.153  12.061
11826POPC   H8X80254   0.729   4.243  12.068
11826POPC   H8Y80255   0.895   4.191  12.046
11826POPC   C3980256   0.779   4.067  12.187
11826POPC   H9X80257   0.873   4.054  12.243
11826POPC   H9Y80258   0.748   3.963  12.159
11826POPC  C31080259   0.673   4.124  12.281
11826POPC  H10X80260   0.707   4.222  12.322
11826POPC  H10Y80261   0.663   4.053  12.367
11826POPC  C31180262   0.539   4.140  12.210
11826POPC  H11X80263   0.526   4.051  12.144
11826POPC  H11Y80264   0.535   4.229  12.145
11826POPC  C31280265   0.424   4.141  12.309
11826POPC  H12X80266   0.443   4.051  12.371
11826POPC  H12Y80267   0.327   4.129  12.257
11826POPC  C31380268   0.417   4.257  12.408
11826POPC  H13X80269   0.376   4.347  12.358
11826POPC  H13Y80270   0.519   4.282  12.446
11826POPC  C31480271   0.330   4.214  12.526
11826POPC  H14X80272   0.392   4.165  12.604
11826POPC  H14Y80273   0.259   4.136  12.490
11826POPC  C31580274   0.239   4.322  12.582
11826POPC  H15X80275   0.292   4.420  12.587
11826POPC  H15Y80276   0.207   4.294  12.685
11826POPC  C31680277   0.115   4.332  12.496
11826POPC  H16X80278   0.044   4.402  12.543
11826POPC  H16Y80279   0.064   4.234  12.486
11826POPC  H16Z80280   0.143   4.367  12.394
11827POPC     N80281   2.487   8.560  10.684
11827POPC   C1280282   2.424   8.428  10.725
11827POPC  H12A80283   2.473   8.349  10.669
11827POPC  H12B80284   2.321   8.430  10.695
11827POPC   C1380285   2.485   8.566  10.534
11827POPC  H13A80286   2.388   8.543  10.492
11827POPC  H13B80287   2.512   8.666  10.502
11827POPC  H13C80288   2.560   8.500  10.492
11827POPC   C1480289   2.414   8.677  10.743
11827POPC  H14A80290   2.461   8.771  10.712
11827POPC  H14B80291   2.310   8.679  10.714
11827POPC  H14C80292   2.421   8.674  10.851
11827POPC   C1580293   2.629   8.573  10.729
11827POPC  H15A80294   2.635   8.571  10.839
11827POPC  H15B80295   2.676   8.663  10.693
11827POPC  H15C80296   2.689   8.488  10.698
11827POPC   C1180297   2.435   8.388  10.872
11827POPC  H11A80298   2.361   8.309  10.896
11827POPC  H11B80299   2.413   8.478  10.934
11827POPC     P80300   2.644   8.355  11.026
11827POPC   O1380301   2.705   8.490  11.019
11827POPC   O1480302   2.736   8.239  11.035
11827POPC   O1280303   2.566   8.336  10.891
11827POPC   O1180304   2.526   8.352  11.130
11827POPC    C180305   2.469   8.474  11.182
11827POPC    HA80306   2.366   8.487  11.145
11827POPC    HB80307   2.524   8.566  11.153
11827POPC    C280308   2.462   8.466  11.336
11827POPC    HS80309   2.416   8.559  11.376
11827POPC   O2180310   2.591   8.444  11.394
11827POPC   C2180311   2.675   8.544  11.381
11827POPC   O2280312   2.651   8.653  11.332
11827POPC   C2280313   2.806   8.506  11.451
11827POPC   H2R80314   2.890   8.546  11.391
11827POPC   H2S80315   2.813   8.395  11.454
11827POPC    C380316   2.372   8.347  11.377
11827POPC    HX80317   2.419   8.253  11.340
11827POPC    HY80318   2.276   8.359  11.323
11827POPC   O3180319   2.346   8.347  11.518
11827POPC   C3180320   2.431   8.277  11.593
11827POPC   O3280321   2.521   8.207  11.551
11827POPC   C3280322   2.397   8.296  11.742
11827POPC   H2X80323   2.288   8.312  11.752
11827POPC   H2Y80324   2.450   8.388  11.775
11827POPC   C2380325   2.810   8.562  11.595
11827POPC   H3R80326   2.815   8.673  11.592
11827POPC   H3S80327   2.901   8.525  11.646
11827POPC   C2480328   2.687   8.519  11.677
11827POPC   H4R80329   2.682   8.408  11.674
11827POPC   H4S80330   2.593   8.557  11.630
11827POPC   C2580331   2.692   8.565  11.822
11827POPC   H5R80332   2.793   8.539  11.861
11827POPC   H5S80333   2.616   8.509  11.880
11827POPC   C2680334   2.668   8.715  11.847
11827POPC   H6R80335   2.742   8.768  11.784
11827POPC   H6S80336   2.692   8.738  11.953
11827POPC   C2780337   2.527   8.767  11.813
11827POPC   H7R80338   2.492   8.719  11.719
11827POPC   H7S80339   2.533   8.876  11.792
11827POPC   C2880340   2.419   8.747  11.922
11827POPC   H8R80341   2.415   8.638  11.947
11827POPC   H8S80342   2.320   8.771  11.878
11827POPC   C2980343   2.439   8.834  12.043
11827POPC   H9180344   2.413   8.940  12.032
11827POPC  C21080345   2.490   8.791  12.160
11827POPC  H10180346   2.498   8.861  12.245
11827POPC  C21180347   2.534   8.650  12.186
11827POPC  H11R80348   2.631   8.654  12.239
11827POPC  H11S80349   2.553   8.592  12.093
11827POPC  C21280350   2.437   8.570  12.274
11827POPC  H12R80351   2.420   8.632  12.365
11827POPC  H12S80352   2.492   8.477  12.301
11827POPC  C21380353   2.301   8.521  12.221
11827POPC  H13R80354   2.316   8.465  12.127
11827POPC  H13S80355   2.239   8.611  12.198
11827POPC  C21480356   2.225   8.431  12.322
11827POPC  H14R80357   2.122   8.420  12.282
11827POPC  H14S80358   2.214   8.486  12.418
11827POPC  C21580359   2.286   8.290  12.349
11827POPC  H15R80360   2.396   8.296  12.346
11827POPC  H15S80361   2.258   8.225  12.263
11827POPC  C21680362   2.247   8.223  12.485
11827POPC  H16R80363   2.142   8.248  12.511
11827POPC  H16S80364   2.310   8.268  12.564
11827POPC  C21780365   2.266   8.070  12.503
11827POPC  H17R80366   2.301   8.024  12.408
11827POPC  H17S80367   2.166   8.027  12.526
11827POPC  C21880368   2.360   8.031  12.619
11827POPC  H18R80369   2.347   7.923  12.644
11827POPC  H18S80370   2.336   8.089  12.710
11827POPC  H18T80371   2.466   8.048  12.592
11827POPC   C3380372   2.440   8.175  11.829
11827POPC   H3X80373   2.541   8.138  11.800
11827POPC   H3Y80374   2.369   8.092  11.807
11827POPC   C3480375   2.437   8.201  11.982
11827POPC   H4X80376   2.440   8.102  12.032
11827POPC   H4Y80377   2.340   8.248  12.009
11827POPC   C3580378   2.552   8.283  12.042
11827POPC   H5X80379   2.548   8.275  12.154
11827POPC   H5Y80380   2.534   8.389  12.018
11827POPC   C3680381   2.694   8.243  11.997
11827POPC   H6X80382   2.696   8.245  11.886
11827POPC   H6Y80383   2.717   8.140  12.029
11827POPC   C3780384   2.802   8.343  12.043
11827POPC   H7X80385   2.753   8.443  12.041
11827POPC   H7Y80386   2.886   8.344  11.970
11827POPC   C3880387   2.860   8.325  12.185
11827POPC   H8X80388   2.945   8.253  12.183
11827POPC   H8Y80389   2.781   8.281  12.250
11827POPC   C3980390   2.906   8.460  12.244
11827POPC   H9X80391   2.849   8.543  12.196
11827POPC   H9Y80392   3.013   8.476  12.218
11827POPC  C31080393   2.887   8.472  12.396
11827POPC  H10X80394   2.943   8.561  12.435
11827POPC  H10Y80395   2.931   8.382  12.442
11827POPC  C31180396   2.739   8.484  12.437
11827POPC  H11X80397   2.680   8.436  12.356
11827POPC  H11Y80398   2.707   8.590  12.442
11827POPC  C31280399   2.706   8.408  12.567
11827POPC  H12X80400   2.743   8.464  12.656
11827POPC  H12Y80401   2.760   8.311  12.561
11827POPC  C31380402   2.558   8.368  12.583
11827POPC  H13X80403   2.545   8.303  12.672
11827POPC  H13Y80404   2.533   8.304  12.495
11827POPC  C31480405   2.462   8.486  12.589
11827POPC  H14X80406   2.408   8.488  12.494
11827POPC  H14Y80407   2.518   8.581  12.598
11827POPC  C31580408   2.347   8.483  12.690
11827POPC  H15X80409   2.372   8.418  12.776
11827POPC  H15Y80410   2.254   8.444  12.644
11827POPC  C31680411   2.324   8.626  12.734
11827POPC  H16X80412   2.417   8.661  12.783
11827POPC  H16Y80413   2.239   8.636  12.805
11827POPC  H16Z80414   2.306   8.691  12.646
11828POPC     N80415   8.654   3.901  10.829
11828POPC   C1280416   8.697   3.781  10.914
11828POPC  H12A80417   8.620   3.705  10.915
11828POPC  H12B80418   8.711   3.817  11.016
11828POPC   C1380419   8.694   3.874  10.686
11828POPC  H13A80420   8.676   3.959  10.621
11828POPC  H13B80421   8.802   3.856  10.687
11828POPC  H13C80422   8.647   3.785  10.646
11828POPC   C1480423   8.509   3.935  10.838
11828POPC  H14A80424   8.479   3.958  10.941
11828POPC  H14B80425   8.489   4.027  10.783
11828POPC  H14C80426   8.445   3.856  10.800
11828POPC   C1580427   8.732   4.022  10.873
11828POPC  H15A80428   8.838   3.995  10.883
11828POPC  H15B80429   8.699   4.059  10.969
11828POPC  H15C80430   8.725   4.102  10.801
11828POPC   C1180431   8.831   3.714  10.873
11828POPC  H11A80432   8.820   3.656  10.778
11828POPC  H11B80433   8.861   3.639  10.951
11828POPC     P80434   9.047   3.844  10.952
11828POPC   O1380435   8.990   3.897  11.078
11828POPC   O1480436   9.135   3.930  10.871
11828POPC   O1280437   8.930   3.812  10.852
11828POPC   O1180438   9.112   3.699  10.969
11828POPC    C180439   9.222   3.673  11.056
11828POPC    HA80440   9.263   3.768  11.096
11828POPC    HB80441   9.303   3.619  11.001
11828POPC    C280442   9.177   3.588  11.176
11828POPC    HS80443   9.157   3.486  11.135
11828POPC   O2180444   9.061   3.653  11.224
11828POPC   C2180445   8.964   3.577  11.258
11828POPC   O2280446   8.962   3.454  11.253
11828POPC   C2280447   8.854   3.670  11.304
11828POPC   H2R80448   8.798   3.701  11.213
11828POPC   H2S80449   8.901   3.760  11.349
11828POPC    C380450   9.270   3.575  11.299
11828POPC    HX80451   9.372   3.544  11.268
11828POPC    HY80452   9.223   3.491  11.357
11828POPC   O3180453   9.273   3.697  11.378
11828POPC   C3180454   9.260   3.678  11.508
11828POPC   O3280455   9.270   3.572  11.566
11828POPC   C3280456   9.217   3.806  11.576
11828POPC   H2X80457   9.106   3.808  11.579
11828POPC   H2Y80458   9.250   3.892  11.515
11828POPC   C2380459   8.761   3.602  11.404
11828POPC   H3R80460   8.717   3.509  11.360
11828POPC   H3S80461   8.679   3.673  11.428
11828POPC   C2480462   8.829   3.567  11.535
11828POPC   H4R80463   8.872   3.659  11.580
11828POPC   H4S80464   8.912   3.493  11.520
11828POPC   C2580465   8.726   3.505  11.628
11828POPC   H5R80466   8.687   3.413  11.579
11828POPC   H5S80467   8.639   3.573  11.637
11828POPC   C2680468   8.782   3.473  11.767
11828POPC   H6R80469   8.859   3.393  11.756
11828POPC   H6S80470   8.699   3.434  11.830
11828POPC   C2780471   8.846   3.591  11.839
11828POPC   H7R80472   8.933   3.628  11.780
11828POPC   H7S80473   8.887   3.555  11.935
11828POPC   C2880474   8.746   3.706  11.860
11828POPC   H8R80475   8.694   3.727  11.764
11828POPC   H8S80476   8.802   3.798  11.877
11828POPC   C2980477   8.643   3.683  11.967
11828POPC   H9180478   8.542   3.709  11.933
11828POPC  C21080479   8.659   3.657  12.098
11828POPC  H10180480   8.568   3.643  12.158
11828POPC  C21180481   8.787   3.644  12.174
11828POPC  H11R80482   8.786   3.724  12.252
11828POPC  H11S80483   8.874   3.662  12.109
11828POPC  C21280484   8.829   3.514  12.245
11828POPC  H12R80485   8.865   3.441  12.169
11828POPC  H12S80486   8.745   3.468  12.301
11828POPC  C21380487   8.943   3.553  12.341
11828POPC  H13R80488   8.902   3.620  12.420
11828POPC  H13S80489   9.018   3.612  12.284
11828POPC  C21480490   9.014   3.434  12.405
11828POPC  H14R80491   9.110   3.466  12.450
11828POPC  H14S80492   9.037   3.359  12.326
11828POPC  C21580493   8.928   3.368  12.514
11828POPC  H15R80494   8.964   3.265  12.530
11828POPC  H15S80495   8.823   3.363  12.477
11828POPC  C21680496   8.930   3.443  12.648
11828POPC  H16R80497   8.877   3.541  12.637
11828POPC  H16S80498   9.036   3.466  12.674
11828POPC  C21780499   8.868   3.361  12.761
11828POPC  H17R80500   8.876   3.418  12.856
11828POPC  H17S80501   8.928   3.268  12.772
11828POPC  C21880502   8.721   3.321  12.739
11828POPC  H18R80503   8.705   3.277  12.639
11828POPC  H18S80504   8.655   3.409  12.749
11828POPC  H18T80505   8.690   3.244  12.814
11828POPC   C3380506   9.272   3.821  11.720
11828POPC   H3X80507   9.377   3.781  11.727
11828POPC   H3Y80508   9.210   3.762  11.791
11828POPC   C3480509   9.276   3.968  11.759
11828POPC   H4X80510   9.350   4.018  11.692
11828POPC   H4Y80511   9.310   3.980  11.864
11828POPC   C3580512   9.147   4.045  11.737
11828POPC   H5X80513   9.122   4.050  11.628
11828POPC   H5Y80514   9.166   4.149  11.770
11828POPC   C3680515   9.028   3.989  11.813
11828POPC   H6X80516   8.997   3.892  11.768
11828POPC   H6Y80517   8.943   4.059  11.799
11828POPC   C3780518   9.057   3.970  11.962
11828POPC   H7X80519   9.103   4.061  12.006
11828POPC   H7Y80520   9.128   3.886  11.977
11828POPC   C3880521   8.926   3.938  12.034
11828POPC   H8X80522   8.925   3.829  12.040
11828POPC   H8Y80523   8.841   3.970  11.969
11828POPC   C3980524   8.899   4.002  12.170
11828POPC   H9X80525   8.802   3.961  12.207
11828POPC   H9Y80526   8.885   4.112  12.154
11828POPC  C31080527   9.006   3.980  12.276
11828POPC  H10X80528   9.103   4.020  12.241
11828POPC  H10Y80529   9.018   3.871  12.297
11828POPC  C31180530   8.965   4.053  12.404
11828POPC  H11X80531   8.872   4.006  12.444
11828POPC  H11Y80532   8.939   4.159  12.379
11828POPC  C31280533   9.073   4.056  12.513
11828POPC  H12X80534   9.164   4.106  12.474
11828POPC  H12Y80535   9.103   3.951  12.532
11828POPC  C31380536   9.023   4.131  12.637
11828POPC  H13X80537   8.914   4.148  12.625
11828POPC  H13Y80538   9.069   4.232  12.637
11828POPC  C31480539   9.044   4.068  12.777
11828POPC  H14X80540   8.947   4.069  12.831
11828POPC  H14Y80541   9.109   4.137  12.836
11828POPC  C31580542   9.105   3.927  12.787
11828POPC  H15X80543   9.119   3.909  12.896
11828POPC  H15Y80544   9.206   3.931  12.741
11828POPC  C31680545   9.030   3.804  12.733
11828POPC  H16X80546   9.003   3.813  12.626
11828POPC  H16Y80547   8.935   3.789  12.789
11828POPC  H16Z80548   9.091   3.712  12.745
11829POPC     N80549   0.258   6.022  10.855
11829POPC   C1280550   0.388   5.962  10.801
11829POPC  H12A80551   0.366   5.875  10.740
11829POPC  H12B80552   0.450   5.927  10.883
11829POPC   C1380553   0.293   6.141  10.939
11829POPC  H13A80554   0.358   6.208  10.882
11829POPC  H13B80555   0.207   6.195  10.973
11829POPC  H13C80556   0.354   6.112  11.024
11829POPC   C1480557   0.172   6.064  10.739
11829POPC  H14A80558   0.233   6.123  10.672
11829POPC  H14B80559   0.136   5.976  10.686
11829POPC  H14C80560   0.086   6.122  10.769
11829POPC   C1580561   0.176   5.924  10.934
11829POPC  H15A80562   0.161   5.831  10.880
11829POPC  H15B80563   0.076   5.965  10.951
11829POPC  H15C80564   0.219   5.901  11.031
11829POPC   C1180565   0.479   6.057  10.716
11829POPC  H11A80566   0.420   6.096  10.631
11829POPC  H11B80567   0.559   5.995  10.668
11829POPC     P80568   0.675   6.152  10.858
11829POPC   O1380569   0.776   6.237  10.790
11829POPC   O1480570   0.705   6.008  10.873
11829POPC   O1280571   0.532   6.168  10.791
11829POPC   O1180572   0.650   6.213  11.001
11829POPC    C180573   0.719   6.154  11.111
11829POPC    HA80574   0.823   6.194  11.118
11829POPC    HB80575   0.724   6.043  11.104
11829POPC    C280576   0.644   6.181  11.242
11829POPC    HS80577   0.706   6.143  11.327
11829POPC   O2180578   0.515   6.116  11.232
11829POPC   C2180579   0.515   5.998  11.288
11829POPC   O2280580   0.606   5.948  11.351
11829POPC   C2280581   0.381   5.930  11.263
11829POPC   H2R80582   0.401   5.835  11.210
11829POPC   H2S80583   0.318   5.995  11.198
11829POPC    C380584   0.623   6.331  11.273
11829POPC    HX80585   0.588   6.384  11.181
11829POPC    HY80586   0.721   6.373  11.305
11829POPC   O3180587   0.526   6.340  11.377
11829POPC   C3180588   0.502   6.463  11.417
11829POPC   O3280589   0.563   6.562  11.383
11829POPC   C3280590   0.384   6.463  11.513
11829POPC   H2X80591   0.337   6.362  11.514
11829POPC   H2Y80592   0.310   6.537  11.477
11829POPC   C2380593   0.308   5.905  11.396
11829POPC   H3R80594   0.368   5.838  11.462
11829POPC   H3S80595   0.212   5.853  11.373
11829POPC   C2480596   0.277   6.036  11.470
11829POPC   H4R80597   0.231   6.109  11.400
11829POPC   H4S80598   0.371   6.081  11.510
11829POPC   C2580599   0.180   6.012  11.585
11829POPC   H5R80600   0.228   5.946  11.662
11829POPC   H5S80601   0.093   5.957  11.544
11829POPC   C2680602   0.127   6.139  11.651
11829POPC   H6R80603   0.022   6.116  11.679
11829POPC   H6S80604   0.124   6.223  11.579
11829POPC   C2780605   0.206   6.179  11.778
11829POPC   H7R80606   0.309   6.208  11.749
11829POPC   H7S80607   0.214   6.089  11.844
11829POPC   C2880608   0.142   6.293  11.860
11829POPC   H8R80609   0.144   6.387  11.801
11829POPC   H8S80610   0.201   6.310  11.953
11829POPC   C2980611  -0.001   6.255  11.890
11829POPC   H9180612  -0.069   6.273  11.806
11829POPC  C21080613  -0.052   6.199  12.001
11829POPC  H10180614  -0.159   6.172  12.000
11829POPC  C21180615   0.020   6.160  12.128
11829POPC  H11R80616   0.108   6.225  12.148
11829POPC  H11S80617   0.056   6.055  12.119
11829POPC  C21280618  -0.079   6.171  12.246
11829POPC  H12R80619  -0.169   6.108  12.225
11829POPC  H12S80620  -0.113   6.276  12.255
11829POPC  C21380621  -0.023   6.130  12.383
11829POPC  H13R80622  -0.105   6.136  12.458
11829POPC  H13S80623   0.055   6.203  12.413
11829POPC  C21480624   0.039   5.989  12.388
11829POPC  H14R80625   0.121   5.981  12.314
11829POPC  H14S80626  -0.040   5.916  12.361
11829POPC  C21580627   0.097   5.953  12.526
11829POPC  H15R80628   0.131   5.848  12.523
11829POPC  H15S80629   0.017   5.962  12.603
11829POPC  C21680630   0.221   6.034  12.566
11829POPC  H16R80631   0.238   6.113  12.491
11829POPC  H16S80632   0.310   5.967  12.564
11829POPC  C21780633   0.210   6.097  12.705
11829POPC  H17R80634   0.226   6.020  12.784
11829POPC  H17S80635   0.107   6.139  12.720
11829POPC  C21880636   0.311   6.210  12.722
11829POPC  H18R80637   0.296   6.264  12.816
11829POPC  H18S80638   0.297   6.283  12.640
11829POPC  H18T80639   0.415   6.171  12.717
11829POPC   C3380640   0.431   6.498  11.655
11829POPC   H3X80641   0.342   6.500  11.722
11829POPC   H3Y80642   0.480   6.598  11.657
11829POPC   C3480643   0.530   6.396  11.709
11829POPC   H4X80644   0.630   6.410  11.664
11829POPC   H4Y80645   0.495   6.294  11.682
11829POPC   C3580646   0.540   6.405  11.861
11829POPC   H5X80647   0.437   6.400  11.903
11829POPC   H5Y80648   0.584   6.502  11.893
11829POPC   C3680649   0.620   6.289  11.916
11829POPC   H6X80650   0.729   6.309  11.906
11829POPC   H6Y80651   0.598   6.197  11.857
11829POPC   C3780652   0.583   6.261  12.061
11829POPC   H7X80653   0.476   6.232  12.066
11829POPC   H7Y80654   0.597   6.352  12.124
11829POPC   C3880655   0.669   6.147  12.114
11829POPC   H8X80656   0.769   6.189  12.140
11829POPC   H8Y80657   0.686   6.070  12.035
11829POPC   C3980658   0.606   6.079  12.235
11829POPC   H9X80659   0.559   5.984  12.203
11829POPC   H9Y80660   0.525   6.141  12.277
11829POPC  C31080661   0.716   6.057  12.338
11829POPC  H10X80662   0.747   6.157  12.378
11829POPC  H10Y80663   0.805   6.015  12.288
11829POPC  C31180664   0.679   5.967  12.455
11829POPC  H11X80665   0.650   5.866  12.422
11829POPC  H11Y80666   0.591   6.003  12.512
11829POPC  C31280667   0.802   5.957  12.544
11829POPC  H12X80668   0.854   6.055  12.549
11829POPC  H12Y80669   0.873   5.886  12.496
11829POPC  C31380670   0.771   5.910  12.685
11829POPC  H13X80671   0.694   5.830  12.677
11829POPC  H13Y80672   0.726   5.992  12.745
11829POPC  C31480673   0.900   5.859  12.750
11829POPC  H14X80674   0.969   5.945  12.765
11829POPC  H14Y80675   0.949   5.790  12.678
11829POPC  C31580676   0.881   5.783  12.881
11829POPC  H15X80677   0.843   5.856  12.957
11829POPC  H15Y80678   0.981   5.749  12.914
11829POPC  C31680679   0.790   5.661  12.874
11829POPC  H16X80680   0.851   5.569  12.860
11829POPC  H16Y80681   0.718   5.666  12.790
11829POPC  H16Z80682   0.731   5.649  12.968
11830POPC     N80683   8.899   4.833  10.902
11830POPC   C1280684   8.903   4.681  10.894
11830POPC  H12A80685   8.808   4.637  10.924
11830POPC  H12B80686   8.976   4.643  10.966
11830POPC   C1380687   8.805   4.891  10.800
11830POPC  H13A80688   8.823   4.997  10.783
11830POPC  H13B80689   8.822   4.841  10.705
11830POPC  H13C80690   8.701   4.878  10.826
11830POPC   C1480691   8.859   4.873  11.042
11830POPC  H14A80692   8.861   4.981  11.050
11830POPC  H14B80693   8.758   4.842  11.067
11830POPC  H14C80694   8.929   4.835  11.116
11830POPC   C1580695   9.036   4.887  10.873
11830POPC  H15A80696   9.038   4.993  10.856
11830POPC  H15B80697   9.078   4.835  10.786
11830POPC  H15C80698   9.106   4.863  10.952
11830POPC   C1180699   8.948   4.619  10.759
11830POPC  H11A80700   8.898   4.670  10.674
11830POPC  H11B80701   8.915   4.512  10.755
11830POPC     P80702   9.183   4.523  10.811
11830POPC   O1380703   9.324   4.563  10.789
11830POPC   O1480704   9.143   4.387  10.768
11830POPC   O1280705   9.089   4.631  10.743
11830POPC   O1180706   9.145   4.546  10.962
11830POPC    C180707   9.207   4.646  11.045
11830POPC    HA80708   9.126   4.705  11.093
11830POPC    HB80709   9.271   4.718  10.989
11830POPC    C280710   9.290   4.583  11.160
11830POPC    HS80711   9.391   4.560  11.121
11830POPC   O2180712   9.219   4.467  11.205
11830POPC   C2180713   9.276   4.350  11.187
11830POPC   O2280714   9.393   4.332  11.158
11830POPC   C2280715   9.174   4.243  11.224
11830POPC   H2R80716   9.225   4.146  11.231
11830POPC   H2S80717   9.100   4.236  11.142
11830POPC    C380718   9.302   4.685  11.278
11830POPC    HX80719   9.355   4.775  11.240
11830POPC    HY80720   9.367   4.638  11.356
11830POPC   O3180721   9.170   4.722  11.324
11830POPC   C3180722   9.144   4.701  11.452
11830POPC   O3280723   9.226   4.681  11.539
11830POPC   C3280724   8.992   4.709  11.471
11830POPC   H2X80725   8.962   4.636  11.548
11830POPC   H2Y80726   8.945   4.680  11.375
11830POPC   C2380727   9.102   4.274  11.358
11830POPC   H3R80728   9.033   4.190  11.383
11830POPC   H3S80729   9.040   4.365  11.345
11830POPC   C2480730   9.195   4.297  11.479
11830POPC   H4R80731   9.277   4.367  11.452
11830POPC   H4S80732   9.241   4.202  11.512
11830POPC   C2580733   9.118   4.359  11.596
11830POPC   H5R80734   9.045   4.287  11.637
11830POPC   H5S80735   9.060   4.444  11.554
11830POPC   C2680736   9.207   4.416  11.707
11830POPC   H6R80737   9.286   4.478  11.660
11830POPC   H6S80738   9.259   4.337  11.765
11830POPC   C2780739   9.124   4.506  11.799
11830POPC   H7R80740   9.036   4.546  11.744
11830POPC   H7S80741   9.186   4.595  11.825
11830POPC   C2880742   9.076   4.439  11.929
11830POPC   H8R80743   9.023   4.515  11.989
11830POPC   H8S80744   9.167   4.411  11.987
11830POPC   C2980745   8.990   4.317  11.916
11830POPC   H9180746   9.049   4.225  11.914
11830POPC  C21080747   8.856   4.307  11.912
11830POPC  H10180748   8.811   4.207  11.903
11830POPC  C21180749   8.758   4.420  11.920
11830POPC  H11R80750   8.676   4.403  11.847
11830POPC  H11S80751   8.807   4.514  11.887
11830POPC  C21280752   8.697   4.439  12.061
11830POPC  H12R80753   8.634   4.351  12.086
11830POPC  H12S80754   8.631   4.529  12.058
11830POPC  C21380755   8.802   4.459  12.172
11830POPC  H13R80756   8.870   4.540  12.138
11830POPC  H13S80757   8.865   4.368  12.183
11830POPC  C21480758   8.749   4.499  12.311
11830POPC  H14R80759   8.711   4.407  12.362
11830POPC  H14S80760   8.664   4.570  12.299
11830POPC  C21580761   8.859   4.565  12.396
11830POPC  H15R80762   8.875   4.668  12.359
11830POPC  H15S80763   8.953   4.507  12.385
11830POPC  C21680764   8.827   4.578  12.545
11830POPC  H16R80765   8.793   4.480  12.583
11830POPC  H16S80766   8.748   4.656  12.557
11830POPC  C21780767   8.941   4.625  12.634
11830POPC  H17R80768   8.898   4.675  12.723
11830POPC  H17S80769   8.996   4.703  12.579
11830POPC  C21880770   9.032   4.513  12.683
11830POPC  H18R80771   8.974   4.437  12.740
11830POPC  H18S80772   9.110   4.554  12.752
11830POPC  H18T80773   9.081   4.463  12.598
11830POPC   C3380774   8.948   4.851  11.510
11830POPC   H3X80775   8.839   4.865  11.487
11830POPC   H3Y80776   9.005   4.924  11.449
11830POPC   C3480777   8.968   4.883  11.658
11830POPC   H4X80778   8.956   4.992  11.673
11830POPC   H4Y80779   9.071   4.856  11.691
11830POPC   C3580780   8.865   4.812  11.747
11830POPC   H5X80781   8.890   4.704  11.755
11830POPC   H5Y80782   8.763   4.820  11.701
11830POPC   C3680783   8.861   4.875  11.886
11830POPC   H6X80784   8.818   4.977  11.880
11830POPC   H6Y80785   8.967   4.884  11.918
11830POPC   C3780786   8.780   4.793  11.987
11830POPC   H7X80787   8.818   4.689  11.987
11830POPC   H7Y80788   8.674   4.784  11.956
11830POPC   C3880789   8.792   4.847  12.130
11830POPC   H8X80790   8.745   4.774  12.200
11830POPC   H8Y80791   8.735   4.942  12.138
11830POPC   C3980792   8.938   4.873  12.172
11830POPC   H9X80793   8.941   4.898  12.281
11830POPC   H9Y80794   8.975   4.962  12.117
11830POPC  C31080795   9.031   4.755  12.143
11830POPC  H10X80796   9.009   4.708  12.046
11830POPC  H10Y80797   9.013   4.680  12.222
11830POPC  C31180798   9.181   4.784  12.137
11830POPC  H11X80799   9.208   4.837  12.229
11830POPC  H11Y80800   9.202   4.853  12.052
11830POPC  C31280801   9.266   4.656  12.121
11830POPC  H12X80802   9.374   4.679  12.132
11830POPC  H12Y80803   9.252   4.621  12.017
11830POPC  C31380804   9.231   4.538  12.213
11830POPC  H13X80805   9.276   4.446  12.170
11830POPC  H13Y80806   9.122   4.518  12.217
11830POPC  C31480807   9.288   4.547  12.354
11830POPC  H14X80808   9.399   4.545  12.347
11830POPC  H14Y80809   9.251   4.455  12.407
11830POPC  C31580810   9.252   4.666  12.443
11830POPC  H15X80811   9.142   4.674  12.447
11830POPC  H15Y80812   9.291   4.760  12.401
11830POPC  C31680813   9.314   4.647  12.582
11830POPC  H16X80814   9.291   4.729  12.651
11830POPC  H16Y80815   9.425   4.641  12.574
11830POPC  H16Z80816   9.279   4.553  12.628
11831POPC     N80817   7.799   1.695  10.672
11831POPC   C1280818   7.781   1.775  10.799
11831POPC  H12A80819   7.679   1.808  10.806
11831POPC  H12B80820   7.845   1.862  10.794
11831POPC   C1380821   7.727   1.563  10.684
11831POPC  H13A80822   7.774   1.503  10.763
11831POPC  H13B80823   7.622   1.572  10.704
11831POPC  H13C80824   7.741   1.504  10.593
11831POPC   C1480825   7.748   1.771  10.555
11831POPC  H14A80826   7.761   1.712  10.464
11831POPC  H14B80827   7.643   1.793  10.567
11831POPC  H14C80828   7.799   1.866  10.542
11831POPC   C1580829   7.945   1.663  10.651
11831POPC  H15A80830   7.963   1.610  10.559
11831POPC  H15B80831   7.980   1.600  10.734
11831POPC  H15C80832   8.007   1.752  10.655
11831POPC   C1180833   7.817   1.706  10.932
11831POPC  H11A80834   7.749   1.618  10.947
11831POPC  H11B80835   7.800   1.777  11.016
11831POPC     P80836   7.997   1.555  11.031
11831POPC   O1380837   8.144   1.551  11.047
11831POPC   O1480838   7.923   1.433  10.996
11831POPC   O1280839   7.956   1.669  10.930
11831POPC   O1180840   7.930   1.611  11.164
11831POPC    C180841   7.989   1.727  11.221
11831POPC    HA80842   7.911   1.778  11.283
11831POPC    HB80843   8.022   1.801  11.144
11831POPC    C280844   8.106   1.690  11.313
11831POPC    HS80845   8.185   1.636  11.255
11831POPC   O2180846   8.051   1.605  11.415
11831POPC   C2180847   8.136   1.538  11.487
11831POPC   O2280848   8.258   1.540  11.475
11831POPC   C2280849   8.054   1.465  11.592
11831POPC   H2R80850   7.975   1.408  11.540
11831POPC   H2S80851   8.004   1.543  11.654
11831POPC    C380852   8.166   1.819  11.371
11831POPC    HX80853   8.191   1.886  11.286
11831POPC    HY80854   8.260   1.800  11.427
11831POPC   O3180855   8.061   1.882  11.445
11831POPC   C3180856   8.067   1.870  11.574
11831POPC   O3280857   8.158   1.823  11.640
11831POPC   C3280858   7.947   1.946  11.625
11831POPC   H2X80859   7.859   1.900  11.578
11831POPC   H2Y80860   7.953   2.050  11.586
11831POPC   C2380861   8.138   1.371  11.681
11831POPC   H3R80862   8.187   1.292  11.620
11831POPC   H3S80863   8.068   1.320  11.752
11831POPC   C2480864   8.242   1.444  11.765
11831POPC   H4R80865   8.325   1.483  11.702
11831POPC   H4S80866   8.286   1.370  11.835
11831POPC   C2580867   8.183   1.558  11.848
11831POPC   H5R80868   8.093   1.522  11.899
11831POPC   H5S80869   8.152   1.642  11.784
11831POPC   C2680870   8.282   1.609  11.952
11831POPC   H6R80871   8.333   1.700  11.912
11831POPC   H6S80872   8.362   1.532  11.965
11831POPC   C2780873   8.222   1.634  12.091
11831POPC   H7R80874   8.310   1.661  12.152
11831POPC   H7S80875   8.181   1.539  12.131
11831POPC   C2880876   8.118   1.747  12.107
11831POPC   H8R80877   8.099   1.764  12.215
11831POPC   H8S80878   8.021   1.716  12.061
11831POPC   C2980879   8.170   1.869  12.038
11831POPC   H9180880   8.188   1.852  11.930
11831POPC  C21080881   8.193   1.992  12.084
11831POPC  H10180882   8.240   2.060  12.014
11831POPC  C21180883   8.175   2.056  12.219
11831POPC  H11R80884   8.273   2.093  12.257
11831POPC  H11S80885   8.137   1.986  12.296
11831POPC  C21280886   8.081   2.179  12.205
11831POPC  H12R80887   8.122   2.251  12.131
11831POPC  H12S80888   8.075   2.231  12.303
11831POPC  C21380889   7.939   2.141  12.162
11831POPC  H13R80890   7.948   2.100  12.060
11831POPC  H13S80891   7.875   2.232  12.158
11831POPC  C21480892   7.882   2.038  12.258
11831POPC  H14R80893   7.902   2.081  12.359
11831POPC  H14S80894   7.937   1.942  12.251
11831POPC  C21580895   7.733   2.004  12.246
11831POPC  H15R80896   7.716   1.949  12.151
11831POPC  H15S80897   7.674   2.099  12.242
11831POPC  C21680898   7.684   1.918  12.365
11831POPC  H16R80899   7.734   1.819  12.358
11831POPC  H16S80900   7.574   1.903  12.357
11831POPC  C21780901   7.718   1.980  12.502
11831POPC  H17R80902   7.683   2.086  12.503
11831POPC  H17S80903   7.829   1.981  12.515
11831POPC  C21880904   7.661   1.908  12.624
11831POPC  H18R80905   7.695   1.803  12.627
11831POPC  H18S80906   7.550   1.909  12.624
11831POPC  H18T80907   7.697   1.956  12.717
11831POPC   C3380908   7.944   1.950  11.778
11831POPC   H3X80909   8.041   1.986  11.820
11831POPC   H3Y80910   7.928   1.847  11.818
11831POPC   C3480911   7.834   2.044  11.829
11831POPC   H4X80912   7.867   2.149  11.816
11831POPC   H4Y80913   7.818   2.024  11.937
11831POPC   C3580914   7.700   2.023  11.760
11831POPC   H5X80915   7.704   2.063  11.656
11831POPC   H5Y80916   7.626   2.084  11.815
11831POPC   C3680917   7.656   1.875  11.755
11831POPC   H6X80918   7.725   1.817  11.692
11831POPC   H6Y80919   7.558   1.866  11.705
11831POPC   C3780920   7.649   1.806  11.892
11831POPC   H7X80921   7.567   1.851  11.952
11831POPC   H7Y80922   7.744   1.822  11.948
11831POPC   C3880923   7.628   1.655  11.880
11831POPC   H8X80924   7.531   1.633  11.832
11831POPC   H8Y80925   7.624   1.617  11.985
11831POPC   C3980926   7.741   1.584  11.803
11831POPC   H9X80927   7.838   1.629  11.831
11831POPC   H9Y80928   7.728   1.602  11.694
11831POPC  C31080929   7.749   1.432  11.828
11831POPC  H10X80930   7.839   1.393  11.775
11831POPC  H10Y80931   7.660   1.383  11.782
11831POPC  C31180932   7.759   1.391  11.976
11831POPC  H11X80933   7.768   1.281  11.982
11831POPC  H11Y80934   7.666   1.419  12.030
11831POPC  C31280935   7.880   1.453  12.046
11831POPC  H12X80936   7.886   1.562  12.028
11831POPC  H12Y80937   7.969   1.405  11.998
11831POPC  C31380938   7.893   1.428  12.197
11831POPC  H13X80939   8.003   1.425  12.217
11831POPC  H13Y80940   7.851   1.329  12.221
11831POPC  C31480941   7.834   1.535  12.291
11831POPC  H14X80942   7.725   1.543  12.275
11831POPC  H14Y80943   7.880   1.634  12.268
11831POPC  C31580944   7.864   1.500  12.438
11831POPC  H15X80945   7.974   1.495  12.450
11831POPC  H15Y80946   7.822   1.398  12.456
11831POPC  C31680947   7.810   1.592  12.547
11831POPC  H16X80948   7.858   1.692  12.541
11831POPC  H16Y80949   7.832   1.550  12.647
11831POPC  H16Z80950   7.700   1.604  12.538
11832POPC     N80951   8.908   2.869  10.861
11832POPC   C1280952   8.798   2.774  10.812
11832POPC  H12A80953   8.842   2.680  10.780
11832POPC  H12B80954   8.753   2.818  10.723
11832POPC   C1380955   9.018   2.881  10.760
11832POPC  H13A80956   9.049   2.782  10.724
11832POPC  H13B80957   8.985   2.937  10.674
11832POPC  H13C80958   9.106   2.930  10.801
11832POPC   C1480959   8.844   3.003  10.882
11832POPC  H14A80960   8.911   3.077  10.921
11832POPC  H14B80961   8.798   3.037  10.789
11832POPC  H14C80962   8.760   2.990  10.950
11832POPC   C1580963   8.964   2.819  10.990
11832POPC  H15A80964   9.046   2.881  11.024
11832POPC  H15B80965   8.999   2.717  10.978
11832POPC  H15C80966   8.886   2.818  11.067
11832POPC   C1180967   8.679   2.741  10.907
11832POPC  H11A80968   8.719   2.703  11.004
11832POPC  H11B80969   8.621   2.657  10.863
11832POPC     P80970   8.509   2.908  10.809
11832POPC   O1380971   8.433   2.799  10.745
11832POPC   O1480972   8.599   2.987  10.722
11832POPC   O1280973   8.594   2.854  10.933
11832POPC   O1180974   8.403   3.003  10.879
11832POPC    C180975   8.439   3.130  10.933
11832POPC    HA80976   8.344   3.185  10.951
11832POPC    HB80977   8.498   3.190  10.861
11832POPC    C280978   8.511   3.123  11.071
11832POPC    HS80979   8.615   3.086  11.052
11832POPC   O2180980   8.435   3.033  11.155
11832POPC   C2180981   8.505   2.955  11.233
11832POPC   O2280982   8.626   2.958  11.248
11832POPC   C2280983   8.413   2.851  11.300
11832POPC   H2R80984   8.477   2.804  11.377
11832POPC   H2S80985   8.390   2.778  11.220
11832POPC    C380986   8.519   3.264  11.135
11832POPC    HX80987   8.560   3.334  11.060
11832POPC    HY80988   8.591   3.265  11.220
11832POPC   O3180989   8.385   3.305  11.173
11832POPC   C3180990   8.348   3.255  11.291
11832POPC   O3280991   8.426   3.220  11.378
11832POPC   C3280992   8.195   3.238  11.294
11832POPC   H2X80993   8.172   3.147  11.236
11832POPC   H2Y80994   8.151   3.322  11.236
11832POPC   C2380995   8.279   2.894  11.371
11832POPC   H3R80996   8.227   2.967  11.306
11832POPC   H3S80997   8.310   2.943  11.465
11832POPC   C2480998   8.179   2.779  11.402
11832POPC   H4R80999   8.243   2.691  11.388
11832POPC   H4S81000   8.099   2.776  11.325
11832POPC   C2581001   8.117   2.757  11.543
11832POPC   H5R81002   8.018   2.807  11.550
11832POPC   H5S81003   8.185   2.811  11.607
11832POPC   C2681004   8.107   2.607  11.593
11832POPC   H6R81005   8.201   2.553  11.583
11832POPC   H6S81006   8.041   2.560  11.516
11832POPC   C2781007   8.043   2.566  11.733
11832POPC   H7R81008   8.000   2.466  11.712
11832POPC   H7S81009   7.958   2.636  11.747
11832POPC   C2881010   8.110   2.550  11.881
11832POPC   H8R81011   8.030   2.486  11.923
11832POPC   H8S81012   8.093   2.644  11.934
11832POPC   C2981013   8.236   2.492  11.946
11832POPC   H9181014   8.201   2.398  11.994
11832POPC  C21081015   8.359   2.525  11.994
11832POPC  H10181016   8.417   2.438  12.032
11832POPC  C21181017   8.454   2.643  11.990
11832POPC  H11R81018   8.407   2.714  11.925
11832POPC  H11S81019   8.547   2.613  11.939
11832POPC  C21281020   8.507   2.727  12.112
11832POPC  H12R81021   8.427   2.770  12.174
11832POPC  H12S81022   8.560   2.816  12.071
11832POPC  C21381023   8.610   2.647  12.192
11832POPC  H13R81024   8.698   2.625  12.130
11832POPC  H13S81025   8.561   2.549  12.211
11832POPC  C21481026   8.654   2.701  12.329
11832POPC  H14R81027   8.587   2.781  12.365
11832POPC  H14S81028   8.754   2.747  12.318
11832POPC  C21581029   8.657   2.585  12.429
11832POPC  H15R81030   8.720   2.505  12.383
11832POPC  H15S81031   8.555   2.543  12.436
11832POPC  C21681032   8.709   2.610  12.571
11832POPC  H16R81033   8.771   2.701  12.580
11832POPC  H16S81034   8.774   2.523  12.594
11832POPC  C21781035   8.607   2.598  12.683
11832POPC  H17R81036   8.521   2.665  12.663
11832POPC  H17S81037   8.654   2.633  12.778
11832POPC  C21881038   8.562   2.453  12.702
11832POPC  H18R81039   8.457   2.439  12.669
11832POPC  H18S81040   8.571   2.424  12.809
11832POPC  H18T81041   8.625   2.383  12.643
11832POPC   C3381042   8.123   3.233  11.433
11832POPC   H3X81043   8.016   3.204  11.416
11832POPC   H3Y81044   8.119   3.336  11.472
11832POPC   C3481045   8.181   3.143  11.545
11832POPC   H4X81046   8.290   3.133  11.533
11832POPC   H4Y81047   8.140   3.040  11.538
11832POPC   C3581048   8.160   3.196  11.687
11832POPC   H5X81049   8.077   3.141  11.736
11832POPC   H5Y81050   8.116   3.296  11.677
11832POPC   C3681051   8.284   3.199  11.782
11832POPC   H6X81052   8.286   3.110  11.846
11832POPC   H6Y81053   8.255   3.272  11.859
11832POPC   C3781054   8.429   3.229  11.730
11832POPC   H7X81055   8.463   3.324  11.775
11832POPC   H7Y81056   8.429   3.245  11.621
11832POPC   C3881057   8.538   3.123  11.762
11832POPC   H8X81058   8.526   3.041  11.688
11832POPC   H8Y81059   8.524   3.086  11.866
11832POPC   C3981060   8.687   3.161  11.753
11832POPC   H9X81061   8.694   3.252  11.692
11832POPC   H9Y81062   8.743   3.084  11.694
11832POPC  C31081063   8.758   3.175  11.889
11832POPC  H10X81064   8.704   3.248  11.953
11832POPC  H10Y81065   8.860   3.215  11.871
11832POPC  C31181066   8.775   3.041  11.965
11832POPC  H11X81067   8.813   2.967  11.890
11832POPC  H11Y81068   8.678   3.004  12.002
11832POPC  C31281069   8.879   3.047  12.078
11832POPC  H12X81070   8.971   3.093  12.037
11832POPC  H12Y81071   8.906   2.942  12.106
11832POPC  C31381072   8.839   3.120  12.208
11832POPC  H13X81073   8.813   3.226  12.187
11832POPC  H13Y81074   8.929   3.121  12.274
11832POPC  C31481075   8.723   3.052  12.282
11832POPC  H14X81076   8.723   2.945  12.255
11832POPC  H14Y81077   8.628   3.096  12.246
11832POPC  C31581078   8.730   3.064  12.435
11832POPC  H15X81079   8.632   3.032  12.478
11832POPC  H15Y81080   8.743   3.171  12.461
11832POPC  C31681081   8.840   2.983  12.505
11832POPC  H16X81082   8.940   3.003  12.460
11832POPC  H16Y81083   8.819   2.875  12.495
11832POPC  H16Z81084   8.845   3.008  12.613
11833POPC     N81085   7.758   7.699  10.811
11833POPC   C1281086   7.857   7.735  10.922
11833POPC  H12A81087   7.811   7.729  11.020
11833POPC  H12B81088   7.889   7.840  10.911
11833POPC   C1381089   7.820   7.736  10.682
11833POPC  H13A81090   7.918   7.687  10.677
11833POPC  H13B81091   7.762   7.709  10.597
11833POPC  H13C81092   7.848   7.841  10.678
11833POPC   C1481093   7.736   7.552  10.811
11833POPC  H14A81094   7.662   7.521  10.738
11833POPC  H14B81095   7.831   7.503  10.786
11833POPC  H14C81096   7.702   7.521  10.909
11833POPC   C1581097   7.626   7.768  10.826
11833POPC  H15A81098   7.556   7.737  10.749
11833POPC  H15B81099   7.639   7.875  10.824
11833POPC  H15C81100   7.578   7.740  10.920
11833POPC   C1181101   7.990   7.654  10.930
11833POPC  H11A81102   7.972   7.545  10.923
11833POPC  H11B81103   8.036   7.669  11.030
11833POPC     P81104   8.136   7.837  10.803
11833POPC   O1381105   8.051   7.897  10.697
11833POPC   O1481106   8.282   7.828  10.783
11833POPC   O1281107   8.082   7.689  10.829
11833POPC   O1181108   8.104   7.910  10.940
11833POPC    C181109   8.194   7.888  11.049
11833POPC    HA81110   8.275   7.965  11.044
11833POPC    HB81111   8.244   7.788  11.046
11833POPC    C281112   8.127   7.902  11.188
11833POPC    HS81113   8.206   7.945  11.254
11833POPC   O2181114   8.087   7.772  11.237
11833POPC   C2181115   8.072   7.762  11.368
11833POPC   O2281116   8.085   7.852  11.449
11833POPC   C2281117   8.021   7.622  11.398
11833POPC   H2R81118   8.078   7.549  11.336
11833POPC   H2S81119   7.915   7.620  11.366
11833POPC    C381120   8.004   8.000  11.186
11833POPC    HX81121   8.039   8.091  11.132
11833POPC    HY81122   7.985   8.027  11.293
11833POPC   O3181123   7.879   7.951  11.130
11833POPC   C3181124   7.784   8.048  11.148
11833POPC   O3281125   7.810   8.163  11.175
11833POPC   C3281126   7.647   7.986  11.157
11833POPC   H2X81127   7.620   7.942  11.059
11833POPC   H2Y81128   7.575   8.068  11.178
11833POPC   C2381129   8.033   7.585  11.546
11833POPC   H3R81130   8.009   7.673  11.610
11833POPC   H3S81131   8.138   7.555  11.567
11833POPC   C2481132   7.937   7.473  11.586
11833POPC   H4R81133   7.955   7.381  11.525
11833POPC   H4S81134   7.835   7.509  11.561
11833POPC   C2581135   7.945   7.440  11.735
11833POPC   H5R81136   7.928   7.536  11.788
11833POPC   H5S81137   8.045   7.406  11.766
11833POPC   C2681138   7.843   7.336  11.782
11833POPC   H6R81139   7.869   7.300  11.884
11833POPC   H6S81140   7.839   7.249  11.714
11833POPC   C2781141   7.712   7.412  11.788
11833POPC   H7R81142   7.688   7.446  11.685
11833POPC   H7S81143   7.737   7.502  11.850
11833POPC   C2881144   7.590   7.342  11.846
11833POPC   H8R81145   7.611   7.298  11.945
11833POPC   H8S81146   7.553   7.261  11.778
11833POPC   C2981147   7.499   7.463  11.847
11833POPC   H9181148   7.450   7.484  11.751
11833POPC  C21081149   7.480   7.545  11.952
11833POPC  H10181150   7.411   7.630  11.940
11833POPC  C21181151   7.543   7.530  12.087
11833POPC  H11R81152   7.595   7.432  12.099
11833POPC  H11S81153   7.461   7.528  12.160
11833POPC  C21281154   7.639   7.634  12.146
11833POPC  H12R81155   7.600   7.737  12.132
11833POPC  H12S81156   7.738   7.625  12.097
11833POPC  C21381157   7.651   7.600  12.295
11833POPC  H13R81158   7.696   7.499  12.303
11833POPC  H13S81159   7.548   7.595  12.338
11833POPC  C21481160   7.730   7.697  12.379
11833POPC  H14R81161   7.708   7.801  12.347
11833POPC  H14S81162   7.839   7.678  12.363
11833POPC  C21581163   7.701   7.679  12.528
11833POPC  H15R81164   7.707   7.570  12.551
11833POPC  H15S81165   7.597   7.712  12.551
11833POPC  C21681166   7.802   7.752  12.617
11833POPC  H16R81167   7.902   7.709  12.594
11833POPC  H16S81168   7.781   7.731  12.724
11833POPC  C21781169   7.805   7.904  12.592
11833POPC  H17R81170   7.710   7.950  12.626
11833POPC  H17S81171   7.814   7.923  12.483
11833POPC  C21881172   7.922   7.972  12.661
11833POPC  H18R81173   8.010   7.907  12.656
11833POPC  H18S81174   7.903   7.988  12.768
11833POPC  H18T81175   7.947   8.069  12.612
11833POPC   C3381176   7.644   7.882  11.270
11833POPC   H3X81177   7.744   7.837  11.288
11833POPC   H3Y81178   7.578   7.799  11.239
11833POPC   C3481179   7.592   7.939  11.403
11833POPC   H4X81180   7.482   7.949  11.400
11833POPC   H4Y81181   7.635   8.041  11.420
11833POPC   C3581182   7.635   7.850  11.521
11833POPC   H5X81183   7.746   7.859  11.529
11833POPC   H5Y81184   7.611   7.744  11.501
11833POPC   C3681185   7.570   7.894  11.652
11833POPC   H6X81186   7.460   7.880  11.645
11833POPC   H6Y81187   7.591   8.003  11.665
11833POPC   C3781188   7.623   7.822  11.777
11833POPC   H7X81189   7.589   7.717  11.776
11833POPC   H7Y81190   7.580   7.872  11.867
11833POPC   C3881191   7.775   7.827  11.782
11833POPC   H8X81192   7.806   7.931  11.753
11833POPC   H8Y81193   7.819   7.757  11.707
11833POPC   C3981194   7.836   7.797  11.918
11833POPC   H9X81195   7.849   7.688  11.930
11833POPC   H9Y81196   7.770   7.835  11.999
11833POPC  C31081197   7.971   7.866  11.927
11833POPC  H10X81198   7.955   7.976  11.928
11833POPC  H10Y81199   8.031   7.841  11.837
11833POPC  C31181200   8.049   7.826  12.051
11833POPC  H11X81201   8.148   7.877  12.050
11833POPC  H11Y81202   8.070   7.717  12.049
11833POPC  C31281203   7.974   7.856  12.181
11833POPC  H12X81204   7.908   7.769  12.198
11833POPC  H12Y81205   7.909   7.944  12.169
11833POPC  C31381206   8.069   7.873  12.300
11833POPC  H13X81207   8.007   7.873  12.393
11833POPC  H13Y81208   8.121   7.971  12.293
11833POPC  C31481209   8.173   7.761  12.306
11833POPC  H14X81210   8.227   7.757  12.210
11833POPC  H14Y81211   8.118   7.664  12.314
11833POPC  C31581212   8.273   7.773  12.420
11833POPC  H15X81213   8.333   7.866  12.412
11833POPC  H15Y81214   8.343   7.686  12.418
11833POPC  C31681215   8.197   7.776  12.550
11833POPC  H16X81216   8.102   7.719  12.541
11833POPC  H16Y81217   8.255   7.734  12.635
11833POPC  H16Z81218   8.174   7.882  12.571
11834POPC     N81219   0.788   7.083  10.789
11834POPC   C1281220   0.782   7.004  10.920
11834POPC  H12A81221   0.680   7.012  10.959
11834POPC  H12B81222   0.846   7.048  10.995
11834POPC   C1381223   0.680   7.026  10.701
11834POPC  H13A81224   0.582   7.036  10.746
11834POPC  H13B81225   0.681   7.069  10.601
11834POPC  H13C81226   0.696   6.918  10.692
11834POPC   C1481227   0.763   7.229  10.808
11834POPC  H14A81228   0.779   7.282  10.714
11834POPC  H14B81229   0.660   7.247  10.835
11834POPC  H14C81230   0.828   7.272  10.883
11834POPC   C1581231   0.918   7.061  10.719
11834POPC  H15A81232   0.998   7.105  10.774
11834POPC  H15B81233   0.914   7.105  10.620
11834POPC  H15C81234   0.937   6.954  10.709
11834POPC   C1181235   0.810   6.851  10.915
11834POPC  H11A81236   0.804   6.809  11.019
11834POPC  H11B81237   0.914   6.833  10.881
11834POPC     P81238   0.572   6.742  10.875
11834POPC   O1381239   0.579   6.632  10.973
11834POPC   O1481240   0.478   6.735  10.760
11834POPC   O1281241   0.720   6.781  10.828
11834POPC   O1181242   0.540   6.882  10.942
11834POPC    C181243   0.479   6.897  11.067
11834POPC    HA81244   0.537   6.845  11.147
11834POPC    HB81245   0.377   6.852  11.064
11834POPC    C281246   0.464   7.048  11.102
11834POPC    HS81247   0.430   7.102  11.012
11834POPC   O2181248   0.589   7.103  11.148
11834POPC   C2181249   0.589   7.226  11.202
11834POPC   O2281250   0.503   7.310  11.185
11834POPC   C2281251   0.722   7.243  11.278
11834POPC   H2R81252   0.781   7.317  11.220
11834POPC   H2S81253   0.777   7.147  11.278
11834POPC    C381254   0.355   7.052  11.210
11834POPC    HX81255   0.261   7.013  11.166
11834POPC    HY81256   0.336   7.156  11.243
11834POPC   O3181257   0.398   6.962  11.311
11834POPC   C3181258   0.377   7.003  11.433
11834POPC   O3281259   0.317   7.104  11.464
11834POPC   C3281260   0.425   6.896  11.529
11834POPC   H2X81261   0.536   6.895  11.532
11834POPC   H2Y81262   0.390   6.797  11.492
11834POPC   C2381263   0.709   7.293  11.424
11834POPC   H3R81264   0.628   7.369  11.432
11834POPC   H3S81265   0.805   7.345  11.450
11834POPC   C2481266   0.689   7.183  11.529
11834POPC   H4R81267   0.774   7.112  11.527
11834POPC   H4S81268   0.596   7.127  11.508
11834POPC   C2581269   0.677   7.246  11.669
11834POPC   H5R81270   0.579   7.298  11.671
11834POPC   H5S81271   0.759   7.319  11.686
11834POPC   C2681272   0.666   7.153  11.789
11834POPC   H6R81273   0.568   7.100  11.785
11834POPC   H6S81274   0.666   7.216  11.881
11834POPC   C2781275   0.775   7.048  11.804
11834POPC   H7R81276   0.876   7.094  11.801
11834POPC   H7S81277   0.767   6.973  11.722
11834POPC   C2881278   0.750   6.983  11.940
11834POPC   H8R81279   0.645   6.948  11.942
11834POPC   H8S81280   0.759   7.061  12.018
11834POPC   C2981281   0.837   6.865  11.965
11834POPC   H9181282   0.827   6.782  11.893
11834POPC  C21081283   0.922   6.853  12.067
11834POPC  H10181284   0.976   6.759  12.074
11834POPC  C21181285   0.951   6.950  12.178
11834POPC  H11R81286   0.893   7.044  12.172
11834POPC  H11S81287   1.058   6.978  12.170
11834POPC  C21281288   0.927   6.885  12.315
11834POPC  H12R81289   0.938   6.963  12.393
11834POPC  H12S81290   1.005   6.808  12.335
11834POPC  C21381291   0.788   6.820  12.330
11834POPC  H13R81292   0.781   6.730  12.266
11834POPC  H13S81293   0.712   6.892  12.295
11834POPC  C21481294   0.760   6.781  12.475
11834POPC  H14R81295   0.778   6.866  12.544
11834POPC  H14S81296   0.838   6.705  12.500
11834POPC  C21581297   0.624   6.716  12.503
11834POPC  H15R81298   0.644   6.657  12.595
11834POPC  H15S81299   0.594   6.649  12.420
11834POPC  C21681300   0.506   6.800  12.552
11834POPC  H16R81301   0.425   6.731  12.586
11834POPC  H16S81302   0.462   6.863  12.471
11834POPC  C21781303   0.551   6.886  12.669
11834POPC  H17R81304   0.612   6.966  12.627
11834POPC  H17S81305   0.621   6.831  12.735
11834POPC  C21881306   0.437   6.943  12.752
11834POPC  H18R81307   0.366   6.863  12.779
11834POPC  H18S81308   0.385   7.020  12.692
11834POPC  H18T81309   0.473   6.990  12.846
11834POPC   C3381310   0.362   6.931  11.663
11834POPC   H3X81311   0.251   6.935  11.650
11834POPC   H3Y81312   0.394   7.031  11.699
11834POPC   C3481313   0.384   6.826  11.769
11834POPC   H4X81314   0.492   6.814  11.793
11834POPC   H4Y81315   0.343   6.730  11.731
11834POPC   C3581316   0.304   6.865  11.893
11834POPC   H5X81317   0.270   6.772  11.940
11834POPC   H5Y81318   0.215   6.925  11.865
11834POPC   C3681319   0.390   6.942  11.991
11834POPC   H6X81320   0.430   7.032  11.939
11834POPC   H6Y81321   0.474   6.876  12.021
11834POPC   C3781322   0.315   6.986  12.115
11834POPC   H7X81323   0.300   6.899  12.182
11834POPC   H7Y81324   0.216   7.021  12.083
11834POPC   C3881325   0.389   7.096  12.190
11834POPC   H8X81326   0.332   7.122  12.282
11834POPC   H8Y81327   0.396   7.186  12.125
11834POPC   C3981328   0.530   7.055  12.234
11834POPC   H9X81329   0.583   7.005  12.151
11834POPC   H9Y81330   0.522   6.980  12.315
11834POPC  C31081331   0.616   7.174  12.278
11834POPC  H10X81332   0.633   7.239  12.190
11834POPC  H10Y81333   0.715   7.134  12.309
11834POPC  C31181334   0.554   7.261  12.390
11834POPC  H11X81335   0.455   7.298  12.355
11834POPC  H11Y81336   0.617   7.350  12.408
11834POPC  C31281337   0.535   7.192  12.525
11834POPC  H12X81338   0.508   7.086  12.507
11834POPC  H12Y81339   0.448   7.238  12.577
11834POPC  C31381340   0.656   7.206  12.619
11834POPC  H13X81341   0.640   7.148  12.712
11834POPC  H13Y81342   0.658   7.312  12.650
11834POPC  C31481343   0.793   7.163  12.562
11834POPC  H14X81344   0.818   7.229  12.477
11834POPC  H14Y81345   0.785   7.062  12.520
11834POPC  C31581346   0.907   7.171  12.665
11834POPC  H15X81347   0.884   7.251  12.739
11834POPC  H15Y81348   1.000   7.201  12.613
11834POPC  C31681349   0.932   7.039  12.739
11834POPC  H16X81350   1.009   7.053  12.819
11834POPC  H16Y81351   0.969   6.962  12.668
11834POPC  H16Z81352   0.839   7.002  12.786
11835POPC     N81353   7.266   8.442  10.637
11835POPC   C1281354   7.271   8.522  10.766
11835POPC  H12A81355   7.197   8.484  10.836
11835POPC  H12B81356   7.243   8.624  10.744
11835POPC   C1381357   7.144   8.483  10.562
11835POPC  H13A81358   7.134   8.425  10.470
11835POPC  H13B81359   7.052   8.469  10.617
11835POPC  H13C81360   7.150   8.587  10.531
11835POPC   C1481361   7.386   8.468  10.549
11835POPC  H14A81362   7.399   8.574  10.525
11835POPC  H14B81363   7.477   8.431  10.596
11835POPC  H14C81364   7.375   8.421  10.452
11835POPC   C1581365   7.261   8.296  10.672
11835POPC  H15A81366   7.168   8.269  10.719
11835POPC  H15B81367   7.340   8.276  10.745
11835POPC  H15C81368   7.278   8.235  10.584
11835POPC   C1181369   7.404   8.524  10.845
11835POPC  H11A81370   7.396   8.600  10.927
11835POPC  H11B81371   7.485   8.559  10.778
11835POPC     P81372   7.410   8.353  11.044
11835POPC   O1381373   7.507   8.428  11.127
11835POPC   O1481374   7.412   8.205  11.046
11835POPC   O1281375   7.436   8.394  10.893
11835POPC   O1181376   7.263   8.406  11.067
11835POPC    C181377   7.154   8.318  11.039
11835POPC    HA81378   7.179   8.236  10.967
11835POPC    HB81379   7.074   8.378  10.989
11835POPC    C281380   7.093   8.254  11.167
11835POPC    HS81381   6.999   8.205  11.135
11835POPC   O2181382   7.065   8.351  11.267
11835POPC   C2181383   6.980   8.445  11.239
11835POPC   O2281384   6.909   8.455  11.140
11835POPC   C2281385   6.971   8.534  11.360
11835POPC   H2R81386   6.944   8.470  11.447
11835POPC   H2S81387   6.889   8.606  11.345
11835POPC    C381388   7.177   8.144  11.236
11835POPC    HX81389   7.259   8.191  11.295
11835POPC    HY81390   7.222   8.077  11.160
11835POPC   O3181391   7.084   8.069  11.317
11835POPC   C3181392   7.116   8.037  11.439
11835POPC   O3281393   7.228   8.037  11.487
11835POPC   C3281394   6.988   8.002  11.515
11835POPC   H2X81395   6.934   7.924  11.456
11835POPC   H2Y81396   6.925   8.093  11.521
11835POPC   C2381397   7.105   8.605  11.389
11835POPC   H3R81398   7.102   8.707  11.342
11835POPC   H3S81399   7.192   8.553  11.343
11835POPC   C2481400   7.126   8.620  11.540
11835POPC   H4R81401   7.028   8.648  11.585
11835POPC   H4S81402   7.199   8.702  11.556
11835POPC   C2581403   7.183   8.500  11.613
11835POPC   H5R81404   7.106   8.420  11.620
11835POPC   H5S81405   7.209   8.532  11.717
11835POPC   C2681406   7.308   8.446  11.544
11835POPC   H6R81407   7.365   8.531  11.501
11835POPC   H6S81408   7.277   8.382  11.459
11835POPC   C2781409   7.399   8.367  11.637
11835POPC   H7R81410   7.451   8.434  11.708
11835POPC   H7S81411   7.476   8.315  11.575
11835POPC   C2881412   7.316   8.266  11.715
11835POPC   H8R81413   7.252   8.221  11.635
11835POPC   H8S81414   7.247   8.318  11.785
11835POPC   C2981415   7.389   8.155  11.784
11835POPC   H9181416   7.402   8.067  11.721
11835POPC  C21081417   7.425   8.150  11.914
11835POPC  H10181418   7.476   8.061  11.950
11835POPC  C21181419   7.398   8.257  12.016
11835POPC  H11R81420   7.342   8.213  12.102
11835POPC  H11S81421   7.334   8.339  11.975
11835POPC  C21281422   7.527   8.322  12.069
11835POPC  H12R81423   7.588   8.356  11.982
11835POPC  H12S81424   7.586   8.246  12.124
11835POPC  C21381425   7.500   8.444  12.158
11835POPC  H13R81426   7.436   8.515  12.101
11835POPC  H13S81427   7.596   8.495  12.180
11835POPC  C21481428   7.430   8.410  12.291
11835POPC  H14R81429   7.343   8.344  12.272
11835POPC  H14S81430   7.391   8.503  12.337
11835POPC  C21581431   7.525   8.343  12.392
11835POPC  H15R81432   7.602   8.419  12.420
11835POPC  H15S81433   7.579   8.259  12.343
11835POPC  C21681434   7.459   8.292  12.520
11835POPC  H16R81435   7.404   8.377  12.568
11835POPC  H16S81436   7.539   8.261  12.591
11835POPC  C21781437   7.363   8.174  12.501
11835POPC  H17R81438   7.282   8.203  12.430
11835POPC  H17S81439   7.313   8.153  12.598
11835POPC  C21881440   7.430   8.045  12.451
11835POPC  H18R81441   7.478   8.062  12.352
11835POPC  H18S81442   7.355   7.964  12.440
11835POPC  H18T81443   7.508   8.012  12.522
11835POPC   C3381444   7.013   7.948  11.655
11835POPC   H3X81445   7.101   7.879  11.656
11835POPC   H3Y81446   6.926   7.889  11.689
11835POPC   C3481447   7.031   8.060  11.757
11835POPC   H4X81448   6.938   8.120  11.767
11835POPC   H4Y81449   7.109   8.129  11.723
11835POPC   C3581450   7.072   7.999  11.889
11835POPC   H5X81451   7.163   7.937  11.875
11835POPC   H5Y81452   6.986   7.934  11.913
11835POPC   C3681453   7.089   8.094  12.006
11835POPC   H6X81454   7.145   8.185  11.977
11835POPC   H6Y81455   7.148   8.041  12.084
11835POPC   C3781456   6.954   8.132  12.065
11835POPC   H7X81457   6.887   8.043  12.061
11835POPC   H7Y81458   6.908   8.212  12.003
11835POPC   C3881459   6.964   8.175  12.211
11835POPC   H8X81460   7.045   8.119  12.262
11835POPC   H8Y81461   6.868   8.151  12.262
11835POPC   C3981462   6.987   8.325  12.223
11835POPC   H9X81463   6.903   8.377  12.172
11835POPC   H9Y81464   7.082   8.353  12.170
11835POPC  C31081465   6.995   8.367  12.369
11835POPC  H10X81466   7.092   8.331  12.410
11835POPC  H10Y81467   6.914   8.318  12.427
11835POPC  C31181468   6.980   8.519  12.382
11835POPC  H11X81469   6.871   8.539  12.370
11835POPC  H11Y81470   7.036   8.570  12.301
11835POPC  C31281471   7.020   8.578  12.517
11835POPC  H12X81472   6.953   8.529  12.591
11835POPC  H12Y81473   6.995   8.687  12.518
11835POPC  C31381474   7.168   8.560  12.553
11835POPC  H13X81475   7.229   8.636  12.499
11835POPC  H13Y81476   7.204   8.461  12.517
11835POPC  C31481477   7.197   8.569  12.703
11835POPC  H14X81478   7.179   8.673  12.738
11835POPC  H14Y81479   7.304   8.545  12.720
11835POPC  C31581480   7.113   8.472  12.789
11835POPC  H15X81481   7.005   8.492  12.778
11835POPC  H15Y81482   7.135   8.496  12.895
11835POPC  C31681483   7.142   8.324  12.764
11835POPC  H16X81484   7.249   8.302  12.781
11835POPC  H16Y81485   7.117   8.297  12.659
11835POPC  H16Z81486   7.081   8.260  12.831
11836POPC     N81487   1.851   8.328  10.873
11836POPC   C1281488   1.882   8.183  10.911
11836POPC  H12A81489   1.824   8.159  11.001
11836POPC  H12B81490   1.986   8.173  10.937
11836POPC   C1381491   1.891   8.355  10.732
11836POPC  H13A81492   1.842   8.281  10.669
11836POPC  H13B81493   1.854   8.452  10.700
11836POPC  H13C81494   1.998   8.352  10.714
11836POPC   C1481495   1.702   8.345  10.882
11836POPC  H14A81496   1.654   8.259  10.834
11836POPC  H14B81497   1.669   8.345  10.985
11836POPC  H14C81498   1.668   8.433  10.830
11836POPC   C1581499   1.918   8.426  10.964
11836POPC  H15A81500   2.026   8.417  10.964
11836POPC  H15B81501   1.882   8.417  11.067
11836POPC  H15C81502   1.895   8.528  10.935
11836POPC   C1181503   1.845   8.073  10.807
11836POPC  H11A81504   1.875   7.973  10.848
11836POPC  H11B81505   1.904   8.087  10.714
11836POPC     P81506   1.598   8.010  10.871
11836POPC   O1381507   1.588   7.866  10.837
11836POPC   O1481508   1.476   8.093  10.862
11836POPC   O1281509   1.706   8.074  10.773
11836POPC   O1181510   1.670   8.033  11.011
11836POPC    C181511   1.600   8.047  11.134
11836POPC    HA81512   1.624   7.960  11.199
11836POPC    HB81513   1.489   8.051  11.122
11836POPC    C281514   1.643   8.177  11.209
11836POPC    HS81515   1.622   8.262  11.141
11836POPC   O2181516   1.784   8.169  11.241
11836POPC   C2181517   1.838   8.283  11.282
11836POPC   O2281518   1.789   8.393  11.265
11836POPC   C2281519   1.976   8.256  11.339
11836POPC   H2R81520   2.049   8.288  11.262
11836POPC   H2S81521   1.989   8.147  11.358
11836POPC    C381522   1.559   8.197  11.338
11836POPC    HX81523   1.451   8.197  11.310
11836POPC    HY81524   1.583   8.296  11.384
11836POPC   O3181525   1.593   8.093  11.430
11836POPC   C3181526   1.497   8.041  11.502
11836POPC   O3281527   1.379   8.070  11.499
11836POPC   C3281528   1.562   7.938  11.594
11836POPC   H2X81529   1.647   7.990  11.645
11836POPC   H2Y81530   1.604   7.856  11.533
11836POPC   C2381531   2.001   8.336  11.468
11836POPC   H3R81532   1.955   8.437  11.464
11836POPC   H3S81533   2.111   8.351  11.481
11836POPC   C2481534   1.954   8.263  11.594
11836POPC   H4R81535   2.012   8.169  11.607
11836POPC   H4S81536   1.847   8.235  11.582
11836POPC   C2581537   1.973   8.350  11.719
11836POPC   H5R81538   1.899   8.434  11.715
11836POPC   H5S81539   2.074   8.397  11.717
11836POPC   C2681540   1.957   8.273  11.851
11836POPC   H6R81541   1.958   8.346  11.936
11836POPC   H6S81542   2.045   8.206  11.864
11836POPC   C2781543   1.829   8.188  11.859
11836POPC   H7R81544   1.819   8.149  11.963
11836POPC   H7S81545   1.840   8.100  11.792
11836POPC   C2881546   1.700   8.263  11.820
11836POPC   H8R81547   1.618   8.188  11.820
11836POPC   H8S81548   1.706   8.300  11.716
11836POPC   C2981549   1.672   8.379  11.912
11836POPC   H9181550   1.756   8.448  11.923
11836POPC  C21081551   1.558   8.407  11.976
11836POPC  H10181552   1.556   8.498  12.038
11836POPC  C21181553   1.426   8.333  11.978
11836POPC  H11R81554   1.361   8.378  11.900
11836POPC  H11S81555   1.380   8.358  12.076
11836POPC  C21281556   1.408   8.179  11.965
11836POPC  H12R81557   1.423   8.149  11.860
11836POPC  H12S81558   1.301   8.156  11.988
11836POPC  C21381559   1.496   8.095  12.058
11836POPC  H13R81560   1.601   8.099  12.022
11836POPC  H13S81561   1.463   7.989  12.053
11836POPC  C21481562   1.497   8.138  12.204
11836POPC  H14R81563   1.538   8.241  12.212
11836POPC  H14S81564   1.567   8.070  12.257
11836POPC  C21581565   1.360   8.137  12.271
11836POPC  H15R81566   1.312   8.037  12.258
11836POPC  H15S81567   1.295   8.212  12.223
11836POPC  C21681568   1.372   8.170  12.420
11836POPC  H16R81569   1.270   8.184  12.461
11836POPC  H16S81570   1.424   8.267  12.433
11836POPC  C21781571   1.445   8.060  12.497
11836POPC  H17R81572   1.551   8.051  12.464
11836POPC  H17S81573   1.395   7.962  12.478
11836POPC  C21881574   1.444   8.088  12.646
11836POPC  H18R81575   1.506   8.177  12.670
11836POPC  H18S81576   1.478   8.001  12.704
11836POPC  H18T81577   1.340   8.110  12.678
11836POPC   C3381578   1.468   7.881  11.702
11836POPC   H3X81579   1.415   7.792  11.662
11836POPC   H3Y81580   1.391   7.957  11.731
11836POPC   C3481581   1.543   7.844  11.830
11836POPC   H4X81582   1.471   7.815  11.909
11836POPC   H4Y81583   1.597   7.936  11.865
11836POPC   C3581584   1.645   7.731  11.810
11836POPC   H5X81585   1.712   7.755  11.724
11836POPC   H5Y81586   1.590   7.638  11.785
11836POPC   C3681587   1.733   7.708  11.933
11836POPC   H6X81588   1.793   7.616  11.916
11836POPC   H6Y81589   1.667   7.689  12.021
11836POPC   C3781590   1.829   7.824  11.963
11836POPC   H7X81591   1.770   7.911  11.998
11836POPC   H7Y81592   1.882   7.854  11.870
11836POPC   C3881593   1.932   7.787  12.070
11836POPC   H8X81594   1.997   7.705  12.033
11836POPC   H8Y81595   1.878   7.753  12.160
11836POPC   C3981596   2.016   7.904  12.118
11836POPC   H9X81597   2.051   7.964  12.031
11836POPC   H9Y81598   2.106   7.866  12.172
11836POPC  C31081599   1.937   7.991  12.215
11836POPC  H10X81600   1.925   7.937  12.312
11836POPC  H10Y81601   1.835   8.011  12.175
11836POPC  C31181602   2.008   8.123  12.238
11836POPC  H11X81603   2.030   8.172  12.141
11836POPC  H11Y81604   2.105   8.096  12.285
11836POPC  C31281605   1.929   8.218  12.328
11836POPC  H12X81606   1.997   8.291  12.375
11836POPC  H12Y81607   1.882   8.160  12.410
11836POPC  C31381608   1.825   8.296  12.248
11836POPC  H13X81609   1.746   8.225  12.217
11836POPC  H13Y81610   1.871   8.336  12.155
11836POPC  C31481611   1.763   8.413  12.327
11836POPC  H14X81612   1.683   8.459  12.266
11836POPC  H14Y81613   1.842   8.490  12.345
11836POPC  C31581614   1.705   8.369  12.462
11836POPC  H15X81615   1.789   8.337  12.528
11836POPC  H15Y81616   1.640   8.280  12.445
11836POPC  C31681617   1.624   8.478  12.533
11836POPC  H16X81618   1.584   8.441  12.629
11836POPC  H16Y81619   1.539   8.510  12.469
11836POPC  H16Z81620   1.688   8.567  12.554
11837POPC     N81621   8.885   5.560  10.817
11837POPC   C1281622   8.955   5.477  10.923
11837POPC  H12A81623   8.952   5.374  10.893
11837POPC  H12B81624   8.902   5.486  11.017
11837POPC   C1381625   8.933   5.702  10.835
11837POPC  H13A81626   8.912   5.739  10.935
11837POPC  H13B81627   9.042   5.704  10.825
11837POPC  H13C81628   8.896   5.770  10.761
11837POPC   C1481629   8.928   5.512  10.680
11837POPC  H14A81630   9.036   5.527  10.670
11837POPC  H14B81631   8.908   5.407  10.664
11837POPC  H14C81632   8.878   5.566  10.602
11837POPC   C1581633   8.738   5.550  10.819
11837POPC  H15A81634   8.697   5.616  10.743
11837POPC  H15B81635   8.696   5.572  10.915
11837POPC  H15C81636   8.707   5.450  10.789
11837POPC   C1181637   9.104   5.514  10.943
11837POPC  H11A81638   9.154   5.434  11.002
11837POPC  H11B81639   9.112   5.608  11.004
11837POPC     P81640   9.310   5.576  10.791
11837POPC   O1381641   9.317   5.725  10.792
11837POPC   O1481642   9.360   5.505  10.671
11837POPC   O1281643   9.164   5.531  10.815
11837POPC   O1181644   9.375   5.513  10.923
11837POPC    C181645   9.456   5.392  10.918
11837POPC    HA81646   9.557   5.417  10.958
11837POPC    HB81647   9.473   5.361  10.814
11837POPC    C281648   9.412   5.255  10.990
11837POPC    HS81649   9.460   5.173  10.931
11837POPC   O2181650   9.269   5.231  10.998
11837POPC   C2181651   9.238   5.108  11.045
11837POPC   O2281652   9.307   5.009  11.039
11837POPC   C2281653   9.113   5.114  11.132
11837POPC   H2R81654   9.079   5.009  11.146
11837POPC   H2S81655   9.035   5.174  11.083
11837POPC    C381656   9.471   5.247  11.134
11837POPC    HX81657   9.574   5.209  11.125
11837POPC    HY81658   9.423   5.169  11.196
11837POPC   O3181659   9.476   5.377  11.198
11837POPC   C3181660   9.446   5.382  11.326
11837POPC   O3281661   9.408   5.290  11.395
11837POPC   C3281662   9.467   5.525  11.373
11837POPC   H2X81663   9.408   5.593  11.307
11837POPC   H2Y81664   9.575   5.549  11.365
11837POPC   C2381665   9.155   5.170  11.269
11837POPC   H3R81666   9.209   5.267  11.253
11837POPC   H3S81667   9.226   5.101  11.319
11837POPC   C2481668   9.041   5.203  11.366
11837POPC   H4R81669   8.980   5.114  11.387
11837POPC   H4S81670   8.975   5.279  11.320
11837POPC   C2581671   9.100   5.259  11.498
11837POPC   H5R81672   9.160   5.349  11.475
11837POPC   H5S81673   9.170   5.183  11.540
11837POPC   C2681674   8.995   5.294  11.604
11837POPC   H6R81675   8.934   5.204  11.624
11837POPC   H6S81676   8.927   5.372  11.563
11837POPC   C2781677   9.055   5.346  11.736
11837POPC   H7R81678   9.111   5.439  11.714
11837POPC   H7S81679   9.129   5.272  11.776
11837POPC   C2881680   8.949   5.377  11.844
11837POPC   H8R81681   8.872   5.442  11.798
11837POPC   H8S81682   8.997   5.437  11.925
11837POPC   C2981683   8.884   5.252  11.899
11837POPC   H9181684   8.856   5.179  11.822
11837POPC  C21081685   8.855   5.223  12.027
11837POPC  H10181686   8.807   5.126  12.048
11837POPC  C21181687   8.880   5.307  12.150
11837POPC  H11R81688   8.782   5.339  12.193
11837POPC  H11S81689   8.938   5.399  12.128
11837POPC  C21281690   8.954   5.227  12.258
11837POPC  H12R81691   8.901   5.132  12.280
11837POPC  H12S81692   8.952   5.287  12.351
11837POPC  C21381693   9.102   5.200  12.224
11837POPC  H13R81694   9.144   5.290  12.173
11837POPC  H13S81695   9.112   5.115  12.154
11837POPC  C21481696   9.184   5.173  12.350
11837POPC  H14R81697   9.174   5.264  12.413
11837POPC  H14S81698   9.291   5.162  12.326
11837POPC  C21581699   9.134   5.050  12.425
11837POPC  H15R81700   9.134   4.962  12.359
11837POPC  H15S81701   9.028   5.067  12.453
11837POPC  C21681702   9.212   5.015  12.552
11837POPC  H16R81703   9.243   5.108  12.603
11837POPC  H16S81704   9.305   4.959  12.527
11837POPC  C21781705   9.124   4.936  12.649
11837POPC  H17R81706   9.132   4.829  12.626
11837POPC  H17S81707   9.017   4.960  12.633
11837POPC  C21881708   9.160   4.963  12.794
11837POPC  H18R81709   9.269   4.952  12.811
11837POPC  H18S81710   9.106   4.892  12.860
11837POPC  H18T81711   9.130   5.066  12.821
11837POPC   C3381712   9.419   5.537  11.518
11837POPC   H3X81713   9.480   5.470  11.583
11837POPC   H3Y81714   9.313   5.502  11.525
11837POPC   C3481715   9.423   5.679  11.576
11837POPC   H4X81716   9.373   5.750  11.507
11837POPC   H4Y81717   9.529   5.711  11.591
11837POPC   C3581718   9.348   5.675  11.709
11837POPC   H5X81719   9.383   5.583  11.760
11837POPC   H5Y81720   9.239   5.664  11.688
11837POPC   C3681721   9.370   5.793  11.804
11837POPC   H6X81722   9.355   5.890  11.751
11837POPC   H6Y81723   9.474   5.790  11.841
11837POPC   C3781724   9.272   5.788  11.922
11837POPC   H7X81725   9.176   5.836  11.893
11837POPC   H7Y81726   9.315   5.850  12.004
11837POPC   C3881727   9.242   5.645  11.970
11837POPC   H8X81728   9.333   5.582  11.961
11837POPC   H8Y81729   9.165   5.600  11.904
11837POPC   C3981730   9.195   5.636  12.115
11837POPC   H9X81731   9.159   5.533  12.137
11837POPC   H9Y81732   9.110   5.707  12.130
11837POPC  C31081733   9.307   5.670  12.215
11837POPC  H10X81734   9.256   5.683  12.313
11837POPC  H10Y81735   9.355   5.767  12.190
11837POPC  C31181736   9.416   5.562  12.226
11837POPC  H11X81737   9.465   5.553  12.126
11837POPC  H11Y81738   9.372   5.464  12.251
11837POPC  C31281739   9.526   5.598  12.327
11837POPC  H12X81740   9.550   5.706  12.319
11837POPC  H12Y81741   9.618   5.542  12.297
11837POPC  C31381742   9.496   5.558  12.472
11837POPC  H13X81743   9.585   5.588  12.532
11837POPC  H13Y81744   9.485   5.448  12.478
11837POPC  C31481745   9.370   5.616  12.538
11837POPC  H14X81746   9.286   5.545  12.525
11837POPC  H14Y81747   9.340   5.711  12.490
11837POPC  C31581748   9.393   5.646  12.687
11837POPC  H15X81749   9.480   5.714  12.698
11837POPC  H15Y81750   9.419   5.552  12.739
11837POPC  C31681751   9.273   5.712  12.755
11837POPC  H16X81752   9.290   5.720  12.865
11837POPC  H16Y81753   9.181   5.651  12.739
11837POPC  H16Z81754   9.254   5.813  12.714
11838POPC     N81755   3.479   0.170  10.739
11838POPC   C1281756   3.584   0.209  10.636
11838POPC  H12A81757   3.532   0.255  10.552
11838POPC  H12B81758   3.637   0.122  10.602
11838POPC   C1381759   3.397   0.291  10.769
11838POPC  H13A81760   3.327   0.313  10.689
11838POPC  H13B81761   3.344   0.279  10.862
11838POPC  H13C81762   3.465   0.375  10.780
11838POPC   C1481763   3.388   0.063  10.686
11838POPC  H14A81764   3.442  -0.030  10.668
11838POPC  H14B81765   3.308   0.039  10.756
11838POPC  H14C81766   3.341   0.094  10.593
11838POPC   C1581767   3.542   0.123  10.866
11838POPC  H15A81768   3.608   0.201  10.909
11838POPC  H15B81769   3.609   0.040  10.845
11838POPC  H15C81770   3.469   0.092  10.940
11838POPC   C1181771   3.691   0.311  10.680
11838POPC  H11A81772   3.640   0.407  10.708
11838POPC  H11B81773   3.755   0.333  10.591
11838POPC     P81774   3.845   0.363  10.885
11838POPC   O1381775   3.939   0.445  10.803
11838POPC   O1481776   3.891   0.291  11.004
11838POPC   O1281777   3.772   0.259  10.786
11838POPC   O1181778   3.727   0.458  10.933
11838POPC    C181779   3.731   0.602  10.920
11838POPC    HA81780   3.628   0.637  10.897
11838POPC    HB81781   3.795   0.634  10.835
11838POPC    C281782   3.779   0.688  11.043
11838POPC    HS81783   3.855   0.759  11.002
11838POPC   O2181784   3.835   0.609  11.150
11838POPC   C2181785   3.926   0.673  11.222
11838POPC   O2281786   3.976   0.781  11.195
11838POPC   C2281787   3.956   0.592  11.346
11838POPC   H2R81788   4.066   0.588  11.360
11838POPC   H2S81789   3.919   0.491  11.320
11838POPC    C381790   3.662   0.771  11.101
11838POPC    HX81791   3.617   0.835  11.022
11838POPC    HY81792   3.700   0.842  11.175
11838POPC   O3181793   3.563   0.682  11.155
11838POPC   C3181794   3.557   0.673  11.286
11838POPC   O3281795   3.586   0.760  11.366
11838POPC   C3281796   3.514   0.531  11.325
11838POPC   H2X81797   3.406   0.539  11.340
11838POPC   H2Y81798   3.563   0.509  11.422
11838POPC   C2381799   3.882   0.631  11.477
11838POPC   H3R81800   3.784   0.676  11.452
11838POPC   H3S81801   3.940   0.704  11.537
11838POPC   C2481802   3.857   0.502  11.555
11838POPC   H4R81803   3.951   0.466  11.600
11838POPC   H4S81804   3.826   0.425  11.481
11838POPC   C2581805   3.754   0.497  11.667
11838POPC   H5R81806   3.781   0.406  11.724
11838POPC   H5S81807   3.651   0.486  11.625
11838POPC   C2681808   3.755   0.606  11.772
11838POPC   H6R81809   3.685   0.578  11.854
11838POPC   H6S81810   3.713   0.697  11.722
11838POPC   C2781811   3.894   0.642  11.829
11838POPC   H7R81812   3.894   0.752  11.826
11838POPC   H7S81813   3.973   0.614  11.757
11838POPC   C2881814   3.941   0.597  11.972
11838POPC   H8R81815   4.021   0.668  12.001
11838POPC   H8S81816   3.990   0.499  11.953
11838POPC   C2981817   3.854   0.570  12.093
11838POPC   H9181818   3.775   0.497  12.069
11838POPC  C21081819   3.854   0.618  12.221
11838POPC  H10181820   3.784   0.565  12.287
11838POPC  C21181821   3.940   0.714  12.304
11838POPC  H11R81822   4.035   0.730  12.250
11838POPC  H11S81823   3.968   0.653  12.393
11838POPC  C21281824   3.907   0.855  12.375
11838POPC  H12R81825   3.976   0.927  12.325
11838POPC  H12S81826   3.949   0.844  12.478
11838POPC  C21381827   3.769   0.933  12.394
11838POPC  H13R81828   3.682   0.894  12.346
11838POPC  H13S81829   3.774   1.025  12.335
11838POPC  C21481830   3.724   0.957  12.542
11838POPC  H14R81831   3.812   0.954  12.609
11838POPC  H14S81832   3.662   0.868  12.563
11838POPC  C21581833   3.633   1.076  12.589
11838POPC  H15R81834   3.552   1.095  12.517
11838POPC  H15S81835   3.696   1.167  12.598
11838POPC  C21681836   3.575   1.039  12.729
11838POPC  H16R81837   3.661   1.037  12.797
11838POPC  H16S81838   3.538   0.936  12.721
11838POPC  C21781839   3.458   1.110  12.802
11838POPC  H17R81840   3.365   1.104  12.743
11838POPC  H17S81841   3.479   1.216  12.818
11838POPC  C21881842   3.432   1.049  12.941
11838POPC  H18R81843   3.391   0.946  12.932
11838POPC  H18S81844   3.362   1.111  13.000
11838POPC  H18T81845   3.525   1.040  13.001
11838POPC   C3381846   3.546   0.415  11.224
11838POPC   H3X81847   3.655   0.403  11.209
11838POPC   H3Y81848   3.505   0.446  11.125
11838POPC   C3481849   3.480   0.280  11.261
11838POPC   H4X81850   3.439   0.236  11.167
11838POPC   H4Y81851   3.394   0.297  11.328
11838POPC   C3581852   3.570   0.171  11.325
11838POPC   H5X81853   3.658   0.151  11.259
11838POPC   H5Y81854   3.512   0.077  11.333
11838POPC   C3681855   3.619   0.207  11.465
11838POPC   H6X81856   3.531   0.240  11.526
11838POPC   H6Y81857   3.686   0.294  11.455
11838POPC   C3781858   3.695   0.095  11.538
11838POPC   H7X81859   3.776   0.058  11.471
11838POPC   H7Y81860   3.626   0.010  11.557
11838POPC   C3881861   3.757   0.142  11.670
11838POPC   H8X81862   3.834   0.219  11.651
11838POPC   H8Y81863   3.811   0.061  11.723
11838POPC   C3981864   3.656   0.205  11.765
11838POPC   H9X81865   3.605   0.292  11.719
11838POPC   H9Y81866   3.716   0.243  11.851
11838POPC  C31081867   3.546   0.113  11.814
11838POPC  H10X81868   3.596   0.023  11.856
11838POPC  H10Y81869   3.480   0.082  11.730
11838POPC  C31181870   3.467   0.178  11.925
11838POPC  H11X81871   3.388   0.106  11.958
11838POPC  H11Y81872   3.415   0.270  11.889
11838POPC  C31281873   3.558   0.212  12.043
11838POPC  H12X81874   3.623   0.300  12.023
11838POPC  H12Y81875   3.624   0.124  12.062
11838POPC  C31381876   3.475   0.239  12.165
11838POPC  H13X81877   3.390   0.166  12.162
11838POPC  H13Y81878   3.433   0.341  12.162
11838POPC  C31481879   3.549   0.214  12.296
11838POPC  H14X81880   3.621   0.296  12.317
11838POPC  H14Y81881   3.605   0.118  12.293
11838POPC  C31581882   3.441   0.205  12.402
11838POPC  H15X81883   3.426   0.101  12.438
11838POPC  H15Y81884   3.349   0.236  12.348
11838POPC  C31681885   3.446   0.307  12.512
11838POPC  H16X81886   3.550   0.322  12.545
11838POPC  H16Y81887   3.381   0.278  12.597
11838POPC  H16Z81888   3.405   0.400  12.469
11839POPC     N81889   5.130   9.370  10.734
11839POPC   C1281890   5.025   9.338  10.842
11839POPC  H12A81891   4.965   9.252  10.810
11839POPC  H12B81892   4.958   9.421  10.854
11839POPC   C1381893   5.220   9.250  10.717
11839POPC  H13A81894   5.302   9.267  10.649
11839POPC  H13B81895   5.258   9.222  10.815
11839POPC  H13C81896   5.165   9.161  10.688
11839POPC   C1481897   5.064   9.399  10.603
11839POPC  H14A81898   5.004   9.489  10.604
11839POPC  H14B81899   5.139   9.413  10.525
11839POPC  H14C81900   5.002   9.315  10.571
11839POPC   C1581901   5.216   9.485  10.780
11839POPC  H15A81902   5.272   9.457  10.868
11839POPC  H15B81903   5.160   9.572  10.809
11839POPC  H15C81904   5.287   9.513  10.702
11839POPC   C1181905   5.079   9.301  10.983
11839POPC  H11A81906   4.994   9.285  11.054
11839POPC  H11B81907   5.137   9.386  11.025
11839POPC     P81908   5.109   9.038  10.986
11839POPC   O1381909   5.161   8.964  10.867
11839POPC   O1481910   4.963   9.042  11.004
11839POPC   O1281911   5.163   9.187  10.978
11839POPC   O1181912   5.180   8.986  11.118
11839POPC    C181913   5.323   8.999  11.134
11839POPC    HA81914   5.368   9.075  11.066
11839POPC    HB81915   5.368   8.900  11.109
11839POPC    C281916   5.369   9.035  11.279
11839POPC    HS81917   5.478   9.023  11.285
11839POPC   O2181918   5.303   8.951  11.374
11839POPC   C2181919   5.367   8.879  11.463
11839POPC   O2281920   5.480   8.834  11.457
11839POPC   C2281921   5.267   8.865  11.578
11839POPC   H2R81922   5.323   8.870  11.673
11839POPC   H2S81923   5.219   8.766  11.569
11839POPC    C381924   5.335   9.183  11.316
11839POPC    HX81925   5.224   9.187  11.325
11839POPC    HY81926   5.363   9.251  11.232
11839POPC   O3181927   5.393   9.222  11.442
11839POPC   C3181928   5.498   9.302  11.443
11839POPC   O3281929   5.558   9.344  11.345
11839POPC   C3281930   5.532   9.337  11.589
11839POPC   H2X81931   5.620   9.405  11.589
11839POPC   H2Y81932   5.562   9.242  11.637
11839POPC   C2381933   5.158   8.977  11.571
11839POPC   H3R81934   5.096   8.961  11.480
11839POPC   H3S81935   5.203   9.078  11.565
11839POPC   C2481936   5.063   8.972  11.690
11839POPC   H4R81937   5.033   8.865  11.696
11839POPC   H4S81938   4.972   9.032  11.670
11839POPC   C2581939   5.127   9.014  11.823
11839POPC   H5R81940   5.238   9.009  11.818
11839POPC   H5S81941   5.096   8.938  11.898
11839POPC   C2681942   5.084   9.152  11.875
11839POPC   H6R81943   4.974   9.165  11.874
11839POPC   H6S81944   5.125   9.230  11.806
11839POPC   C2781945   5.140   9.180  12.016
11839POPC   H7R81946   5.119   9.285  12.046
11839POPC   H7S81947   5.248   9.171  11.999
11839POPC   C2881948   5.109   9.080  12.131
11839POPC   H8R81949   5.207   9.059  12.181
11839POPC   H8S81950   5.073   8.983  12.092
11839POPC   C2981951   5.016   9.135  12.234
11839POPC   H9181952   5.035   9.241  12.260
11839POPC  C21081953   4.917   9.072  12.299
11839POPC  H10181954   4.857   9.134  12.367
11839POPC  C21181955   4.864   8.929  12.293
11839POPC  H11R81956   4.820   8.912  12.194
11839POPC  H11S81957   4.782   8.920  12.365
11839POPC  C21281958   4.950   8.806  12.328
11839POPC  H12R81959   5.054   8.839  12.315
11839POPC  H12S81960   4.929   8.729  12.250
11839POPC  C21381961   4.915   8.739  12.464
11839POPC  H13R81962   4.847   8.653  12.441
11839POPC  H13S81963   4.854   8.807  12.527
11839POPC  C21481964   5.029   8.686  12.553
11839POPC  H14R81965   5.011   8.580  12.577
11839POPC  H14S81966   5.023   8.735  12.653
11839POPC  C21581967   5.173   8.698  12.501
11839POPC  H15R81968   5.182   8.726  12.395
11839POPC  H15S81969   5.221   8.598  12.504
11839POPC  C21681970   5.252   8.798  12.584
11839POPC  H16R81971   5.294   8.748  12.675
11839POPC  H16S81972   5.180   8.875  12.619
11839POPC  C21781973   5.360   8.869  12.503
11839POPC  H17R81974   5.310   8.926  12.421
11839POPC  H17S81975   5.420   8.789  12.455
11839POPC  C21881976   5.449   8.962  12.584
11839POPC  H18R81977   5.541   8.987  12.526
11839POPC  H18S81978   5.480   8.915  12.680
11839POPC  H18T81979   5.396   9.057  12.607
11839POPC   C3381980   5.416   9.400  11.670
11839POPC   H3X81981   5.324   9.336  11.661
11839POPC   H3Y81982   5.391   9.501  11.631
11839POPC   C3481983   5.445   9.415  11.821
11839POPC   H4X81984   5.350   9.444  11.871
11839POPC   H4Y81985   5.519   9.497  11.838
11839POPC   C3581986   5.497   9.286  11.884
11839POPC   H5X81987   5.605   9.272  11.863
11839POPC   H5Y81988   5.442   9.204  11.833
11839POPC   C3681989   5.466   9.269  12.033
11839POPC   H6X81990   5.449   9.159  12.049
11839POPC   H6Y81991   5.371   9.322  12.057
11839POPC   C3781992   5.566   9.310  12.140
11839POPC   H7X81993   5.566   9.421  12.148
11839POPC   H7Y81994   5.670   9.281  12.118
11839POPC   C3881995   5.523   9.242  12.272
11839POPC   H8X81996   5.558   9.136  12.270
11839POPC   H8Y81997   5.412   9.240  12.276
11839POPC   C3981998   5.574   9.309  12.399
11839POPC   H9X81999   5.684   9.319  12.390
11839POPC   H9Y82000   5.554   9.244  12.487
11839POPC  C31082001   5.512   9.448  12.423
11839POPC  H10X82002   5.503   9.503  12.328
11839POPC  H10Y82003   5.580   9.504  12.491
11839POPC  C31182004   5.378   9.449  12.494
11839POPC  H11X82005   5.322   9.358  12.462
11839POPC  H11Y82006   5.318   9.537  12.462
11839POPC  C31282007   5.396   9.455  12.647
11839POPC  H12X82008   5.412   9.560  12.680
11839POPC  H12Y82009   5.485   9.395  12.675
11839POPC  C31382010   5.275   9.394  12.716
11839POPC  H13X82011   5.303   9.336  12.806
11839POPC  H13Y82012   5.236   9.323  12.641
11839POPC  C31482013   5.167   9.498  12.750
11839POPC  H14X82014   5.165   9.574  12.669
11839POPC  H14Y82015   5.194   9.549  12.845
11839POPC  C31582016   5.026   9.439  12.759
11839POPC  H15X82017   5.022   9.362  12.839
11839POPC  H15Y82018   5.001   9.393  12.661
11839POPC  C31682019   4.920   9.543  12.782
11839POPC  H16X82020   4.917   9.610  12.693
11839POPC  H16Y82021   4.942   9.604  12.872
11839POPC  H16Z82022   4.820   9.496  12.793
11840POPC     N82023   0.323   3.421  10.793
11840POPC   C1282024   0.407   3.332  10.883
11840POPC  H12A82025   0.397   3.368  10.986
11840POPC  H12B82026   0.511   3.341  10.856
11840POPC   C1382027   0.191   3.443  10.862
11840POPC  H13A82028   0.116   3.475  10.791
11840POPC  H13B82029   0.159   3.346  10.901
11840POPC  H13C82030   0.198   3.513  10.943
11840POPC   C1482031   0.385   3.554  10.767
11840POPC  H14A82032   0.313   3.624  10.726
11840POPC  H14B82033   0.420   3.602  10.857
11840POPC  H14C82034   0.467   3.548  10.696
11840POPC   C1582035   0.293   3.354  10.664
11840POPC  H15A82036   0.232   3.266  10.684
11840POPC  H15B82037   0.382   3.323  10.612
11840POPC  H15C82038   0.236   3.421  10.601
11840POPC   C1182039   0.365   3.182  10.888
11840POPC  H11A82040   0.437   3.127  10.953
11840POPC  H11B82041   0.371   3.137  10.787
11840POPC     P82042   0.151   3.035  10.942
11840POPC   O1382043   0.235   2.924  10.892
11840POPC   O1482044   0.024   3.058  10.869
11840POPC   O1282045   0.234   3.170  10.941
11840POPC   O1182046   0.116   3.010  11.094
11840POPC    C182047   0.029   3.093  11.171
11840POPC    HA82048  -0.012   3.030  11.253
11840POPC    HB82049  -0.057   3.131  11.112
11840POPC    C282050   0.103   3.212  11.239
11840POPC    HS82051   0.118   3.289  11.160
11840POPC   O2182052   0.227   3.164  11.292
11840POPC   C2182053   0.333   3.237  11.271
11840POPC   O2282054   0.339   3.345  11.213
11840POPC   C2282055   0.452   3.158  11.325
11840POPC   H2R82056   0.506   3.120  11.236
11840POPC   H2S82057   0.414   3.071  11.381
11840POPC    C382058   0.020   3.272  11.355
11840POPC    HX82059  -0.076   3.304  11.310
11840POPC    HY82060   0.072   3.362  11.397
11840POPC   O3182061  -0.009   3.174  11.456
11840POPC   C3182062   0.080   3.165  11.554
11840POPC   O3282063   0.164   3.248  11.583
11840POPC   C3282064   0.069   3.026  11.616
11840POPC   H2X82065   0.167   2.978  11.595
11840POPC   H2Y82066  -0.009   2.967  11.564
11840POPC   C2382067   0.546   3.240  11.416
11840POPC   H3R82068   0.491   3.278  11.505
11840POPC   H3S82069   0.584   3.329  11.362
11840POPC   C2482070   0.666   3.155  11.463
11840POPC   H4R82071   0.732   3.218  11.526
11840POPC   H4S82072   0.726   3.123  11.375
11840POPC   C2582073   0.630   3.028  11.539
11840POPC   H5R82074   0.722   2.984  11.584
11840POPC   H5S82075   0.589   2.951  11.469
11840POPC   C2682076   0.528   3.054  11.649
11840POPC   H6R82077   0.430   3.083  11.605
11840POPC   H6S82078   0.564   3.138  11.712
11840POPC   C2782079   0.509   2.930  11.734
11840POPC   H7R82080   0.606   2.907  11.782
11840POPC   H7S82081   0.485   2.843  11.669
11840POPC   C2882082   0.398   2.945  11.837
11840POPC   H8R82083   0.406   2.855  11.902
11840POPC   H8S82084   0.302   2.938  11.782
11840POPC   C2982085   0.388   3.072  11.917
11840POPC   H9182086   0.374   3.164  11.858
11840POPC  C21082087   0.386   3.079  12.050
11840POPC  H10182088   0.371   3.179  12.096
11840POPC  C21182089   0.395   2.964  12.148
11840POPC  H11R82090   0.466   2.987  12.231
11840POPC  H11S82091   0.437   2.874  12.099
11840POPC  C21282092   0.260   2.928  12.210
11840POPC  H12R82093   0.272   2.837  12.273
11840POPC  H12S82094   0.187   2.905  12.129
11840POPC  C21382095   0.206   3.042  12.297
11840POPC  H13R82096   0.206   3.133  12.233
11840POPC  H13S82097   0.276   3.060  12.383
11840POPC  C21482098   0.064   3.025  12.349
11840POPC  H14R82099  -0.008   3.012  12.265
11840POPC  H14S82100   0.037   3.120  12.401
11840POPC  C21582101   0.051   2.913  12.452
11840POPC  H15R82102   0.148   2.903  12.503
11840POPC  H15S82103   0.033   2.816  12.402
11840POPC  C21682104  -0.059   2.944  12.556
11840POPC  H16R82105  -0.150   2.973  12.499
11840POPC  H16S82106  -0.024   3.032  12.613
11840POPC  C21782107  -0.092   2.830  12.662
11840POPC  H17R82108   0.018   2.818  12.646
11840POPC  H17S82109  -0.178   2.901  12.677
11840POPC  C21882110  -0.064   2.839  12.817
11840POPC  H18R82111   0.027   2.782  12.845
11840POPC  H18S82112  -0.148   2.796  12.874
11840POPC  H18T82113  -0.051   2.945  12.847
11840POPC   C3382114   0.042   3.027  11.768
11840POPC   H3X82115   0.095   3.111  11.817
11840POPC   H3Y82116   0.086   2.934  11.812
11840POPC   C3482117  -0.107   3.024  11.801
11840POPC   H4X82118  -0.120   2.989  11.906
11840POPC   H4Y82119  -0.158   2.949  11.737
11840POPC   C3582120  -0.177   3.160  11.785
11840POPC   H5X82121  -0.284   3.148  11.813
11840POPC   H5Y82122  -0.173   3.193  11.679
11840POPC   C3682123  -0.116   3.270  11.874
11840POPC   H6X82124  -0.178   3.362  11.866
11840POPC   H6Y82125  -0.015   3.296  11.837
11840POPC   C3782126  -0.108   3.227  12.021
11840POPC   H7X82127  -0.035   3.144  12.033
11840POPC   H7Y82128  -0.207   3.190  12.054
11840POPC   C3882129  -0.067   3.341  12.113
11840POPC   H8X82130  -0.079   3.304  12.217
11840POPC   H8Y82131  -0.136   3.427  12.099
11840POPC   C3982132   0.077   3.383  12.087
11840POPC   H9X82133   0.081   3.443  11.993
11840POPC   H9Y82134   0.142   3.294  12.073
11840POPC  C31082135   0.130   3.466  12.203
11840POPC  H10X82136   0.059   3.549  12.223
11840POPC  H10Y82137   0.227   3.512  12.173
11840POPC  C31182138   0.151   3.385  12.333
11840POPC  H11X82139   0.228   3.308  12.317
11840POPC  H11Y82140   0.058   3.336  12.368
11840POPC  C31282141   0.203   3.480  12.439
11840POPC  H12X82142   0.125   3.559  12.454
11840POPC  H12Y82143   0.292   3.525  12.390
11840POPC  C31382144   0.251   3.436  12.576
11840POPC  H13X82145   0.173   3.462  12.651
11840POPC  H13Y82146   0.339   3.502  12.596
11840POPC  C31482147   0.300   3.294  12.605
11840POPC  H14X82148   0.370   3.253  12.530
11840POPC  H14Y82149   0.215   3.223  12.606
11840POPC  C31582150   0.370   3.301  12.742
11840POPC  H15X82151   0.308   3.246  12.813
11840POPC  H15Y82152   0.369   3.407  12.779
11840POPC  C31682153   0.515   3.254  12.746
11840POPC  H16X82154   0.523   3.148  12.714
11840POPC  H16Y82155   0.555   3.262  12.850
11840POPC  H16Z82156   0.580   3.315  12.680
11841POPC     N82157   8.615   7.002  10.666
11841POPC   C1282158   8.529   7.125  10.692
11841POPC  H12A82159   8.461   7.139  10.610
11841POPC  H12B82160   8.592   7.214  10.693
11841POPC   C1382161   8.532   6.881  10.696
11841POPC  H13A82162   8.440   6.882  10.638
11841POPC  H13B82163   8.584   6.790  10.673
11841POPC  H13C82164   8.504   6.885  10.801
11841POPC   C1482165   8.656   7.002  10.523
11841POPC  H14A82166   8.569   6.987  10.459
11841POPC  H14B82167   8.699   7.097  10.496
11841POPC  H14C82168   8.727   6.923  10.504
11841POPC   C1582169   8.732   7.010  10.758
11841POPC  H15A82170   8.693   7.027  10.859
11841POPC  H15B82171   8.792   7.097  10.737
11841POPC  H15C82172   8.792   6.921  10.760
11841POPC   C1182173   8.450   7.126  10.823
11841POPC  H11A82174   8.384   7.039  10.834
11841POPC  H11B82175   8.381   7.215  10.823
11841POPC     P82176   8.585   7.266  10.987
11841POPC   O1382177   8.614   7.353  10.870
11841POPC   O1482178   8.693   7.243  11.084
11841POPC   O1282179   8.541   7.124  10.933
11841POPC   O1182180   8.451   7.313  11.060
11841POPC    C182181   8.356   7.213  11.105
11841POPC    HA82182   8.400   7.110  11.107
11841POPC    HB82183   8.269   7.211  11.037
11841POPC    C282184   8.310   7.236  11.250
11841POPC    HS82185   8.227   7.310  11.247
11841POPC   O2182186   8.423   7.280  11.326
11841POPC   C2182187   8.414   7.401  11.373
11841POPC   O2282188   8.323   7.480  11.355
11841POPC   C2282189   8.533   7.422  11.466
11841POPC   H2R82190   8.621   7.431  11.399
11841POPC   H2S82191   8.545   7.331  11.529
11841POPC    C382192   8.257   7.107  11.319
11841POPC    HX82193   8.325   7.022  11.292
11841POPC    HY82194   8.157   7.084  11.277
11841POPC   O3182195   8.261   7.123  11.463
11841POPC   C3182196   8.144   7.140  11.522
11841POPC   O3282197   8.036   7.112  11.473
11841POPC   C3282198   8.158   7.220  11.652
11841POPC   H2X82199   8.069   7.200  11.714
11841POPC   H2Y82200   8.152   7.324  11.612
11841POPC   C2382201   8.513   7.548  11.554
11841POPC   H3R82202   8.478   7.631  11.489
11841POPC   H3S82203   8.608   7.580  11.599
11841POPC   C2482204   8.411   7.523  11.664
11841POPC   H4R82205   8.459   7.455  11.738
11841POPC   H4S82206   8.325   7.471  11.616
11841POPC   C2582207   8.353   7.647  11.735
11841POPC   H5R82208   8.313   7.716  11.657
11841POPC   H5S82209   8.436   7.697  11.787
11841POPC   C2682210   8.239   7.616  11.835
11841POPC   H6R82211   8.156   7.569  11.783
11841POPC   H6S82212   8.204   7.714  11.873
11841POPC   C2782213   8.288   7.531  11.953
11841POPC   H7R82214   8.352   7.606  12.001
11841POPC   H7S82215   8.354   7.451  11.918
11841POPC   C2882216   8.201   7.477  12.070
11841POPC   H8R82217   8.216   7.543  12.158
11841POPC   H8S82218   8.248   7.381  12.101
11841POPC   C2982219   8.054   7.457  12.051
11841POPC   H9182220   8.008   7.517  11.972
11841POPC  C21082221   7.975   7.381  12.130
11841POPC  H10182222   7.869   7.368  12.101
11841POPC  C21182223   8.020   7.302  12.250
11841POPC  H11R82224   8.125   7.326  12.280
11841POPC  H11S82225   8.020   7.194  12.222
11841POPC  C21282226   7.929   7.317  12.374
11841POPC  H12R82227   7.928   7.218  12.424
11841POPC  H12S82228   7.824   7.336  12.345
11841POPC  C21382229   7.973   7.419  12.482
11841POPC  H13R82230   7.906   7.400  12.569
11841POPC  H13S82231   7.954   7.523  12.449
11841POPC  C21482232   8.118   7.408  12.533
11841POPC  H14R82233   8.189   7.461  12.466
11841POPC  H14S82234   8.148   7.301  12.533
11841POPC  C21582235   8.131   7.456  12.678
11841POPC  H15R82236   8.049   7.406  12.736
11841POPC  H15S82237   8.113   7.564  12.686
11841POPC  C21682238   8.264   7.416  12.746
11841POPC  H16R82239   8.273   7.306  12.738
11841POPC  H16S82240   8.256   7.440  12.854
11841POPC  C21782241   8.390   7.485  12.691
11841POPC  H17R82242   8.377   7.595  12.699
11841POPC  H17S82243   8.402   7.465  12.583
11841POPC  C21882244   8.518   7.449  12.768
11841POPC  H18R82245   8.572   7.362  12.725
11841POPC  H18S82246   8.493   7.423  12.873
11841POPC  H18T82247   8.591   7.533  12.768
11841POPC   C3382248   8.287   7.218  11.739
11841POPC   H3X82249   8.304   7.326  11.750
11841POPC   H3Y82250   8.376   7.180  11.687
11841POPC   C3482251   8.274   7.187  11.890
11841POPC   H4X82252   8.173   7.218  11.926
11841POPC   H4Y82253   8.349   7.251  11.942
11841POPC   C3582254   8.309   7.048  11.939
11841POPC   H5X82255   8.229   6.978  11.915
11841POPC   H5Y82256   8.316   7.051  12.051
11841POPC   C3682257   8.441   6.995  11.884
11841POPC   H6X82258   8.523   7.047  11.939
11841POPC   H6Y82259   8.454   7.018  11.776
11841POPC   C3782260   8.448   6.843  11.897
11841POPC   H7X82261   8.381   6.798  11.821
11841POPC   H7Y82262   8.409   6.814  11.997
11841POPC   C3882263   8.590   6.787  11.879
11841POPC   H8X82264   8.622   6.800  11.773
11841POPC   H8Y82265   8.588   6.678  11.902
11841POPC   C3982266   8.695   6.855  11.969
11841POPC   H9X82267   8.713   6.958  11.930
11841POPC   H9Y82268   8.792   6.801  11.961
11841POPC  C31082269   8.656   6.866  12.117
11841POPC  H10X82270   8.659   6.765  12.164
11841POPC  H10Y82271   8.554   6.906  12.130
11841POPC  C31182272   8.753   6.961  12.188
11841POPC  H11X82273   8.738   7.065  12.150
11841POPC  H11Y82274   8.857   6.931  12.164
11841POPC  C31282275   8.738   6.958  12.340
11841POPC  H12X82276   8.818   7.020  12.386
11841POPC  H12Y82277   8.748   6.852  12.373
11841POPC  C31382278   8.607   7.011  12.396
11841POPC  H13X82279   8.622   7.004  12.507
11841POPC  H13Y82280   8.524   6.943  12.369
11841POPC  C31482281   8.574   7.156  12.357
11841POPC  H14X82282   8.487   7.157  12.288
11841POPC  H14Y82283   8.659   7.202  12.303
11841POPC  C31582284   8.543   7.242  12.480
11841POPC  H15X82285   8.502   7.339  12.445
11841POPC  H15Y82286   8.639   7.264  12.532
11841POPC  C31682287   8.444   7.179  12.579
11841POPC  H16X82288   8.450   7.068  12.583
11841POPC  H16Y82289   8.341   7.206  12.551
11841POPC  H16Z82290   8.460   7.210  12.684
11842POPC     N82291   6.607   8.755  10.905
11842POPC   C1282292   6.642   8.878  10.985
11842POPC  H12A82293   6.750   8.894  10.979
11842POPC  H12B82294   6.617   8.863  11.088
11842POPC   C1382295   6.460   8.727  10.914
11842POPC  H13A82296   6.406   8.819  10.889
11842POPC  H13B82297   6.428   8.654  10.842
11842POPC  H13C82298   6.432   8.696  11.014
11842POPC   C1482299   6.640   8.788  10.762
11842POPC  H14A82300   6.616   8.710  10.691
11842POPC  H14B82301   6.588   8.880  10.734
11842POPC  H14C82302   6.745   8.813  10.752
11842POPC   C1582303   6.691   8.640  10.952
11842POPC  H15A82304   6.658   8.602  11.048
11842POPC  H15B82305   6.795   8.669  10.967
11842POPC  H15C82306   6.693   8.560  10.880
11842POPC   C1182307   6.583   9.015  10.944
11842POPC  H11A82308   6.607   9.092  11.021
11842POPC  H11B82309   6.474   8.999  10.946
11842POPC     P82310   6.763   9.120  10.781
11842POPC   O1382311   6.783   9.257  10.832
11842POPC   O1482312   6.794   9.094  10.639
11842POPC   O1282313   6.620   9.061  10.813
11842POPC   O1182314   6.850   9.018  10.871
11842POPC    C182315   6.925   9.071  10.981
11842POPC    HA82316   6.890   9.171  11.016
11842POPC    HB82317   7.030   9.083  10.945
11842POPC    C282318   6.928   8.987  11.114
11842POPC    HS82319   6.957   8.882  11.089
11842POPC   O2182320   6.798   8.992  11.179
11842POPC   C2182321   6.778   8.907  11.281
11842POPC   O2282322   6.862   8.831  11.325
11842POPC   C2282323   6.632   8.909  11.330
11842POPC   H2R82324   6.570   8.955  11.250
11842POPC   H2S82325   6.626   8.975  11.419
11842POPC    C382326   7.043   9.053  11.197
11842POPC    HX82327   7.017   9.160  11.215
11842POPC    HY82328   7.130   9.051  11.128
11842POPC   O3182329   7.084   8.980  11.313
11842POPC   C3182330   7.051   9.035  11.430
11842POPC   O3282331   7.002   9.145  11.445
11842POPC   C3282332   7.086   8.934  11.537
11842POPC   H2X82333   7.196   8.916  11.537
11842POPC   H2Y82334   7.032   8.843  11.505
11842POPC   C2382335   6.578   8.767  11.364
11842POPC   H3R82336   6.614   8.694  11.288
11842POPC   H3S82337   6.467   8.768  11.358
11842POPC   C2482338   6.618   8.717  11.504
11842POPC   H4R82339   6.711   8.769  11.536
11842POPC   H4S82340   6.641   8.608  11.500
11842POPC   C2582341   6.509   8.737  11.611
11842POPC   H5R82342   6.426   8.664  11.598
11842POPC   H5S82343   6.464   8.838  11.596
11842POPC   C2682344   6.562   8.728  11.756
11842POPC   H6R82345   6.670   8.752  11.759
11842POPC   H6S82346   6.552   8.622  11.790
11842POPC   C2782347   6.489   8.822  11.854
11842POPC   H7R82348   6.469   8.768  11.949
11842POPC   H7S82349   6.389   8.848  11.811
11842POPC   C2882350   6.565   8.953  11.887
11842POPC   H8R82351   6.648   8.933  11.957
11842POPC   H8S82352   6.494   9.018  11.941
11842POPC   C2982353   6.616   9.022  11.762
11842POPC   H9182354   6.559   8.994  11.673
11842POPC  C21082355   6.714   9.111  11.744
11842POPC  H10182356   6.728   9.149  11.642
11842POPC  C21182357   6.810   9.175  11.841
11842POPC  H11R82358   6.899   9.210  11.783
11842POPC  H11S82359   6.849   9.107  11.919
11842POPC  C21282360   6.752   9.297  11.912
11842POPC  H12R82361   6.691   9.354  11.838
11842POPC  H12S82362   6.840   9.358  11.940
11842POPC  C21382363   6.669   9.268  12.038
11842POPC  H13R82364   6.586   9.200  12.012
11842POPC  H13S82365   6.624   9.364  12.073
11842POPC  C21482366   6.753   9.208  12.151
11842POPC  H14R82367   6.836   9.277  12.176
11842POPC  H14S82368   6.797   9.112  12.117
11842POPC  C21582369   6.675   9.177  12.280
11842POPC  H15R82370   6.585   9.116  12.256
11842POPC  H15S82371   6.641   9.272  12.327
11842POPC  C21682372   6.766   9.099  12.376
11842POPC  H16R82373   6.861   9.156  12.387
11842POPC  H16S82374   6.791   9.001  12.331
11842POPC  C21782375   6.708   9.077  12.516
11842POPC  H17R82376   6.623   9.005  12.508
11842POPC  H17S82377   6.668   9.175  12.553
11842POPC  C21882378   6.809   9.026  12.618
11842POPC  H18R82379   6.837   8.921  12.596
11842POPC  H18S82380   6.766   9.030  12.720
11842POPC  H18T82381   6.900   9.089  12.616
11842POPC   C3382382   7.036   8.966  11.679
11842POPC   H3X82383   6.930   8.999  11.669
11842POPC   H3Y82384   7.094   9.049  11.725
11842POPC   C3482385   7.034   8.842  11.769
11842POPC   H4X82386   7.132   8.790  11.769
11842POPC   H4Y82387   6.958   8.771  11.729
11842POPC   C3582388   6.992   8.875  11.911
11842POPC   H5X82389   6.893   8.924  11.897
11842POPC   H5Y82390   7.061   8.947  11.959
11842POPC   C3682391   6.963   8.755  12.002
11842POPC   H6X82392   7.037   8.752  12.084
11842POPC   H6Y82393   6.971   8.660  11.945
11842POPC   C3782394   6.821   8.770  12.059
11842POPC   H7X82395   6.749   8.745  11.978
11842POPC   H7Y82396   6.805   8.876  12.089
11842POPC   C3882397   6.794   8.684  12.181
11842POPC   H8X82398   6.855   8.723  12.266
11842POPC   H8Y82399   6.828   8.581  12.155
11842POPC   C3982400   6.646   8.675  12.222
11842POPC   H9X82401   6.630   8.569  12.254
11842POPC   H9Y82402   6.581   8.692  12.134
11842POPC  C31082403   6.602   8.764  12.340
11842POPC  H10X82404   6.558   8.859  12.300
11842POPC  H10Y82405   6.690   8.792  12.402
11842POPC  C31182406   6.500   8.689  12.427
11842POPC  H11X82407   6.551   8.600  12.471
11842POPC  H11Y82408   6.421   8.651  12.358
11842POPC  C31282409   6.428   8.769  12.537
11842POPC  H12X82410   6.319   8.747  12.530
11842POPC  H12Y82411   6.440   8.877  12.515
11842POPC  C31382412   6.469   8.740  12.684
11842POPC  H13X82413   6.432   8.641  12.716
11842POPC  H13Y82414   6.418   8.814  12.749
11842POPC  C31482415   6.620   8.748  12.711
11842POPC  H14X82416   6.646   8.855  12.701
11842POPC  H14Y82417   6.678   8.691  12.635
11842POPC  C31582418   6.662   8.701  12.851
11842POPC  H15X82419   6.663   8.590  12.854
11842POPC  H15Y82420   6.587   8.736  12.925
11842POPC  C31682421   6.800   8.754  12.892
11842POPC  H16X82422   6.802   8.865  12.885
11842POPC  H16Y82423   6.879   8.714  12.824
11842POPC  H16Z82424   6.826   8.725  12.996
11843POPC     N82425   5.925   0.268  11.042
11843POPC   C1282426   5.959   0.340  10.912
11843POPC  H12A82427   5.970   0.445  10.934
11843POPC  H12B82428   5.876   0.328  10.843
11843POPC   C1382429   6.054   0.244  11.113
11843POPC  H13A82430   6.109   0.336  11.125
11843POPC  H13B82431   6.040   0.197  11.209
11843POPC  H13C82432   6.116   0.178  11.051
11843POPC   C1482433   5.834   0.346  11.132
11843POPC  H14A82434   5.877   0.440  11.166
11843POPC  H14B82435   5.739   0.370  11.087
11843POPC  H14C82436   5.813   0.290  11.224
11843POPC   C1582437   5.854   0.140  11.007
11843POPC  H15A82438   5.774   0.158  10.937
11843POPC  H15B82439   5.813   0.094  11.096
11843POPC  H15C82440   5.925   0.073  10.957
11843POPC   C1182441   6.090   0.295  10.840
11843POPC  H11A82442   6.177   0.334  10.897
11843POPC  H11B82443   6.090   0.346  10.741
11843POPC     P82444   6.176   0.087  10.704
11843POPC   O1382445   6.136   0.158  10.582
11843POPC   O1482446   6.147  -0.058  10.698
11843POPC   O1282447   6.101   0.153  10.828
11843POPC   O1182448   6.328   0.123  10.728
11843POPC    C182449   6.437   0.032  10.731
11843POPC    HA82450   6.524   0.078  10.679
11843POPC    HB82451   6.415  -0.063  10.679
11843POPC    C282452   6.481  -0.003  10.876
11843POPC    HS82453   6.558  -0.080  10.873
11843POPC   O2182454   6.374  -0.050  10.956
11843POPC   C2182455   6.315  -0.162  10.920
11843POPC   O2282456   6.331  -0.228  10.820
11843POPC   C2282457   6.228  -0.210  11.035
11843POPC   H2R82458   6.296  -0.253  11.111
11843POPC   H2S82459   6.161  -0.289  10.996
11843POPC    C382460   6.545   0.120  10.944
11843POPC    HX82461   6.470   0.198  10.919
11843POPC    HY82462   6.642   0.138  10.893
11843POPC   O3182463   6.565   0.111  11.086
11843POPC   C3182464   6.487   0.184  11.165
11843POPC   O3282465   6.413   0.275  11.130
11843POPC   C3282466   6.495   0.126  11.305
11843POPC   H2X82467   6.428   0.186  11.372
11843POPC   H2Y82468   6.599   0.134  11.342
11843POPC   C2382469   6.147  -0.094  11.094
11843POPC   H3R82470   6.064  -0.068  11.025
11843POPC   H3S82471   6.210  -0.003  11.107
11843POPC   C2482472   6.094  -0.132  11.232
11843POPC   H4R82473   6.176  -0.154  11.303
11843POPC   H4S82474   6.035  -0.225  11.219
11843POPC   C2582475   6.002  -0.026  11.288
11843POPC   H5R82476   5.915  -0.074  11.335
11843POPC   H5S82477   5.957   0.032  11.207
11843POPC   C2682478   6.058   0.062  11.399
11843POPC   H6R82479   6.132   0.135  11.361
11843POPC   H6S82480   6.108  -0.002  11.475
11843POPC   C2782481   5.936   0.129  11.463
11843POPC   H7R82482   5.869   0.048  11.501
11843POPC   H7S82483   5.880   0.185  11.385
11843POPC   C2882484   5.972   0.222  11.578
11843POPC   H8R82485   6.034   0.305  11.538
11843POPC   H8S82486   6.037   0.166  11.649
11843POPC   C2982487   5.843   0.272  11.636
11843POPC   H9182488   5.775   0.320  11.564
11843POPC  C21082489   5.808   0.266  11.766
11843POPC  H10182490   5.711   0.308  11.797
11843POPC  C21182491   5.893   0.208  11.876
11843POPC  H11R82492   5.968   0.136  11.837
11843POPC  H11S82493   5.832   0.151  11.949
11843POPC  C21282494   5.969   0.324  11.943
11843POPC  H12R82495   6.017   0.389  11.867
11843POPC  H12S82496   6.049   0.281  12.005
11843POPC  C21382497   5.884   0.407  12.040
11843POPC  H13R82498   5.787   0.434  11.995
11843POPC  H13S82499   5.939   0.500  12.066
11843POPC  C21482500   5.864   0.325  12.167
11843POPC  H14R82501   5.962   0.282  12.200
11843POPC  H14S82502   5.798   0.239  12.142
11843POPC  C21582503   5.804   0.402  12.284
11843POPC  H15R82504   5.721   0.464  12.243
11843POPC  H15S82505   5.877   0.469  12.333
11843POPC  C21682506   5.744   0.302  12.383
11843POPC  H16R82507   5.707   0.215  12.325
11843POPC  H16S82508   5.656   0.350  12.431
11843POPC  C21782509   5.836   0.249  12.493
11843POPC  H17R82510   5.775   0.212  12.578
11843POPC  H17S82511   5.891   0.336  12.532
11843POPC  C21882512   5.930   0.137  12.449
11843POPC  H18R82513   6.006   0.173  12.376
11843POPC  H18S82514   5.875   0.053  12.403
11843POPC  H18T82515   5.985   0.097  12.538
11843POPC   C3382516   6.450  -0.021  11.300
11843POPC   H3X82517   6.496  -0.074  11.213
11843POPC   H3Y82518   6.340  -0.023  11.285
11843POPC   C3482519   6.487  -0.104  11.423
11843POPC   H4X82520   6.598  -0.107  11.434
11843POPC   H4Y82521   6.453  -0.208  11.405
11843POPC   C3582522   6.424  -0.053  11.553
11843POPC   H5X82523   6.357   0.034  11.532
11843POPC   H5Y82524   6.506  -0.017  11.619
11843POPC   C3682525   6.342  -0.160  11.625
11843POPC   H6X82526   6.384  -0.261  11.603
11843POPC   H6Y82527   6.237  -0.160  11.590
11843POPC   C3782528   6.346  -0.140  11.777
11843POPC   H7X82529   6.453  -0.133  11.808
11843POPC   H7Y82530   6.303  -0.229  11.829
11843POPC   C3882531   6.278  -0.012  11.823
11843POPC   H8X82532   6.168  -0.021  11.812
11843POPC   H8Y82533   6.312   0.073  11.759
11843POPC   C3982534   6.316   0.019  11.967
11843POPC   H9X82535   6.424  -0.005  11.982
11843POPC   H9Y82536   6.258  -0.048  12.035
11843POPC  C31082537   6.298   0.165  12.007
11843POPC  H10X82538   6.217   0.207  11.944
11843POPC  H10Y82539   6.390   0.222  11.982
11843POPC  C31182540   6.266   0.179  12.157
11843POPC  H11X82541   6.170   0.129  12.178
11843POPC  H11Y82542   6.253   0.287  12.184
11843POPC  C31282543   6.378   0.119  12.245
11843POPC  H12X82544   6.462   0.191  12.246
11843POPC  H12Y82545   6.416   0.025  12.200
11843POPC  C31382546   6.339   0.084  12.390
11843POPC  H13X82547   6.290   0.173  12.435
11843POPC  H13Y82548   6.432   0.065  12.447
11843POPC  C31482549   6.248  -0.039  12.403
11843POPC  H14X82550   6.192  -0.054  12.308
11843POPC  H14Y82551   6.171  -0.020  12.480
11843POPC  C31582552   6.317  -0.171  12.441
11843POPC  H15X82553   6.379  -0.207  12.356
11843POPC  H15Y82554   6.236  -0.244  12.458
11843POPC  C31682555   6.394  -0.183  12.573
11843POPC  H16X82556   6.441  -0.282  12.580
11843POPC  H16Y82557   6.325  -0.179  12.659
11843POPC  H16Z82558   6.472  -0.106  12.582
11844POPC     N82559   6.598   0.522  10.892
11844POPC   C1282560   6.743   0.558  10.874
11844POPC  H12A82561   6.802   0.505  10.950
11844POPC  H12B82562   6.755   0.663  10.894
11844POPC   C1382563   6.587   0.389  10.829
11844POPC  H13A82564   6.611   0.393  10.723
11844POPC  H13B82565   6.665   0.325  10.869
11844POPC  H13C82566   6.490   0.343  10.839
11844POPC   C1482567   6.566   0.518  11.038
11844POPC  H14A82568   6.482   0.452  11.060
11844POPC  H14B82569   6.650   0.481  11.097
11844POPC  H14C82570   6.543   0.616  11.077
11844POPC   C1582571   6.501   0.608  10.819
11844POPC  H15A82572   6.516   0.712  10.841
11844POPC  H15B82573   6.399   0.579  10.842
11844POPC  H15C82574   6.509   0.591  10.711
11844POPC   C1182575   6.812   0.518  10.741
11844POPC  H11A82576   6.901   0.583  10.724
11844POPC  H11B82577   6.742   0.539  10.656
11844POPC     P82578   6.984   0.337  10.815
11844POPC   O1382579   7.092   0.427  10.771
11844POPC   O1482580   7.009   0.192  10.796
11844POPC   O1282581   6.850   0.379  10.740
11844POPC   O1182582   6.950   0.372  10.966
11844POPC    C182583   6.872   0.290  11.052
11844POPC    HA82584   6.849   0.189  11.010
11844POPC    HB82585   6.774   0.339  11.070
11844POPC    C282586   6.937   0.271  11.194
11844POPC    HS82587   6.854   0.260  11.267
11844POPC   O2182588   7.025   0.377  11.237
11844POPC   C2182589   6.972   0.497  11.252
11844POPC   O2282590   6.855   0.528  11.233
11844POPC   C2282591   7.080   0.594  11.304
11844POPC   H2R82592   7.056   0.695  11.268
11844POPC   H2S82593   7.178   0.564  11.260
11844POPC    C382594   7.017   0.137  11.197
11844POPC    HX82595   7.089   0.144  11.112
11844POPC    HY82596   6.948   0.052  11.175
11844POPC   O3182597   7.092   0.117  11.319
11844POPC   C3182598   7.011   0.089  11.422
11844POPC   O3282599   6.891   0.073  11.413
11844POPC   C3282600   7.092   0.081  11.552
11844POPC   H2X82601   7.198   0.059  11.527
11844POPC   H2Y82602   7.051  -0.004  11.611
11844POPC   C2382603   7.092   0.597  11.460
11844POPC   H3R82604   7.103   0.492  11.496
11844POPC   H3S82605   6.998   0.637  11.504
11844POPC   C2482606   7.213   0.676  11.512
11844POPC   H4R82607   7.262   0.729  11.427
11844POPC   H4S82608   7.289   0.605  11.552
11844POPC   C2582609   7.182   0.782  11.621
11844POPC   H5R82610   7.113   0.858  11.581
11844POPC   H5S82611   7.278   0.834  11.645
11844POPC   C2682612   7.124   0.728  11.754
11844POPC   H6R82613   7.021   0.689  11.737
11844POPC   H6S82614   7.118   0.813  11.826
11844POPC   C2782615   7.212   0.618  11.812
11844POPC   H7R82616   7.317   0.656  11.803
11844POPC   H7S82617   7.202   0.530  11.745
11844POPC   C2882618   7.186   0.574  11.958
11844POPC   H8R82619   7.084   0.530  11.967
11844POPC   H8S82620   7.194   0.660  12.027
11844POPC   C2982621   7.295   0.472  11.982
11844POPC   H9182622   7.340   0.437  11.889
11844POPC  C21082623   7.337   0.411  12.094
11844POPC  H10182624   7.418   0.338  12.084
11844POPC  C21182625   7.285   0.426  12.234
11844POPC  H11R82626   7.209   0.507  12.244
11844POPC  H11S82627   7.368   0.447  12.306
11844POPC  C21282628   7.224   0.288  12.261
11844POPC  H12R82629   7.306   0.212  12.263
11844POPC  H12S82630   7.155   0.261  12.177
11844POPC  C21382631   7.141   0.269  12.388
11844POPC  H13R82632   7.058   0.342  12.392
11844POPC  H13S82633   7.206   0.285  12.477
11844POPC  C21482634   7.086   0.125  12.384
11844POPC  H14R82635   7.170   0.057  12.358
11844POPC  H14S82636   7.012   0.118  12.300
11844POPC  C21582637   7.020   0.069  12.511
11844POPC  H15R82638   6.996  -0.039  12.492
11844POPC  H15S82639   6.924   0.121  12.530
11844POPC  C21682640   7.110   0.077  12.635
11844POPC  H16R82641   7.135   0.184  12.655
11844POPC  H16S82642   7.206   0.024  12.615
11844POPC  C21782643   7.046   0.019  12.761
11844POPC  H17R82644   7.020  -0.088  12.745
11844POPC  H17S82645   6.950   0.072  12.780
11844POPC  C21882646   7.137   0.032  12.884
11844POPC  H18R82647   7.224  -0.036  12.875
11844POPC  H18S82648   7.081   0.008  12.977
11844POPC  H18T82649   7.175   0.136  12.892
11844POPC   C3382650   7.081   0.212  11.632
11844POPC   H3X82651   7.110   0.297  11.567
11844POPC   H3Y82652   7.153   0.209  11.717
11844POPC   C3482653   6.940   0.236  11.689
11844POPC   H4X82654   6.918   0.154  11.761
11844POPC   H4Y82655   6.864   0.229  11.608
11844POPC   C3582656   6.926   0.372  11.758
11844POPC   H5X82657   6.949   0.453  11.684
11844POPC   H5Y82658   7.001   0.378  11.839
11844POPC   C3682659   6.786   0.398  11.816
11844POPC   H6X82660   6.713   0.412  11.733
11844POPC   H6Y82661   6.789   0.493  11.873
11844POPC   C3782662   6.734   0.289  11.909
11844POPC   H7X82663   6.712   0.201  11.845
11844POPC   H7Y82664   6.637   0.319  11.953
11844POPC   C3882665   6.833   0.250  12.020
11844POPC   H8X82666   6.933   0.225  11.978
11844POPC   H8Y82667   6.796   0.158  12.071
11844POPC   C3982668   6.848   0.354  12.129
11844POPC   H9X82669   6.879   0.452  12.088
11844POPC   H9Y82670   6.928   0.319  12.198
11844POPC  C31082671   6.717   0.365  12.209
11844POPC  H10X82672   6.677   0.262  12.223
11844POPC  H10Y82673   6.641   0.423  12.152
11844POPC  C31182674   6.740   0.424  12.347
11844POPC  H11X82675   6.831   0.379  12.391
11844POPC  H11Y82676   6.656   0.392  12.410
11844POPC  C31282677   6.754   0.577  12.344
11844POPC  H12X82678   6.657   0.630  12.343
11844POPC  H12Y82679   6.798   0.594  12.244
11844POPC  C31382680   6.852   0.635  12.448
11844POPC  H13X82681   6.921   0.707  12.399
11844POPC  H13Y82682   6.915   0.552  12.485
11844POPC  C31482683   6.787   0.707  12.567
11844POPC  H14X82684   6.715   0.637  12.612
11844POPC  H14Y82685   6.730   0.795  12.532
11844POPC  C31582686   6.889   0.749  12.675
11844POPC  H15X82687   6.948   0.836  12.641
11844POPC  H15Y82688   6.961   0.667  12.692
11844POPC  C31682689   6.822   0.786  12.807
11844POPC  H16X82690   6.746   0.866  12.790
11844POPC  H16Y82691   6.895   0.822  12.882
11844POPC  H16Z82692   6.771   0.697  12.850
11845POPC     N82693   1.655   1.068  10.933
11845POPC   C1282694   1.543   1.001  10.855
11845POPC  H12A82695   1.547   0.894  10.871
11845POPC  H12B82696   1.559   1.019  10.749
11845POPC   C1382697   1.662   1.214  10.902
11845POPC  H13A82698   1.681   1.230  10.797
11845POPC  H13B82699   1.565   1.260  10.922
11845POPC  H13C82700   1.741   1.263  10.959
11845POPC   C1482701   1.634   1.053  11.079
11845POPC  H14A82702   1.701   1.114  11.138
11845POPC  H14B82703   1.532   1.081  11.107
11845POPC  H14C82704   1.653   0.952  11.113
11845POPC   C1582705   1.788   1.009  10.895
11845POPC  H15A82706   1.866   1.063  10.948
11845POPC  H15B82707   1.806   1.022  10.788
11845POPC  H15C82708   1.795   0.903  10.916
11845POPC   C1182709   1.398   1.046  10.882
11845POPC  H11A82710   1.375   1.040  10.991
11845POPC  H11B82711   1.330   0.974  10.830
11845POPC     P82712   1.255   1.222  10.752
11845POPC   O1382713   1.264   1.157  10.619
11845POPC   O1482714   1.243   1.369  10.747
11845POPC   O1282715   1.380   1.180  10.838
11845POPC   O1182716   1.132   1.157  10.824
11845POPC    C182717   1.053   1.230  10.917
11845POPC    HA82718   0.946   1.215  10.893
11845POPC    HB82719   1.070   1.341  10.914
11845POPC    C282720   1.077   1.180  11.062
11845POPC    HS82721   1.015   1.242  11.131
11845POPC   O2182722   1.216   1.183  11.101
11845POPC   C2182723   1.260   1.304  11.129
11845POPC   O2282724   1.195   1.407  11.121
11845POPC   C2282725   1.399   1.302  11.191
11845POPC   H2R82726   1.425   1.408  11.214
11845POPC   H2S82727   1.470   1.265  11.115
11845POPC    C382728   1.022   1.036  11.079
11845POPC    HX82729   1.084   0.966  11.019
11845POPC    HY82730   0.919   1.034  11.037
11845POPC   O3182731   1.015   1.004  11.220
11845POPC   C3182732   1.127   0.952  11.267
11845POPC   O3282733   1.217   0.906  11.199
11845POPC   C3282734   1.133   0.969  11.419
11845POPC   H2X82735   1.044   0.921  11.463
11845POPC   H2Y82736   1.131   1.078  11.442
11845POPC   C2382737   1.403   1.220  11.321
11845POPC   H3R82738   1.376   1.115  11.296
11845POPC   H3S82739   1.327   1.257  11.393
11845POPC   C2482740   1.540   1.217  11.391
11845POPC   H4R82741   1.620   1.202  11.315
11845POPC   H4S82742   1.544   1.128  11.458
11845POPC   C2582743   1.576   1.341  11.473
11845POPC   H5R82744   1.566   1.433  11.410
11845POPC   H5S82745   1.683   1.333  11.502
11845POPC   C2682746   1.497   1.360  11.604
11845POPC   H6R82747   1.389   1.374  11.582
11845POPC   H6S82748   1.532   1.455  11.650
11845POPC   C2782749   1.516   1.247  11.707
11845POPC   H7R82750   1.625   1.230  11.722
11845POPC   H7S82751   1.475   1.152  11.667
11845POPC   C2882752   1.452   1.278  11.844
11845POPC   H8R82753   1.495   1.373  11.880
11845POPC   H8S82754   1.484   1.199  11.916
11845POPC   C2982755   1.301   1.281  11.839
11845POPC   H9182756   1.254   1.193  11.793
11845POPC  C21082757   1.219   1.377  11.887
11845POPC  H10182758   1.110   1.362  11.878
11845POPC  C21182759   1.260   1.504  11.956
11845POPC  H11R82760   1.203   1.590  11.915
11845POPC  H11S82761   1.368   1.528  11.939
11845POPC  C21282762   1.237   1.495  12.108
11845POPC  H12R82763   1.130   1.475  12.130
11845POPC  H12S82764   1.261   1.596  12.149
11845POPC  C21382765   1.325   1.389  12.178
11845POPC  H13R82766   1.431   1.402  12.148
11845POPC  H13S82767   1.293   1.288  12.143
11845POPC  C21482768   1.314   1.393  12.331
11845POPC  H14R82769   1.362   1.305  12.378
11845POPC  H14S82770   1.206   1.390  12.357
11845POPC  C21582771   1.379   1.516  12.392
11845POPC  H15R82772   1.382   1.597  12.316
11845POPC  H15S82773   1.484   1.495  12.423
11845POPC  C21682774   1.300   1.570  12.510
11845POPC  H16R82775   1.193   1.574  12.482
11845POPC  H16S82776   1.335   1.674  12.528
11845POPC  C21782777   1.313   1.492  12.641
11845POPC  H17R82778   1.297   1.570  12.719
11845POPC  H17S82779   1.417   1.453  12.652
11845POPC  C21882780   1.211   1.382  12.669
11845POPC  H18R82781   1.228   1.339  12.771
11845POPC  H18S82782   1.218   1.300  12.595
11845POPC  H18T82783   1.107   1.422  12.667
11845POPC   C3382784   1.262   0.908  11.478
11845POPC   H3X82785   1.352   0.951  11.428
11845POPC   H3Y82786   1.265   0.798  11.459
11845POPC   C3482787   1.280   0.933  11.628
11845POPC   H4X82788   1.290   1.042  11.647
11845POPC   H4Y82789   1.376   0.885  11.659
11845POPC   C3582790   1.166   0.878  11.714
11845POPC   H5X82791   1.130   0.783  11.667
11845POPC   H5Y82792   1.080   0.949  11.717
11845POPC   C3682793   1.214   0.842  11.855
11845POPC   H6X82794   1.293   0.766  11.839
11845POPC   H6Y82795   1.132   0.797  11.914
11845POPC   C3782796   1.286   0.950  11.935
11845POPC   H7X82797   1.216   1.029  11.969
11845POPC   H7Y82798   1.365   0.997  11.873
11845POPC   C3882799   1.353   0.882  12.055
11845POPC   H8X82800   1.401   0.786  12.024
11845POPC   H8Y82801   1.273   0.854  12.127
11845POPC   C3982802   1.461   0.968  12.123
11845POPC   H9X82803   1.440   1.076  12.105
11845POPC   H9Y82804   1.560   0.945  12.077
11845POPC  C31082805   1.463   0.942  12.273
11845POPC  H10X82806   1.556   0.984  12.318
11845POPC  H10Y82807   1.461   0.833  12.293
11845POPC  C31182808   1.340   1.009  12.337
11845POPC  H11X82809   1.247   0.977  12.288
11845POPC  H11Y82810   1.350   1.118  12.317
11845POPC  C31282811   1.326   0.987  12.487
11845POPC  H12X82812   1.247   1.055  12.526
11845POPC  H12Y82813   1.422   1.022  12.528
11845POPC  C31382814   1.292   0.840  12.525
11845POPC  H13X82815   1.385   0.785  12.549
11845POPC  H13Y82816   1.251   0.793  12.433
11845POPC  C31482817   1.179   0.825  12.631
11845POPC  H14X82818   1.091   0.782  12.579
11845POPC  H14Y82819   1.149   0.926  12.666
11845POPC  C31582820   1.199   0.738  12.758
11845POPC  H15X82821   1.111   0.670  12.764
11845POPC  H15Y82822   1.193   0.803  12.848
11845POPC  C31682823   1.326   0.655  12.763
11845POPC  H16X82824   1.344   0.609  12.664
11845POPC  H16Y82825   1.322   0.578  12.842
11845POPC  H16Z82826   1.417   0.714  12.780
11846POPC     N82827   2.318   0.685  10.803
11846POPC   C1282828   2.195   0.777  10.810
11846POPC  H12A82829   2.166   0.805  10.710
11846POPC  H12B82830   2.224   0.867  10.864
11846POPC   C1382831   2.356   0.645  10.943
11846POPC  H13A82832   2.278   0.577  10.980
11846POPC  H13B82833   2.449   0.591  10.944
11846POPC  H13C82834   2.363   0.731  11.008
11846POPC   C1482835   2.293   0.557  10.729
11846POPC  H14A82836   2.211   0.502  10.778
11846POPC  H14B82837   2.261   0.572  10.627
11846POPC  H14C82838   2.378   0.491  10.732
11846POPC   C1582839   2.431   0.757  10.740
11846POPC  H15A82840   2.449   0.850  10.791
11846POPC  H15B82841   2.415   0.775  10.634
11846POPC  H15C82842   2.519   0.695  10.749
11846POPC   C1182843   2.067   0.725  10.879
11846POPC  H11A82844   1.995   0.809  10.888
11846POPC  H11B82845   2.090   0.694  10.984
11846POPC     P82846   1.970   0.484  10.866
11846POPC   O1382847   2.096   0.415  10.903
11846POPC   O1482848   1.875   0.417  10.773
11846POPC   O1282849   2.007   0.624  10.800
11846POPC   O1182850   1.903   0.531  10.999
11846POPC    C182851   1.766   0.562  11.021
11846POPC    HA82852   1.721   0.477  11.077
11846POPC    HB82853   1.709   0.571  10.926
11846POPC    C282854   1.743   0.693  11.105
11846POPC    HS82855   1.688   0.764  11.040
11846POPC   O2182856   1.870   0.752  11.145
11846POPC   C2182857   1.872   0.853  11.231
11846POPC   O2282858   1.774   0.909  11.278
11846POPC   C2282859   2.015   0.898  11.256
11846POPC   H2R82860   2.049   0.956  11.168
11846POPC   H2S82861   2.079   0.809  11.267
11846POPC    C382862   1.652   0.661  11.230
11846POPC    HX82863   1.569   0.596  11.194
11846POPC    HY82864   1.604   0.753  11.268
11846POPC   O3182865   1.727   0.589  11.329
11846POPC   C3182866   1.736   0.639  11.452
11846POPC   O3282867   1.677   0.736  11.496
11846POPC   C3282868   1.839   0.557  11.528
11846POPC   H2X82869   1.844   0.456  11.481
11846POPC   H2Y82870   1.802   0.545  11.632
11846POPC   C2382871   2.025   0.988  11.381
11846POPC   H3R82872   1.973   0.938  11.466
11846POPC   H3S82873   1.973   1.085  11.363
11846POPC   C2482874   2.170   1.015  11.423
11846POPC   H4R82875   2.217   1.084  11.349
11846POPC   H4S82876   2.226   0.919  11.421
11846POPC   C2582877   2.187   1.074  11.564
11846POPC   H5R82878   2.140   1.174  11.570
11846POPC   H5S82879   2.296   1.089  11.581
11846POPC   C2682880   2.131   0.985  11.676
11846POPC   H6R82881   2.150   0.879  11.650
11846POPC   H6S82882   2.021   0.997  11.683
11846POPC   C2782883   2.196   1.011  11.814
11846POPC   H7R82884   2.174   1.115  11.844
11846POPC   H7S82885   2.306   1.002  11.803
11846POPC   C2882886   2.150   0.914  11.925
11846POPC   H8R82887   2.201   0.943  12.020
11846POPC   H8S82888   2.192   0.814  11.900
11846POPC   C2982889   2.001   0.909  11.947
11846POPC   H9182890   1.955   1.003  11.980
11846POPC  C21082891   1.920   0.804  11.925
11846POPC  H10182892   1.812   0.815  11.944
11846POPC  C21182893   1.962   0.669  11.873
11846POPC  H11R82894   2.065   0.673  11.830
11846POPC  H11S82895   1.896   0.641  11.789
11846POPC  C21282896   1.959   0.557  11.978
11846POPC  H12R82897   1.994   0.592  12.077
11846POPC  H12S82898   2.030   0.478  11.945
11846POPC  C21382899   1.821   0.491  11.987
11846POPC  H13R82900   1.782   0.477  11.884
11846POPC  H13S82901   1.749   0.558  12.040
11846POPC  C21482902   1.827   0.353  12.054
11846POPC  H14R82903   1.931   0.316  12.055
11846POPC  H14S82904   1.767   0.282  11.993
11846POPC  C21582905   1.770   0.354  12.195
11846POPC  H15R82906   1.771   0.251  12.237
11846POPC  H15S82907   1.664   0.385  12.183
11846POPC  C21682908   1.837   0.452  12.293
11846POPC  H16R82909   1.823   0.556  12.257
11846POPC  H16S82910   1.946   0.433  12.297
11846POPC  C21782911   1.778   0.441  12.434
11846POPC  H17R82912   1.805   0.340  12.472
11846POPC  H17S82913   1.668   0.445  12.431
11846POPC  C21882914   1.827   0.550  12.528
11846POPC  H18R82915   1.784   0.537  12.630
11846POPC  H18S82916   1.798   0.651  12.491
11846POPC  H18T82917   1.938   0.546  12.536
11846POPC   C3382918   1.978   0.623  11.524
11846POPC   H3X82919   1.978   0.715  11.588
11846POPC   H3Y82920   2.003   0.655  11.420
11846POPC   C3482921   2.089   0.528  11.570
11846POPC   H4X82922   2.093   0.442  11.499
11846POPC   H4Y82923   2.062   0.489  11.671
11846POPC   C3582924   2.227   0.593  11.576
11846POPC   H5X82925   2.218   0.694  11.623
11846POPC   H5Y82926   2.265   0.608  11.473
11846POPC   C3682927   2.328   0.513  11.659
11846POPC   H6X82928   2.430   0.541  11.625
11846POPC   H6Y82929   2.315   0.404  11.641
11846POPC   C3782930   2.317   0.544  11.809
11846POPC   H7X82931   2.224   0.499  11.849
11846POPC   H7Y82932   2.311   0.654  11.823
11846POPC   C3882933   2.437   0.493  11.889
11846POPC   H8X82934   2.525   0.553  11.861
11846POPC   H8Y82935   2.457   0.389  11.858
11846POPC   C3982936   2.422   0.494  12.042
11846POPC   H9X82937   2.520   0.467  12.088
11846POPC   H9Y82938   2.351   0.414  12.069
11846POPC  C31082939   2.372   0.624  12.109
11846POPC  H10X82940   2.280   0.659  12.057
11846POPC  H10Y82941   2.449   0.703  12.101
11846POPC  C31182942   2.338   0.596  12.256
11846POPC  H11X82943   2.431   0.562  12.308
11846POPC  H11Y82944   2.265   0.512  12.258
11846POPC  C31282945   2.276   0.711  12.336
11846POPC  H12X82946   2.184   0.746  12.283
11846POPC  H12Y82947   2.347   0.796  12.342
11846POPC  C31382948   2.238   0.664  12.477
11846POPC  H13X82949   2.331   0.650  12.537
11846POPC  H13Y82950   2.189   0.564  12.469
11846POPC  C31482951   2.141   0.755  12.555
11846POPC  H14X82952   2.045   0.761  12.499
11846POPC  H14Y82953   2.183   0.858  12.561
11846POPC  C31582954   2.115   0.703  12.697
11846POPC  H15X82955   2.208   0.720  12.757
11846POPC  H15Y82956   2.100   0.593  12.693
11846POPC  C31682957   1.995   0.766  12.768
11846POPC  H16X82958   1.991   0.875  12.750
11846POPC  H16Y82959   2.000   0.748  12.878
11846POPC  H16Z82960   1.900   0.722  12.731
11847POPC     N82961   8.882   1.945  10.878
11847POPC   C1282962   8.814   1.864  10.768
11847POPC  H12A82963   8.795   1.763  10.804
11847POPC  H12B82964   8.882   1.855  10.685
11847POPC   C1382965   8.796   1.943  11.000
11847POPC  H13A82966   8.694   1.975  10.975
11847POPC  H13B82967   8.783   1.843  11.038
11847POPC  H13C82968   8.837   2.004  11.078
11847POPC   C1482969   9.015   1.884  10.914
11847POPC  H14A82970   9.083   1.881  10.829
11847POPC  H14B82971   9.065   1.939  10.993
11847POPC  H14C82972   9.005   1.781  10.950
11847POPC   C1582973   8.900   2.086  10.831
11847POPC  H15A82974   8.966   2.093  10.744
11847POPC  H15B82975   8.944   2.147  10.908
11847POPC  H15C82976   8.804   2.130  10.803
11847POPC   C1182977   8.678   1.917  10.718
11847POPC  H11A82978   8.652   1.863  10.624
11847POPC  H11B82979   8.681   2.026  10.694
11847POPC     P82980   8.429   1.915  10.794
11847POPC   O1382981   8.380   1.810  10.702
11847POPC   O1482982   8.412   2.056  10.752
11847POPC   O1282983   8.584   1.890  10.819
11847POPC   O1182984   8.375   1.888  10.940
11847POPC    C182985   8.421   1.767  11.006
11847POPC    HA82986   8.511   1.719  10.959
11847POPC    HB82987   8.338   1.693  11.003
11847POPC    C282988   8.456   1.795  11.154
11847POPC    HS82989   8.362   1.833  11.199
11847POPC   O2182990   8.566   1.888  11.167
11847POPC   C2182991   8.537   2.002  11.230
11847POPC   O2282992   8.425   2.043  11.256
11847POPC   C2282993   8.672   2.070  11.263
11847POPC   H2R82994   8.687   2.146  11.184
11847POPC   H2S82995   8.752   1.993  11.257
11847POPC    C382996   8.495   1.667  11.233
11847POPC    HX82997   8.591   1.627  11.192
11847POPC    HY82998   8.415   1.590  11.220
11847POPC   O3182999   8.507   1.705  11.372
11847POPC   C3183000   8.558   1.620  11.458
11847POPC   O3283001   8.602   1.509  11.435
11847POPC   C3283002   8.557   1.691  11.594
11847POPC   H2X83003   8.451   1.708  11.623
11847POPC   H2Y83004   8.606   1.789  11.581
11847POPC   C2383005   8.692   2.141  11.401
11847POPC   H3R83006   8.614   2.217  11.419
11847POPC   H3S83007   8.788   2.197  11.393
11847POPC   C2483008   8.707   2.047  11.522
11847POPC   H4R83009   8.763   1.956  11.490
11847POPC   H4S83010   8.606   2.015  11.557
11847POPC   C2583011   8.785   2.111  11.639
11847POPC   H5R83012   8.722   2.187  11.691
11847POPC   H5S83013   8.873   2.165  11.597
11847POPC   C2683014   8.839   2.008  11.741
11847POPC   H6R83015   8.889   1.928  11.682
11847POPC   H6S83016   8.754   1.962  11.795
11847POPC   C2783017   8.946   2.062  11.839
11847POPC   H7R83018   9.011   2.134  11.785
11847POPC   H7S83019   9.011   1.977  11.870
11847POPC   C2883020   8.896   2.129  11.969
11847POPC   H8R83021   8.839   2.221  11.941
11847POPC   H8S83022   8.985   2.166  12.024
11847POPC   C2983023   8.812   2.038  12.055
11847POPC   H9183024   8.717   2.006  12.009
11847POPC  C21083025   8.838   1.993  12.179
11847POPC  H10183026   8.764   1.930  12.229
11847POPC  C21183027   8.958   2.022  12.264
11847POPC  H11R83028   9.034   2.083  12.211
11847POPC  H11S83029   9.009   1.926  12.290
11847POPC  C21283030   8.918   2.095  12.394
11847POPC  H12R83031   8.879   2.197  12.370
11847POPC  H12S83032   9.010   2.108  12.454
11847POPC  C21383033   8.816   2.019  12.482
11847POPC  H13R83034   8.716   2.016  12.434
11847POPC  H13S83035   8.805   2.075  12.577
11847POPC  C21483036   8.864   1.875  12.509
11847POPC  H14R83037   8.975   1.881  12.517
11847POPC  H14S83038   8.841   1.811  12.422
11847POPC  C21583039   8.817   1.809  12.638
11847POPC  H15R83040   8.859   1.706  12.643
11847POPC  H15S83041   8.706   1.801  12.639
11847POPC  C21683042   8.864   1.888  12.761
11847POPC  H16R83043   8.800   1.979  12.768
11847POPC  H16S83044   8.969   1.922  12.745
11847POPC  C21783045   8.856   1.812  12.894
11847POPC  H17R83046   8.951   1.760  12.915
11847POPC  H17S83047   8.779   1.733  12.885
11847POPC  C21883048   8.818   1.906  13.009
11847POPC  H18R83049   8.908   1.953  13.053
11847POPC  H18S83050   8.764   1.851  13.089
11847POPC  H18T83051   8.752   1.987  12.974
11847POPC   C3383052   8.631   1.609  11.702
11847POPC   H3X83053   8.735   1.590  11.669
11847POPC   H3Y83054   8.580   1.510  11.711
11847POPC   C3483055   8.634   1.676  11.839
11847POPC   H4X83056   8.531   1.705  11.868
11847POPC   H4Y83057   8.695   1.769  11.837
11847POPC   C3583058   8.691   1.581  11.945
11847POPC   H5X83059   8.801   1.599  11.954
11847POPC   H5Y83060   8.679   1.476  11.907
11847POPC   C3683061   8.625   1.587  12.083
11847POPC   H6X83062   8.697   1.539  12.154
11847POPC   H6Y83063   8.532   1.526  12.082
11847POPC   C3783064   8.588   1.726  12.138
11847POPC   H7X83065   8.493   1.762  12.092
11847POPC   H7Y83066   8.668   1.795  12.106
11847POPC   C3883067   8.578   1.729  12.292
11847POPC   H8X83068   8.565   1.833  12.328
11847POPC   H8Y83069   8.679   1.697  12.328
11847POPC   C3983070   8.478   1.632  12.360
11847POPC   H9X83071   8.531   1.590  12.449
11847POPC   H9Y83072   8.458   1.548  12.291
11847POPC  C31083073   8.339   1.679  12.410
11847POPC  H10X83074   8.316   1.623  12.504
11847POPC  H10Y83075   8.259   1.649  12.341
11847POPC  C31183076   8.326   1.829  12.439
11847POPC  H11X83077   8.218   1.853  12.454
11847POPC  H11Y83078   8.361   1.889  12.352
11847POPC  C31283079   8.402   1.861  12.566
11847POPC  H12X83080   8.510   1.837  12.552
11847POPC  H12Y83081   8.362   1.795  12.645
11847POPC  C31383082   8.388   2.005  12.613
11847POPC  H13X83083   8.280   2.033  12.615
11847POPC  H13Y83084   8.441   2.074  12.544
11847POPC  C31483085   8.448   2.013  12.753
11847POPC  H14X83086   8.555   1.987  12.743
11847POPC  H14Y83087   8.400   1.938  12.820
11847POPC  C31583088   8.436   2.149  12.820
11847POPC  H15X83089   8.341   2.154  12.878
11847POPC  H15Y83090   8.432   2.228  12.742
11847POPC  C31683091   8.556   2.170  12.910
11847POPC  H16X83092   8.648   2.168  12.849
11847POPC  H16Y83093   8.565   2.088  12.984
11847POPC  H16Z83094   8.551   2.267  12.965
11848POPC     N83095   0.634   1.823  10.669
11848POPC   C1283096   0.680   1.724  10.775
11848POPC  H12A83097   0.659   1.623  10.743
11848POPC  H12B83098   0.624   1.743  10.867
11848POPC   C1383099   0.750   1.858  10.582
11848POPC  H13A83100   0.726   1.934  10.509
11848POPC  H13B83101   0.832   1.894  10.646
11848POPC  H13C83102   0.783   1.769  10.529
11848POPC   C1483103   0.526   1.760  10.588
11848POPC  H14A83104   0.495   1.826  10.508
11848POPC  H14B83105   0.562   1.670  10.538
11848POPC  H14C83106   0.440   1.732  10.647
11848POPC   C1583107   0.586   1.950  10.732
11848POPC  H15A83108   0.562   2.026  10.659
11848POPC  H15B83109   0.663   1.989  10.799
11848POPC  H15C83110   0.500   1.931  10.793
11848POPC   C1183111   0.828   1.730  10.816
11848POPC  H11A83112   0.898   1.718  10.730
11848POPC  H11B83113   0.849   1.642  10.880
11848POPC     P83114   0.791   1.879  11.029
11848POPC   O1383115   0.643   1.884  11.019
11848POPC   O1483116   0.858   1.991  11.096
11848POPC   O1283117   0.851   1.854  10.883
11848POPC   O1183118   0.832   1.741  11.096
11848POPC    C183119   0.975   1.714  11.097
11848POPC    HA83120   1.038   1.803  11.073
11848POPC    HB83121   1.002   1.639  11.019
11848POPC    C283122   1.026   1.662  11.234
11848POPC    HS83123   1.136   1.652  11.225
11848POPC   O2183124   0.980   1.538  11.281
11848POPC   C2183125   0.901   1.467  11.211
11848POPC   O2283126   0.900   1.445  11.091
11848POPC   C2283127   0.806   1.404  11.311
11848POPC   H2R83128   0.838   1.416  11.415
11848POPC   H2S83129   0.810   1.295  11.286
11848POPC    C383130   0.996   1.759  11.350
11848POPC    HX83131   1.082   1.822  11.349
11848POPC    HY83132   1.000   1.701  11.445
11848POPC   O3183133   0.876   1.841  11.340
11848POPC   C3183134   0.875   1.929  11.440
11848POPC   O3283135   0.955   1.927  11.532
11848POPC   C3283136   0.760   2.029  11.434
11848POPC   H2X83137   0.683   1.996  11.506
11848POPC   H2Y83138   0.717   2.029  11.332
11848POPC   C2383139   0.662   1.453  11.288
11848POPC   H3R83140   0.612   1.355  11.312
11848POPC   H3S83141   0.640   1.478  11.182
11848POPC   C2483142   0.581   1.537  11.388
11848POPC   H4R83143   0.586   1.473  11.476
11848POPC   H4S83144   0.475   1.540  11.354
11848POPC   C2583145   0.620   1.675  11.435
11848POPC   H5R83146   0.533   1.723  11.485
11848POPC   H5S83147   0.647   1.738  11.347
11848POPC   C2683148   0.737   1.671  11.534
11848POPC   H6R83149   0.750   1.773  11.575
11848POPC   H6S83150   0.823   1.635  11.475
11848POPC   C2783151   0.738   1.582  11.656
11848POPC   H7R83152   0.748   1.477  11.626
11848POPC   H7S83153   0.640   1.592  11.707
11848POPC   C2883154   0.857   1.616  11.747
11848POPC   H8R83155   0.857   1.725  11.771
11848POPC   H8S83156   0.953   1.595  11.693
11848POPC   C2983157   0.845   1.533  11.871
11848POPC   H9183158   0.917   1.450  11.882
11848POPC  C21083159   0.755   1.558  11.967
11848POPC  H10183160   0.752   1.493  12.056
11848POPC  C21183161   0.655   1.671  11.963
11848POPC  H11R83162   0.593   1.669  11.871
11848POPC  H11S83163   0.707   1.769  11.961
11848POPC  C21283164   0.551   1.670  12.075
11848POPC  H12R83165   0.495   1.575  12.063
11848POPC  H12S83166   0.480   1.755  12.059
11848POPC  C21383167   0.607   1.680  12.216
11848POPC  H13R83168   0.643   1.782  12.240
11848POPC  H13S83169   0.691   1.608  12.225
11848POPC  C21483170   0.507   1.632  12.319
11848POPC  H14R83171   0.451   1.552  12.267
11848POPC  H14S83172   0.432   1.709  12.340
11848POPC  C21583173   0.576   1.572  12.442
11848POPC  H15R83174   0.667   1.515  12.413
11848POPC  H15S83175   0.512   1.497  12.490
11848POPC  C21683176   0.608   1.669  12.553
11848POPC  H16R83177   0.707   1.711  12.531
11848POPC  H16S83178   0.612   1.613  12.650
11848POPC  C21783179   0.517   1.791  12.564
11848POPC  H17R83180   0.531   1.858  12.477
11848POPC  H17S83181   0.554   1.842  12.654
11848POPC  C21883182   0.370   1.764  12.590
11848POPC  H18R83183   0.311   1.740  12.499
11848POPC  H18S83184   0.323   1.852  12.640
11848POPC  H18T83185   0.368   1.676  12.656
11848POPC   C3383186   0.817   2.169  11.472
11848POPC   H3X83187   0.854   2.214  11.377
11848POPC   H3Y83188   0.904   2.163  11.541
11848POPC   C3483189   0.717   2.267  11.535
11848POPC   H4X83190   0.626   2.263  11.471
11848POPC   H4Y83191   0.758   2.370  11.525
11848POPC   C3583192   0.678   2.244  11.682
11848POPC   H5X83193   0.665   2.136  11.704
11848POPC   H5Y83194   0.580   2.295  11.698
11848POPC   C3683195   0.772   2.308  11.786
11848POPC   H6X83196   0.802   2.409  11.747
11848POPC   H6Y83197   0.866   2.249  11.796
11848POPC   C3783198   0.706   2.330  11.923
11848POPC   H7X83199   0.616   2.395  11.910
11848POPC   H7Y83200   0.778   2.386  11.986
11848POPC   C3883201   0.668   2.204  12.004
11848POPC   H8X83202   0.603   2.139  11.941
11848POPC   H8Y83203   0.610   2.235  12.094
11848POPC   C3983204   0.792   2.126  12.049
11848POPC   H9X83205   0.854   2.194  12.113
11848POPC   H9Y83206   0.850   2.104  11.957
11848POPC  C31083207   0.773   1.992  12.123
11848POPC  H10X83208   0.680   1.944  12.088
11848POPC  H10Y83209   0.762   2.010  12.232
11848POPC  C31183210   0.895   1.899  12.093
11848POPC  H11X83211   0.987   1.959  12.105
11848POPC  H11Y83212   0.890   1.873  11.985
11848POPC  C31283213   0.923   1.771  12.174
11848POPC  H12X83214   1.015   1.725  12.133
11848POPC  H12Y83215   0.844   1.698  12.154
11848POPC  C31383216   0.940   1.787  12.326
11848POPC  H13X83217   0.860   1.852  12.368
11848POPC  H13Y83218   1.039   1.833  12.340
11848POPC  C31483219   0.948   1.659  12.410
11848POPC  H14X83220   1.031   1.597  12.368
11848POPC  H14Y83221   0.856   1.599  12.395
11848POPC  C31583222   0.969   1.684  12.562
11848POPC  H15X83223   0.981   1.586  12.612
11848POPC  H15Y83224   0.878   1.730  12.606
11848POPC  C31683225   1.081   1.779  12.606
11848POPC  H16X83226   1.038   1.876  12.639
11848POPC  H16Y83227   1.154   1.799  12.526
11848POPC  H16Z83228   1.134   1.737  12.694
11849POPC     N83229   0.994   7.680  10.746
11849POPC   C1283230   1.020   7.777  10.860
11849POPC  H12A83231   1.032   7.877  10.818
11849POPC  H12B83232   1.113   7.753  10.910
11849POPC   C1383233   0.874   7.730  10.671
11849POPC  H13A83234   0.792   7.749  10.739
11849POPC  H13B83235   0.897   7.825  10.622
11849POPC  H13C83236   0.837   7.662  10.596
11849POPC   C1483237   1.110   7.674  10.651
11849POPC  H14A83238   1.203   7.643  10.699
11849POPC  H14B83239   1.088   7.607  10.570
11849POPC  H14C83240   1.132   7.770  10.605
11849POPC   C1583241   0.962   7.544  10.795
11849POPC  H15A83242   1.046   7.500  10.847
11849POPC  H15B83243   0.933   7.482  10.711
11849POPC  H15C83244   0.877   7.551  10.861
11849POPC   C1183245   0.909   7.793  10.967
11849POPC  H11A83246   0.951   7.846  11.055
11849POPC  H11B83247   0.875   7.695  11.004
11849POPC     P83248   0.804   8.021  10.903
11849POPC   O1383249   0.674   8.072  10.853
11849POPC   O1483250   0.924   8.058  10.825
11849POPC   O1283251   0.798   7.863  10.910
11849POPC   O1183252   0.828   8.061  11.055
11849POPC    C183253   0.719   8.093  11.143
11849POPC    HA83254   0.622   8.051  11.108
11849POPC    HB83255   0.708   8.204  11.146
11849POPC    C283256   0.740   8.044  11.291
11849POPC    HS83257   0.658   8.092  11.350
11849POPC   O2183258   0.871   8.080  11.343
11849POPC   C2183259   0.878   8.090  11.477
11849POPC   O2283260   0.782   8.094  11.552
11849POPC   C2283261   1.022   8.097  11.525
11849POPC   H2R83262   1.039   8.200  11.563
11849POPC   H2S83263   1.092   8.079  11.441
11849POPC    C383264   0.719   7.890  11.301
11849POPC    HX83265   0.797   7.843  11.235
11849POPC    HY83266   0.620   7.862  11.258
11849POPC   O3183267   0.737   7.841  11.436
11849POPC   C3183268   0.629   7.849  11.514
11849POPC   O3283269   0.515   7.863  11.474
11849POPC   C3283270   0.668   7.828  11.660
11849POPC   H2X83271   0.755   7.893  11.685
11849POPC   H2Y83272   0.701   7.722  11.670
11849POPC   C2383273   1.048   7.996  11.640
11849POPC   H3R83274   0.973   8.008  11.721
11849POPC   H3S83275   1.148   8.019  11.684
11849POPC   C2483276   1.051   7.851  11.590
11849POPC   H4R83277   1.111   7.848  11.497
11849POPC   H4S83278   0.948   7.817  11.564
11849POPC   C2583279   1.113   7.752  11.690
11849POPC   H5R83280   1.214   7.787  11.717
11849POPC   H5S83281   1.124   7.654  11.639
11849POPC   C2683282   1.033   7.732  11.819
11849POPC   H6R83283   0.929   7.701  11.792
11849POPC   H6S83284   1.027   7.827  11.876
11849POPC   C2783285   1.099   7.624  11.906
11849POPC   H7R83286   1.197   7.663  11.944
11849POPC   H7S83287   1.122   7.535  11.843
11849POPC   C2883288   1.015   7.579  12.026
11849POPC   H8R83289   1.003   7.666  12.094
11849POPC   H8S83290   1.073   7.503  12.081
11849POPC   C2983291   0.883   7.520  11.983
11849POPC   H9183292   0.889   7.445  11.902
11849POPC  C21083293   0.762   7.550  12.034
11849POPC  H10183294   0.674   7.496  11.997
11849POPC  C21183295   0.732   7.647  12.145
11849POPC  H11R83296   0.638   7.702  12.122
11849POPC  H11S83297   0.811   7.724  12.157
11849POPC  C21283298   0.714   7.573  12.278
11849POPC  H12R83299   0.627   7.505  12.269
11849POPC  H12S83300   0.688   7.648  12.356
11849POPC  C21383301   0.838   7.494  12.323
11849POPC  H13R83302   0.918   7.500  12.247
11849POPC  H13S83303   0.815   7.386  12.334
11849POPC  C21483304   0.899   7.549  12.451
11849POPC  H14R83305   0.910   7.658  12.436
11849POPC  H14S83306   1.000   7.503  12.464
11849POPC  C21583307   0.816   7.519  12.574
11849POPC  H15R83308   0.813   7.409  12.575
11849POPC  H15S83309   0.711   7.551  12.561
11849POPC  C21683310   0.878   7.559  12.707
11849POPC  H16R83311   0.987   7.575  12.696
11849POPC  H16S83312   0.870   7.470  12.775
11849POPC  C21783313   0.815   7.677  12.782
11849POPC  H17R83314   0.884   7.764  12.781
11849POPC  H17S83315   0.807   7.639  12.886
11849POPC  C21883316   0.675   7.724  12.741
11849POPC  H18R83317   0.603   7.639  12.748
11849POPC  H18S83318   0.675   7.762  12.637
11849POPC  H18T83319   0.640   7.805  12.808
11849POPC   C3383320   0.553   7.853  11.761
11849POPC   H3X83321   0.580   7.798  11.854
11849POPC   H3Y83322   0.456   7.814  11.722
11849POPC   C3483323   0.532   7.999  11.803
11849POPC   H4X83324   0.509   8.060  11.713
11849POPC   H4Y83325   0.627   8.035  11.847
11849POPC   C3583326   0.419   8.015  11.906
11849POPC   H5X83327   0.325   7.974  11.863
11849POPC   H5Y83328   0.401   8.124  11.923
11849POPC   C3683329   0.447   7.946  12.041
11849POPC   H6X83330   0.453   7.836  12.024
11849POPC   H6Y83331   0.362   7.964  12.110
11849POPC   C3783332   0.575   7.992  12.113
11849POPC   H7X83333   0.664   7.960  12.055
11849POPC   H7Y83334   0.580   7.941  12.212
11849POPC   C3883335   0.577   8.144  12.131
11849POPC   H8X83336   0.486   8.176  12.186
11849POPC   H8Y83337   0.575   8.191  12.031
11849POPC   C3983338   0.700   8.195  12.205
11849POPC   H9X83339   0.715   8.303  12.179
11849POPC   H9Y83340   0.790   8.139  12.171
11849POPC  C31083341   0.689   8.190  12.357
11849POPC  H10X83342   0.643   8.094  12.390
11849POPC  H10Y83343   0.620   8.271  12.388
11849POPC  C31183344   0.827   8.208  12.419
11849POPC  H11X83345   0.822   8.264  12.514
11849POPC  H11Y83346   0.892   8.267  12.352
11849POPC  C31283347   0.890   8.073  12.450
11849POPC  H12X83348   0.918   8.023  12.354
11849POPC  H12Y83349   0.817   8.007  12.502
11849POPC  C31383350   1.012   8.089  12.540
11849POPC  H13X83351   0.979   8.097  12.646
11849POPC  H13Y83352   1.061   8.186  12.514
11849POPC  C31483353   1.115   7.978  12.524
11849POPC  H14X83354   1.201   7.997  12.590
11849POPC  H14Y83355   1.150   7.977  12.418
11849POPC  C31583356   1.067   7.838  12.560
11849POPC  H15X83357   0.966   7.825  12.516
11849POPC  H15Y83358   1.056   7.831  12.671
11849POPC  C31683359   1.165   7.732  12.510
11849POPC  H16X83360   1.141   7.633  12.553
11849POPC  H16Y83361   1.269   7.758  12.539
11849POPC  H16Z83362   1.159   7.724  12.399
11850POPC     N83363   9.166   6.755  10.668
11850POPC   C1283364   9.223   6.614  10.676
11850POPC  H12A83365   9.323   6.617  10.633
11850POPC  H12B83366   9.161   6.547  10.619
11850POPC   C1383367   9.255   6.842  10.751
11850POPC  H13A83368   9.356   6.840  10.710
11850POPC  H13B83369   9.221   6.942  10.762
11850POPC  H13C83370   9.266   6.798  10.850
11850POPC   C1483371   9.170   6.808  10.527
11850POPC  H14A83372   9.095   6.761  10.466
11850POPC  H14B83373   9.156   6.915  10.527
11850POPC  H14C83374   9.267   6.789  10.481
11850POPC   C1583375   9.028   6.753  10.724
11850POPC  H15A83376   9.033   6.700  10.820
11850POPC  H15B83377   8.962   6.695  10.662
11850POPC  H15C83378   8.991   6.852  10.741
11850POPC   C1183379   9.239   6.554  10.819
11850POPC  H11A83380   9.303   6.623  10.880
11850POPC  H11B83381   9.296   6.459  10.809
11850POPC     P83382   9.120   6.480  11.035
11850POPC   O1383383   9.255   6.507  11.090
11850POPC   O1483384   9.075   6.339  11.031
11850POPC   O1283385   9.114   6.531  10.883
11850POPC   O1183386   9.010   6.569  11.107
11850POPC    C183387   8.984   6.705  11.075
11850POPC    HA83388   8.876   6.717  11.049
11850POPC    HB83389   9.044   6.739  10.988
11850POPC    C283390   9.016   6.807  11.189
11850POPC    HS83391   9.009   6.910  11.146
11850POPC   O2183392   9.148   6.786  11.241
11850POPC   C2183393   9.248   6.824  11.166
11850POPC   O2283394   9.241   6.886  11.060
11850POPC   C2283395   9.379   6.791  11.237
11850POPC   H2R83396   9.458   6.779  11.160
11850POPC   H2S83397   9.366   6.693  11.287
11850POPC    C383398   8.914   6.804  11.307
11850POPC    HX83399   8.815   6.831  11.265
11850POPC    HY83400   8.940   6.886  11.379
11850POPC   O3183401   8.901   6.676  11.372
11850POPC   C3183402   8.991   6.654  11.469
11850POPC   O3283403   9.073   6.734  11.509
11850POPC   C3283404   8.969   6.517  11.532
11850POPC   H2X83405   9.027   6.442  11.473
11850POPC   H2Y83406   8.861   6.493  11.523
11850POPC   C2383407   9.420   6.898  11.342
11850POPC   H3R83408   9.433   6.999  11.297
11850POPC   H3S83409   9.518   6.866  11.383
11850POPC   C2483410   9.324   6.904  11.462
11850POPC   H4R83411   9.333   6.804  11.507
11850POPC   H4S83412   9.219   6.916  11.427
11850POPC   C2583413   9.346   7.016  11.566
11850POPC   H5R83414   9.297   7.109  11.529
11850POPC   H5S83415   9.454   7.041  11.573
11850POPC   C2683416   9.291   6.987  11.708
11850POPC   H6R83417   9.183   7.012  11.709
11850POPC   H6S83418   9.342   7.055  11.780
11850POPC   C2783419   9.306   6.841  11.758
11850POPC   H7R83420   9.413   6.812  11.762
11850POPC   H7S83421   9.256   6.773  11.685
11850POPC   C2883422   9.235   6.810  11.891
11850POPC   H8R83423   9.230   6.699  11.901
11850POPC   H8S83424   9.130   6.846  11.884
11850POPC   C2983425   9.303   6.869  12.012
11850POPC   H9183426   9.279   6.975  12.028
11850POPC  C21083427   9.386   6.809  12.099
11850POPC  H10183428   9.422   6.870  12.183
11850POPC  C21183429   9.438   6.667  12.104
11850POPC  H11R83430   9.508   6.642  12.023
11850POPC  H11S83431   9.358   6.590  12.093
11850POPC  C21283432   9.508   6.648  12.240
11850POPC  H12R83433   9.428   6.647  12.317
11850POPC  H12S83434   9.575   6.733  12.264
11850POPC  C21383435   9.596   6.522  12.249
11850POPC  H13R83436   9.702   6.551  12.265
11850POPC  H13S83437   9.590   6.466  12.154
11850POPC  C21483438   9.551   6.429  12.363
11850POPC  H14R83439   9.617   6.340  12.367
11850POPC  H14S83440   9.451   6.393  12.332
11850POPC  C21583441   9.541   6.494  12.502
11850POPC  H15R83442   9.520   6.603  12.496
11850POPC  H15S83443   9.639   6.485  12.554
11850POPC  C21683444   9.429   6.431  12.586
11850POPC  H16R83445   9.434   6.468  12.690
11850POPC  H16S83446   9.443   6.321  12.590
11850POPC  C21783447   9.288   6.460  12.535
11850POPC  H17R83448   9.277   6.426  12.430
11850POPC  H17S83449   9.275   6.570  12.536
11850POPC  C21883450   9.179   6.394  12.619
11850POPC  H18R83451   9.079   6.409  12.572
11850POPC  H18S83452   9.178   6.439  12.721
11850POPC  H18T83453   9.197   6.285  12.628
11850POPC   C3383454   9.012   6.515  11.680
11850POPC   H3X83455   8.993   6.615  11.728
11850POPC   H3Y83456   9.122   6.498  11.685
11850POPC   C3483457   8.937   6.410  11.763
11850POPC   H4X83458   8.941   6.314  11.706
11850POPC   H4Y83459   8.830   6.439  11.773
11850POPC   C3583460   8.998   6.385  11.901
11850POPC   H5X83461   9.105   6.363  11.884
11850POPC   H5Y83462   8.952   6.295  11.948
11850POPC   C3683463   8.991   6.501  12.002
11850POPC   H6X83464   8.886   6.524  12.030
11850POPC   H6Y83465   9.034   6.592  11.953
11850POPC   C3783466   9.074   6.469  12.127
11850POPC   H7X83467   9.164   6.414  12.091
11850POPC   H7Y83468   9.021   6.401  12.197
11850POPC   C3883469   9.132   6.591  12.199
11850POPC   H8X83470   9.166   6.662  12.122
11850POPC   H8Y83471   9.221   6.557  12.257
11850POPC   C3983472   9.043   6.669  12.295
11850POPC   H9X83473   8.996   6.599  12.367
11850POPC   H9Y83474   8.962   6.720  12.238
11850POPC  C31083475   9.128   6.774  12.371
11850POPC  H10X83476   9.188   6.831  12.298
11850POPC  H10Y83477   9.199   6.721  12.437
11850POPC  C31183478   9.048   6.873  12.457
11850POPC  H11X83479   8.998   6.941  12.387
11850POPC  H11Y83480   9.119   6.935  12.516
11850POPC  C31283481   8.948   6.806  12.552
11850POPC  H12X83482   8.874   6.748  12.492
11850POPC  H12Y83483   8.891   6.884  12.607
11850POPC  C31383484   9.010   6.706  12.651
11850POPC  H13X83485   9.055   6.625  12.591
11850POPC  H13Y83486   8.930   6.661  12.713
11850POPC  C31483487   9.118   6.766  12.742
11850POPC  H14X83488   9.193   6.822  12.682
11850POPC  H14Y83489   9.173   6.682  12.792
11850POPC  C31583490   9.058   6.856  12.850
11850POPC  H15X83491   8.981   6.798  12.906
11850POPC  H15Y83492   9.007   6.942  12.801
11850POPC  C31683493   9.161   6.909  12.950
11850POPC  H16X83494   9.149   6.859  13.048
11850POPC  H16Y83495   9.148   7.018  12.964
11850POPC  H16Z83496   9.264   6.890  12.913
11851POPC     N83497   2.662   9.413  11.011
11851POPC   C1283498   2.726   9.473  10.887
11851POPC  H12A83499   2.835   9.466  10.897
11851POPC  H12B83500   2.702   9.578  10.881
11851POPC   C1383501   2.722   9.276  11.025
11851POPC  H13A83502   2.826   9.281  11.056
11851POPC  H13B83503   2.668   9.214  11.095
11851POPC  H13C83504   2.721   9.227  10.927
11851POPC   C1483505   2.696   9.486  11.136
11851POPC  H14A83506   2.660   9.430  11.222
11851POPC  H14B83507   2.804   9.492  11.150
11851POPC  H14C83508   2.656   9.586  11.139
11851POPC   C1583509   2.513   9.400  10.995
11851POPC  H15A83510   2.461   9.494  10.985
11851POPC  H15B83511   2.468   9.350  11.080
11851POPC  H15C83512   2.490   9.340  10.907
11851POPC   C1183513   2.691   9.406  10.750
11851POPC  H11A83514   2.726   9.475  10.670
11851POPC  H11B83515   2.581   9.401  10.739
11851POPC     P83516   2.898   9.259  10.688
11851POPC   O1383517   2.939   9.387  10.627
11851POPC   O1483518   2.912   9.138  10.606
11851POPC   O1283519   2.745   9.274  10.735
11851POPC   O1183520   2.966   9.244  10.829
11851POPC    C183521   3.089   9.171  10.833
11851POPC    HA83522   3.170   9.230  10.785
11851POPC    HB83523   3.085   9.075  10.777
11851POPC    C283524   3.127   9.146  10.981
11851POPC    HS83525   3.225   9.095  10.983
11851POPC   O2183526   3.032   9.068  11.056
11851POPC   C2183527   2.973   8.959  11.008
11851POPC   O2283528   2.974   8.914  10.896
11851POPC   C2283529   2.900   8.893  11.123
11851POPC   H2R83530   2.973   8.876  11.205
11851POPC   H2S83531   2.862   8.795  11.088
11851POPC    C383532   3.148   9.285  11.050
11851POPC    HX83533   3.069   9.354  11.011
11851POPC    HY83534   3.245   9.324  11.014
11851POPC   O3183535   3.151   9.278  11.195
11851POPC   C3183536   3.053   9.339  11.262
11851POPC   O3283537   2.974   9.418  11.212
11851POPC   C3283538   3.052   9.288  11.407
11851POPC   H2X83539   3.157   9.292  11.444
11851POPC   H2Y83540   3.022   9.181  11.402
11851POPC   C2383541   2.784   8.982  11.172
11851POPC   H3R83542   2.706   8.989  11.093
11851POPC   H3S83543   2.824   9.084  11.194
11851POPC   C2483544   2.722   8.926  11.299
11851POPC   H4R83545   2.787   8.842  11.334
11851POPC   H4S83546   2.620   8.885  11.278
11851POPC   C2583547   2.717   9.025  11.413
11851POPC   H5R83548   2.639   9.103  11.393
11851POPC   H5S83549   2.816   9.076  11.418
11851POPC   C2683550   2.691   8.960  11.549
11851POPC   H6R83551   2.769   8.883  11.567
11851POPC   H6S83552   2.594   8.907  11.550
11851POPC   C2783553   2.696   9.069  11.656
11851POPC   H7R83554   2.593   9.102  11.680
11851POPC   H7S83555   2.750   9.153  11.608
11851POPC   C2883556   2.774   9.040  11.784
11851POPC   H8R83557   2.719   8.967  11.847
11851POPC   H8S83558   2.772   9.135  11.843
11851POPC   C2983559   2.916   8.995  11.761
11851POPC   H9183560   2.942   8.960  11.659
11851POPC  C21083561   3.011   8.997  11.855
11851POPC  H10183562   3.114   8.965  11.830
11851POPC  C21183563   2.987   9.044  11.996
11851POPC  H11R83564   3.029   8.973  12.069
11851POPC  H11S83565   2.879   9.050  12.021
11851POPC  C21283566   3.048   9.183  12.018
11851POPC  H12R83567   3.156   9.187  11.992
11851POPC  H12S83568   3.039   9.197  12.128
11851POPC  C21383569   2.970   9.295  11.946
11851POPC  H13R83570   2.863   9.283  11.974
11851POPC  H13S83571   2.978   9.278  11.837
11851POPC  C21483572   3.012   9.440  11.975
11851POPC  H14R83573   2.949   9.505  11.910
11851POPC  H14S83574   3.118   9.456  11.945
11851POPC  C21583575   2.990   9.489  12.120
11851POPC  H15R83576   2.886   9.469  12.153
11851POPC  H15S83577   3.004   9.600  12.119
11851POPC  C21683578   3.089   9.430  12.222
11851POPC  H16R83579   3.185   9.411  12.169
11851POPC  H16S83580   3.052   9.334  12.262
11851POPC  C21783581   3.118   9.519  12.343
11851POPC  H17R83582   3.150   9.619  12.307
11851POPC  H17S83583   3.203   9.467  12.394
11851POPC  C21883584   3.011   9.532  12.450
11851POPC  H18R83585   3.002   9.435  12.502
11851POPC  H18S83586   2.913   9.562  12.407
11851POPC  H18T83587   3.043   9.606  12.527
11851POPC   C3383588   2.960   9.363  11.507
11851POPC   H3X83589   3.006   9.461  11.534
11851POPC   H3Y83590   2.958   9.302  11.600
11851POPC   C3483591   2.815   9.386  11.461
11851POPC   H4X83592   2.779   9.295  11.409
11851POPC   H4Y83593   2.813   9.471  11.389
11851POPC   C3583594   2.718   9.419  11.575
11851POPC   H5X83595   2.722   9.339  11.651
11851POPC   H5Y83596   2.614   9.423  11.535
11851POPC   C3683597   2.748   9.549  11.649
11851POPC   H6X83598   2.743   9.632  11.576
11851POPC   H6Y83599   2.851   9.545  11.691
11851POPC   C3783600   2.649   9.575  11.764
11851POPC   H7X83601   2.549   9.598  11.722
11851POPC   H7Y83602   2.684   9.664  11.821
11851POPC   C3883603   2.635   9.457  11.862
11851POPC   H8X83604   2.736   9.417  11.884
11851POPC   H8Y83605   2.577   9.376  11.812
11851POPC   C3983606   2.565   9.493  11.994
11851POPC   H9X83607   2.474   9.551  11.967
11851POPC   H9Y83608   2.629   9.558  12.056
11851POPC  C31083609   2.521   9.369  12.073
11851POPC  H10X83610   2.494   9.288  12.001
11851POPC  H10Y83611   2.429   9.394  12.132
11851POPC  C31183612   2.624   9.316  12.173
11851POPC  H11X83613   2.630   9.385  12.259
11851POPC  H11Y83614   2.724   9.315  12.125
11851POPC  C31283615   2.592   9.172  12.219
11851POPC  H12X83616   2.590   9.107  12.128
11851POPC  H12Y83617   2.491   9.170  12.265
11851POPC  C31383618   2.695   9.114  12.316
11851POPC  H13X83619   2.795   9.121  12.266
11851POPC  H13Y83620   2.675   9.007  12.335
11851POPC  C31483621   2.702   9.189  12.450
11851POPC  H14X83622   2.673   9.123  12.534
11851POPC  H14Y83623   2.630   9.274  12.449
11851POPC  C31583624   2.841   9.247  12.474
11851POPC  H15X83625   2.835   9.321  12.557
11851POPC  H15Y83626   2.871   9.302  12.382
11851POPC  C31683627   2.950   9.143  12.507
11851POPC  H16X83628   3.047   9.194  12.525
11851POPC  H16Y83629   2.963   9.072  12.424
11851POPC  H16Z83630   2.924   9.086  12.599
11852POPC     N83631   7.670   0.681  10.629
11852POPC   C1283632   7.625   0.594  10.747
11852POPC  H12A83633   7.697   0.515  10.764
11852POPC  H12B83634   7.532   0.546  10.720
11852POPC   C1383635   7.591   0.810  10.636
11852POPC  H13A83636   7.621   0.862  10.727
11852POPC  H13B83637   7.609   0.875  10.552
11852POPC  H13C83638   7.485   0.792  10.646
11852POPC   C1483639   7.814   0.721  10.637
11852POPC  H14A83640   7.879   0.636  10.637
11852POPC  H14B83641   7.841   0.790  10.557
11852POPC  H14C83642   7.828   0.773  10.733
11852POPC   C1583643   7.637   0.616  10.498
11852POPC  H15A83644   7.529   0.598  10.492
11852POPC  H15B83645   7.686   0.521  10.485
11852POPC  H15C83646   7.664   0.681  10.416
11852POPC   C1183647   7.604   0.662  10.884
11852POPC  H11A83648   7.567   0.585  10.956
11852POPC  H11B83649   7.524   0.739  10.879
11852POPC     P83650   7.735   0.773  11.079
11852POPC   O1383651   7.600   0.772  11.141
11852POPC   O1483652   7.808   0.900  11.077
11852POPC   O1283653   7.727   0.720  10.929
11852POPC   O1183654   7.824   0.661  11.146
11852POPC    C183655   7.953   0.630  11.094
11852POPC    HA83656   7.995   0.710  11.030
11852POPC    HB83657   7.945   0.538  11.032
11852POPC    C283658   8.054   0.604  11.210
11852POPC    HS83659   8.141   0.549  11.168
11852POPC   O2183660   7.999   0.527  11.318
11852POPC   C2183661   7.924   0.425  11.288
11852POPC   O2283662   7.937   0.349  11.192
11852POPC   C2283663   7.814   0.412  11.393
11852POPC   H2R83664   7.843   0.471  11.482
11852POPC   H2S83665   7.807   0.306  11.425
11852POPC    C383666   8.110   0.737  11.269
11852POPC    HX83667   8.153   0.794  11.184
11852POPC    HY83668   8.192   0.714  11.339
11852POPC   O3183669   8.010   0.822  11.330
11852POPC   C3183670   7.978   0.795  11.455
11852POPC   O3283671   8.025   0.707  11.525
11852POPC   C3283672   7.881   0.900  11.509
11852POPC   H2X83673   7.912   0.999  11.472
11852POPC   H2Y83674   7.892   0.898  11.620
11852POPC   C2383675   7.681   0.461  11.333
11852POPC   H3R83676   7.667   0.417  11.232
11852POPC   H3S83677   7.685   0.571  11.321
11852POPC   C2483678   7.558   0.425  11.417
11852POPC   H4R83679   7.555   0.314  11.426
11852POPC   H4S83680   7.466   0.457  11.364
11852POPC   C2583681   7.561   0.490  11.556
11852POPC   H5R83682   7.514   0.591  11.553
11852POPC   H5S83683   7.667   0.507  11.585
11852POPC   C2683684   7.498   0.402  11.664
11852POPC   H6R83685   7.496   0.296  11.629
11852POPC   H6S83686   7.393   0.432  11.680
11852POPC   C2783687   7.581   0.404  11.793
11852POPC   H7R83688   7.681   0.363  11.767
11852POPC   H7S83689   7.534   0.335  11.866
11852POPC   C2883690   7.601   0.544  11.854
11852POPC   H8R83691   7.504   0.593  11.876
11852POPC   H8S83692   7.653   0.611  11.783
11852POPC   C2983693   7.678   0.526  11.981
11852POPC   H9183694   7.619   0.483  12.064
11852POPC  C21083695   7.808   0.550  12.001
11852POPC  H10183696   7.850   0.530  12.101
11852POPC  C21183697   7.908   0.600  11.899
11852POPC  H11R83698   7.863   0.612  11.799
11852POPC  H11S83699   7.991   0.527  11.888
11852POPC  C21283700   7.971   0.734  11.940
11852POPC  H12R83701   7.889   0.807  11.961
11852POPC  H12S83702   8.030   0.774  11.854
11852POPC  C21383703   8.064   0.722  12.061
11852POPC  H13R83704   8.153   0.662  12.032
11852POPC  H13S83705   8.014   0.669  12.145
11852POPC  C21483706   8.109   0.858  12.115
11852POPC  H14R83707   8.158   0.918  12.035
11852POPC  H14S83708   8.186   0.831  12.189
11852POPC  C21583709   7.996   0.935  12.187
11852POPC  H15R83710   7.973   0.875  12.278
11852POPC  H15S83711   7.905   0.936  12.124
11852POPC  C21683712   8.025   1.080  12.229
11852POPC  H16R83713   7.983   1.150  12.154
11852POPC  H16S83714   8.135   1.097  12.233
11852POPC  C21783715   7.964   1.111  12.367
11852POPC  H17R83716   7.970   1.020  12.431
11852POPC  H17S83717   7.855   1.131  12.357
11852POPC  C21883718   8.033   1.224  12.443
11852POPC  H18R83719   8.048   1.313  12.379
11852POPC  H18S83720   8.133   1.195  12.480
11852POPC  H18T83721   7.971   1.253  12.531
11852POPC   C3383722   7.735   0.871  11.470
11852POPC   H3X83723   7.706   0.768  11.503
11852POPC   H3Y83724   7.726   0.874  11.359
11852POPC   C3483725   7.635   0.971  11.529
11852POPC   H4X83726   7.533   0.944  11.491
11852POPC   H4Y83727   7.659   1.073  11.491
11852POPC   C3583728   7.633   0.973  11.682
11852POPC   H5X83729   7.728   1.016  11.721
11852POPC   H5Y83730   7.625   0.868  11.719
11852POPC   C3683731   7.515   1.054  11.737
11852POPC   H6X83732   7.420   1.001  11.714
11852POPC   H6Y83733   7.511   1.153  11.686
11852POPC   C3783734   7.524   1.078  11.888
11852POPC   H7X83735   7.436   1.139  11.919
11852POPC   H7Y83736   7.615   1.139  11.910
11852POPC   C3883737   7.528   0.950  11.972
11852POPC   H8X83738   7.620   0.892  11.950
11852POPC   H8Y83739   7.441   0.886  11.946
11852POPC   C3983740   7.522   0.983  12.121
11852POPC   H9X83741   7.429   1.040  12.135
11852POPC   H9Y83742   7.606   1.050  12.151
11852POPC  C31083743   7.519   0.860  12.211
11852POPC  H10X83744   7.462   0.779  12.160
11852POPC  H10Y83745   7.467   0.882  12.307
11852POPC  C31183746   7.661   0.814  12.243
11852POPC  H11X83747   7.708   0.882  12.318
11852POPC  H11Y83748   7.721   0.820  12.149
11852POPC  C31283749   7.667   0.669  12.290
11852POPC  H12X83750   7.774   0.637  12.286
11852POPC  H12Y83751   7.609   0.605  12.222
11852POPC  C31383752   7.613   0.645  12.430
11852POPC  H13X83753   7.501   0.643  12.427
11852POPC  H13Y83754   7.643   0.729  12.498
11852POPC  C31483755   7.666   0.513  12.485
11852POPC  H14X83756   7.659   0.434  12.407
11852POPC  H14Y83757   7.603   0.480  12.570
11852POPC  C31583758   7.811   0.526  12.531
11852POPC  H15X83759   7.822   0.616  12.597
11852POPC  H15Y83760   7.877   0.543  12.444
11852POPC  C31683761   7.859   0.404  12.608
11852POPC  H16X83762   7.814   0.402  12.710
11852POPC  H16Y83763   7.969   0.408  12.619
11852POPC  H16Z83764   7.832   0.310  12.556
11853POPC     N83765   0.247   2.501  10.943
11853POPC   C1283766   0.228   2.350  10.945
11853POPC  H12A83767   0.137   2.327  11.002
11853POPC  H12B83768   0.311   2.304  10.997
11853POPC   C1383769   0.122   2.570  10.895
11853POPC  H13A83770   0.037   2.548  10.958
11853POPC  H13B83771   0.135   2.678  10.889
11853POPC  H13C83772   0.097   2.531  10.796
11853POPC   C1483773   0.280   2.554  11.078
11853POPC  H14A83774   0.379   2.524  11.108
11853POPC  H14B83775   0.275   2.663  11.077
11853POPC  H14C83776   0.209   2.520  11.152
11853POPC   C1583777   0.357   2.539  10.848
11853POPC  H15A83778   0.454   2.507  10.884
11853POPC  H15B83779   0.361   2.646  10.835
11853POPC  H15C83780   0.338   2.492  10.752
11853POPC   C1183781   0.216   2.274  10.810
11853POPC  H11A83782   0.220   2.164  10.826
11853POPC  H11B83783   0.302   2.296  10.744
11853POPC     P83784  -0.040   2.240  10.785
11853POPC   O1383785  -0.040   2.096  10.749
11853POPC   O1483786  -0.150   2.323  10.729
11853POPC   O1283787   0.096   2.310  10.743
11853POPC   O1183788  -0.044   2.258  10.944
11853POPC    C183789  -0.171   2.284  11.008
11853POPC    HA83790  -0.245   2.205  10.980
11853POPC    HB83791  -0.212   2.382  10.977
11853POPC    C283792  -0.168   2.284  11.165
11853POPC    HS83793  -0.273   2.296  11.200
11853POPC   O2183794  -0.090   2.397  11.210
11853POPC   C2183795  -0.088   2.418  11.340
11853POPC   O2283796  -0.165   2.373  11.422
11853POPC   C2283797   0.031   2.509  11.367
11853POPC   H2R83798   0.028   2.594  11.295
11853POPC   H2S83799   0.123   2.450  11.348
11853POPC    C383800  -0.110   2.151  11.224
11853POPC    HX83801  -0.170   2.069  11.177
11853POPC    HY83802  -0.128   2.147  11.333
11853POPC   O3183803   0.031   2.141  11.197
11853POPC   C3183804   0.074   2.023  11.156
11853POPC   O3283805   0.008   1.921  11.152
11853POPC   C3283806   0.219   2.033  11.104
11853POPC   H2X83807   0.212   2.087  11.008
11853POPC   H2Y83808   0.253   1.931  11.082
11853POPC   C2383809   0.032   2.562  11.510
11853POPC   H3R83810   0.033   2.477  11.583
11853POPC   H3S83811  -0.060   2.621  11.530
11853POPC   C2483812   0.154   2.650  11.531
11853POPC   H4R83813   0.151   2.733  11.456
11853POPC   H4S83814   0.248   2.593  11.513
11853POPC   C2583815   0.156   2.711  11.670
11853POPC   H5R83816   0.058   2.758  11.692
11853POPC   H5S83817   0.234   2.790  11.670
11853POPC   C2683818   0.191   2.612  11.781
11853POPC   H6R83819   0.293   2.572  11.759
11853POPC   H6S83820   0.119   2.527  11.781
11853POPC   C2783821   0.191   2.677  11.919
11853POPC   H7R83822   0.088   2.680  11.960
11853POPC   H7S83823   0.219   2.783  11.911
11853POPC   C2883824   0.291   2.609  12.014
11853POPC   H8R83825   0.321   2.679  12.095
11853POPC   H8S83826   0.384   2.584  11.958
11853POPC   C2983827   0.230   2.485  12.074
11853POPC   H9183828   0.267   2.390  12.034
11853POPC  C21083829   0.129   2.485  12.162
11853POPC  H10183830   0.086   2.389  12.192
11853POPC  C21183831   0.058   2.606  12.218
11853POPC  H11R83832   0.105   2.702  12.186
11853POPC  H11S83833   0.060   2.605  12.329
11853POPC  C21283834  -0.088   2.604  12.169
11853POPC  H12R83835  -0.136   2.517  12.219
11853POPC  H12S83836  -0.094   2.586  12.060
11853POPC  C21383837  -0.166   2.733  12.199
11853POPC  H13R83838  -0.153   2.805  12.116
11853POPC  H13S83839  -0.124   2.782  12.289
11853POPC  C21483840  -0.315   2.711  12.230
11853POPC  H14R83841  -0.369   2.681  12.137
11853POPC  H14S83842  -0.358   2.809  12.263
11853POPC  C21583843  -0.341   2.608  12.340
11853POPC  H15R83844  -0.322   2.505  12.304
11853POPC  H15S83845  -0.447   2.612  12.368
11853POPC  C21683846  -0.262   2.635  12.469
11853POPC  H16R83847  -0.295   2.733  12.509
11853POPC  H16S83848  -0.152   2.640  12.451
11853POPC  C21783849  -0.287   2.528  12.574
11853POPC  H17R83850  -0.241   2.432  12.546
11853POPC  H17S83851  -0.395   2.507  12.576
11853POPC  C21883852  -0.247   2.571  12.712
11853POPC  H18R83853  -0.137   2.559  12.729
11853POPC  H18S83854  -0.305   2.515  12.788
11853POPC  H18T83855  -0.273   2.677  12.727
11853POPC   C3383856   0.319   2.106  11.196
11853POPC   H3X83857   0.285   2.210  11.213
11853POPC   H3Y83858   0.419   2.111  11.145
11853POPC   C3483859   0.339   2.036  11.331
11853POPC   H4X83860   0.413   1.954  11.322
11853POPC   H4Y83861   0.242   1.991  11.361
11853POPC   C3583862   0.378   2.134  11.442
11853POPC   H5X83863   0.445   2.210  11.398
11853POPC   H5Y83864   0.432   2.079  11.522
11853POPC   C3683865   0.255   2.202  11.503
11853POPC   H6X83866   0.187   2.124  11.547
11853POPC   H6Y83867   0.197   2.253  11.423
11853POPC   C3783868   0.292   2.304  11.611
11853POPC   H7X83869   0.233   2.396  11.593
11853POPC   H7Y83870   0.399   2.331  11.603
11853POPC   C3883871   0.258   2.257  11.753
11853POPC   H8X83872   0.149   2.232  11.755
11853POPC   H8Y83873   0.274   2.343  11.822
11853POPC   C3983874   0.339   2.137  11.804
11853POPC   H9X83875   0.446   2.154  11.782
11853POPC   H9Y83876   0.307   2.045  11.751
11853POPC  C31083877   0.324   2.117  11.956
11853POPC  H10X83878   0.359   2.209  12.007
11853POPC  H10Y83879   0.389   2.034  11.990
11853POPC  C31183880   0.179   2.088  11.994
11853POPC  H11X83881   0.150   1.989  11.951
11853POPC  H11Y83882   0.112   2.165  11.949
11853POPC  C31283883   0.153   2.090  12.144
11853POPC  H12X83884   0.185   2.189  12.184
11853POPC  H12Y83885   0.213   2.012  12.195
11853POPC  C31383886   0.004   2.068  12.169
11853POPC  H13X83887  -0.023   1.969  12.128
11853POPC  H13Y83888  -0.055   2.144  12.112
11853POPC  C31483889  -0.033   2.078  12.317
11853POPC  H14X83890   0.033   2.011  12.377
11853POPC  H14Y83891  -0.137   2.043  12.331
11853POPC  C31583892  -0.022   2.222  12.368
11853POPC  H15X83893  -0.079   2.288  12.299
11853POPC  H15Y83894   0.085   2.254  12.365
11853POPC  C31683895  -0.074   2.242  12.510
11853POPC  H16X83896  -0.029   2.169  12.580
11853POPC  H16Y83897  -0.184   2.231  12.512
11853POPC  H16Z83898  -0.049   2.345  12.543
11854POPC     N83899   1.765   9.147  10.702
11854POPC   C1283900   1.906   9.106  10.660
11854POPC  H12A83901   1.938   9.165  10.575
11854POPC  H12B83902   1.904   9.003  10.626
11854POPC   C1383903   1.674   9.148  10.584
11854POPC  H13A83904   1.700   9.225  10.513
11854POPC  H13B83905   1.672   9.053  10.533
11854POPC  H13C83906   1.571   9.168  10.616
11854POPC   C1483907   1.716   9.051  10.807
11854POPC  H14A83908   1.796   9.036  10.880
11854POPC  H14B83909   1.628   9.088  10.859
11854POPC  H14C83910   1.697   8.953  10.766
11854POPC   C1583911   1.764   9.283  10.763
11854POPC  H15A83912   1.664   9.312  10.799
11854POPC  H15B83913   1.796   9.360  10.695
11854POPC  H15C83914   1.830   9.283  10.849
11854POPC   C1183915   2.017   9.112  10.767
11854POPC  H11A83916   2.020   9.213  10.813
11854POPC  H11B83917   2.115   9.095  10.715
11854POPC     P83918   2.094   9.013  10.990
11854POPC   O1383919   2.234   9.022  10.942
11854POPC   O1483920   2.059   8.898  11.078
11854POPC   O1283921   1.996   9.008  10.863
11854POPC   O1183922   2.048   9.152  11.055
11854POPC    C183923   1.913   9.169  11.102
11854POPC    HA83924   1.905   9.137  11.208
11854POPC    HB83925   1.841   9.108  11.044
11854POPC    C283926   1.862   9.317  11.094
11854POPC    HS83927   1.886   9.359  10.994
11854POPC   O2183928   1.934   9.392  11.193
11854POPC   C2183929   1.890   9.502  11.249
11854POPC   O2283930   1.794   9.570  11.220
11854POPC   C2283931   1.982   9.527  11.367
11854POPC   H2R83932   1.924   9.589  11.438
11854POPC   H2S83933   2.070   9.584  11.332
11854POPC    C383934   1.707   9.320  11.114
11854POPC    HX83935   1.661   9.262  11.031
11854POPC    HY83936   1.668   9.423  11.100
11854POPC   O3183937   1.667   9.272  11.244
11854POPC   C3183938   1.613   9.151  11.248
11854POPC   O3283939   1.603   9.073  11.154
11854POPC   C3283940   1.572   9.120  11.392
11854POPC   H2X83941   1.479   9.060  11.389
11854POPC   H2Y83942   1.551   9.216  11.443
11854POPC   C2383943   2.027   9.392  11.431
11854POPC   H3R83944   2.083   9.329  11.358
11854POPC   H3S83945   1.937   9.335  11.462
11854POPC   C2483946   2.116   9.412  11.553
11854POPC   H4R83947   2.216   9.449  11.522
11854POPC   H4S83948   2.129   9.314  11.603
11854POPC   C2583949   2.053   9.513  11.648
11854POPC   H5R83950   1.946   9.490  11.667
11854POPC   H5S83951   2.059   9.614  11.602
11854POPC   C2683952   2.128   9.520  11.780
11854POPC   H6R83953   2.106   9.620  11.825
11854POPC   H6S83954   2.237   9.514  11.760
11854POPC   C2783955   2.084   9.409  11.877
11854POPC   H7R83956   2.072   9.312  11.822
11854POPC   H7S83957   1.984   9.435  11.918
11854POPC   C2883958   2.184   9.390  11.991
11854POPC   H8R83959   2.277   9.347  11.950
11854POPC   H8S83960   2.144   9.318  12.066
11854POPC   C2983961   2.206   9.528  12.046
11854POPC   H9183962   2.269   9.592  11.981
11854POPC  C21083963   2.161   9.580  12.160
11854POPC  H10183964   2.183   9.685  12.182
11854POPC  C21183965   2.076   9.509  12.261
11854POPC  H11R83966   2.017   9.426  12.217
11854POPC  H11S83967   2.004   9.580  12.307
11854POPC  C21283968   2.178   9.460  12.364
11854POPC  H12R83969   2.231   9.550  12.405
11854POPC  H12S83970   2.254   9.395  12.315
11854POPC  C21383971   2.125   9.382  12.485
11854POPC  H13R83972   2.204   9.391  12.562
11854POPC  H13S83973   2.117   9.274  12.463
11854POPC  C21483974   1.996   9.434  12.546
11854POPC  H14R83975   1.962   9.362  12.624
11854POPC  H14S83976   1.916   9.441  12.469
11854POPC  C21583977   2.016   9.570  12.613
11854POPC  H15R83978   2.035   9.647  12.535
11854POPC  H15S83979   2.106   9.570  12.677
11854POPC  C21683980   1.893   9.607  12.696
11854POPC  H16R83981   1.802   9.561  12.651
11854POPC  H16S83982   1.882   9.717  12.694
11854POPC  C21783983   1.906   9.572  12.844
11854POPC  H17R83984   1.948   9.469  12.855
11854POPC  H17S83985   1.804   9.572  12.890
11854POPC  C21883986   1.994   9.676  12.914
11854POPC  H18R83987   1.952   9.778  12.898
11854POPC  H18S83988   2.096   9.675  12.869
11854POPC  H18T83989   2.003   9.656  13.022
11854POPC   C3383990   1.683   9.044  11.467
11854POPC   H3X83991   1.775   9.106  11.469
11854POPC   H3Y83992   1.707   8.950  11.413
11854POPC   C3483993   1.645   9.009  11.611
11854POPC   H4X83994   1.729   8.949  11.655
11854POPC   H4Y83995   1.555   8.943  11.612
11854POPC   C3583996   1.622   9.132  11.700
11854POPC   H5X83997   1.522   9.175  11.679
11854POPC   H5Y83998   1.698   9.209  11.674
11854POPC   C3683999   1.635   9.099  11.850
11854POPC   H6X84000   1.626   9.193  11.909
11854POPC   H6Y84001   1.738   9.059  11.868
11854POPC   C3784002   1.533   8.996  11.899
11854POPC   H7X84003   1.532   8.909  11.830
11854POPC   H7Y84004   1.431   9.041  11.897
11854POPC   C3884005   1.565   8.943  12.040
11854POPC   H8X84006   1.670   8.907  12.039
11854POPC   H8Y84007   1.499   8.856  12.062
11854POPC   C3984008   1.546   9.047  12.151
11854POPC   H9X84009   1.439   9.077  12.152
11854POPC   H9Y84010   1.606   9.138  12.129
11854POPC  C31084011   1.584   8.992  12.289
11854POPC  H10X84012   1.528   8.897  12.306
11854POPC  H10Y84013   1.551   9.064  12.367
11854POPC  C31184014   1.734   8.967  12.308
11854POPC  H11X84015   1.771   8.897  12.230
11854POPC  H11Y84016   1.750   8.918  12.406
11854POPC  C31284017   1.816   9.097  12.303
11854POPC  H12X84018   1.764   9.175  12.364
11854POPC  H12Y84019   1.819   9.134  12.198
11854POPC  C31384020   1.960   9.085  12.354
11854POPC  H13X84021   1.960   9.083  12.464
11854POPC  H13Y84022   2.013   9.177  12.321
11854POPC  C31484023   2.037   8.963  12.298
11854POPC  H14X84024   2.007   8.954  12.190
11854POPC  H14Y84025   2.004   8.870  12.348
11854POPC  C31584026   2.190   8.976  12.301
11854POPC  H15X84027   2.219   9.077  12.264
11854POPC  H15Y84028   2.230   8.901  12.229
11854POPC  C31684029   2.259   8.950  12.435
11854POPC  H16X84030   2.369   8.960  12.426
11854POPC  H16Y84031   2.238   8.846  12.470
11854POPC  H16Z84032   2.224   9.021  12.513
11855POPC     N84033   8.137   8.850  10.736
11855POPC   C1284034   8.111   8.817  10.883
11855POPC  H12A84035   8.029   8.745  10.886
11855POPC  H12B84036   8.074   8.905  10.933
11855POPC   C1384037   8.128   8.723  10.656
11855POPC  H13A84038   8.192   8.649  10.704
11855POPC  H13B84039   8.027   8.682  10.656
11855POPC  H13C84040   8.162   8.737  10.554
11855POPC   C1484041   8.041   8.951  10.683
11855POPC  H14A84042   8.014   9.025  10.759
11855POPC  H14B84043   8.086   9.003  10.600
11855POPC  H14C84044   7.949   8.905  10.649
11855POPC   C1584045   8.278   8.898  10.723
11855POPC  H15A84046   8.345   8.827  10.771
11855POPC  H15B84047   8.292   8.996  10.767
11855POPC  H15C84048   8.306   8.902  10.618
11855POPC   C1184049   8.226   8.758  10.966
11855POPC  H11A84050   8.194   8.747  11.072
11855POPC  H11B84051   8.313   8.827  10.969
11855POPC     P84052   8.196   8.496  10.945
11855POPC   O1384053   8.281   8.390  10.886
11855POPC   O1484054   8.056   8.511  10.898
11855POPC   O1284055   8.269   8.634  10.911
11855POPC   O1184056   8.205   8.494  11.103
11855POPC    C184057   8.338   8.484  11.157
11855POPC    HA84058   8.404   8.566  11.120
11855POPC    HB84059   8.385   8.387  11.129
11855POPC    C284060   8.334   8.495  11.311
11855POPC    HS84061   8.434   8.471  11.353
11855POPC   O2184062   8.234   8.406  11.364
11855POPC   C2184063   8.271   8.279  11.364
11855POPC   O2284064   8.380   8.235  11.332
11855POPC   C2284065   8.158   8.197  11.425
11855POPC   H2R84066   8.149   8.109  11.362
11855POPC   H2S84067   8.063   8.255  11.421
11855POPC    C384068   8.303   8.641  11.354
11855POPC    HX84069   8.234   8.683  11.277
11855POPC    HY84070   8.397   8.700  11.350
11855POPC   O3184071   8.239   8.656  11.481
11855POPC   C3184072   8.285   8.592  11.586
11855POPC   O3284073   8.386   8.525  11.593
11855POPC   C3284074   8.192   8.620  11.704
11855POPC   H2X84075   8.127   8.532  11.719
11855POPC   H2Y84076   8.128   8.707  11.678
11855POPC   C2384077   8.185   8.144  11.568
11855POPC   H3R84078   8.248   8.053  11.561
11855POPC   H3S84079   8.089   8.112  11.614
11855POPC   C2484080   8.254   8.248  11.657
11855POPC   H4R84081   8.190   8.338  11.663
11855POPC   H4S84082   8.351   8.277  11.611
11855POPC   C2584083   8.286   8.200  11.799
11855POPC   H5R84084   8.329   8.286  11.857
11855POPC   H5S84085   8.363   8.122  11.791
11855POPC   C2684086   8.168   8.139  11.873
11855POPC   H6R84087   8.163   8.032  11.843
11855POPC   H6S84088   8.073   8.186  11.839
11855POPC   C2784089   8.181   8.147  12.026
11855POPC   H7R84090   8.286   8.122  12.055
11855POPC   H7S84091   8.115   8.073  12.073
11855POPC   C2884092   8.140   8.282  12.085
11855POPC   H8R84093   8.206   8.361  12.043
11855POPC   H8S84094   8.159   8.279  12.195
11855POPC   C2984095   7.995   8.312  12.056
11855POPC   H9184096   7.977   8.367  11.962
11855POPC  C21084097   7.887   8.273  12.126
11855POPC  H10184098   7.788   8.305  12.092
11855POPC  C21184099   7.886   8.188  12.251
11855POPC  H11R84100   7.980   8.130  12.261
11855POPC  H11S84101   7.803   8.114  12.244
11855POPC  C21284102   7.867   8.268  12.380
11855POPC  H12R84103   7.822   8.202  12.458
11855POPC  H12S84104   7.797   8.351  12.361
11855POPC  C21384105   7.999   8.323  12.435
11855POPC  H13R84106   8.047   8.386  12.357
11855POPC  H13S84107   8.068   8.239  12.457
11855POPC  C21484108   7.980   8.409  12.561
11855POPC  H14R84109   8.079   8.452  12.588
11855POPC  H14S84110   7.947   8.345  12.645
11855POPC  C21584111   7.879   8.523  12.543
11855POPC  H15R84112   7.775   8.483  12.549
11855POPC  H15S84113   7.892   8.565  12.441
11855POPC  C21684114   7.899   8.634  12.645
11855POPC  H16R84115   7.850   8.728  12.609
11855POPC  H16S84116   8.008   8.655  12.654
11855POPC  C21784117   7.842   8.599  12.783
11855POPC  H17R84118   7.860   8.491  12.805
11855POPC  H17S84119   7.732   8.615  12.781
11855POPC  C21884120   7.905   8.683  12.894
11855POPC  H18R84121   7.900   8.790  12.867
11855POPC  H18S84122   8.012   8.655  12.907
11855POPC  H18T84123   7.851   8.667  12.990
11855POPC   C3384124   8.270   8.652  11.834
11855POPC   H3X84125   8.357   8.717  11.812
11855POPC   H3Y84126   8.310   8.558  11.879
11855POPC   C3484127   8.180   8.725  11.935
11855POPC   H4X84128   8.124   8.806  11.882
11855POPC   H4Y84129   8.244   8.773  12.012
11855POPC   C3584130   8.081   8.629  12.001
11855POPC   H5X84131   8.138   8.556  12.063
11855POPC   H5Y84132   8.029   8.572  11.921
11855POPC   C3684133   7.975   8.695  12.089
11855POPC   H6X84134   7.880   8.638  12.077
11855POPC   H6Y84135   7.956   8.799  12.056
11855POPC   C3784136   8.011   8.691  12.238
11855POPC   H7X84137   8.024   8.584  12.269
11855POPC   H7Y84138   7.927   8.733  12.297
11855POPC   C3884139   8.139   8.768  12.273
11855POPC   H8X84140   8.128   8.871  12.234
11855POPC   H8Y84141   8.226   8.721  12.222
11855POPC   C3984142   8.168   8.773  12.423
11855POPC   H9X84143   8.196   8.672  12.458
11855POPC   H9Y84144   8.075   8.803  12.477
11855POPC  C31084145   8.278   8.875  12.454
11855POPC  H10X84146   8.238   8.975  12.428
11855POPC  H10Y84147   8.366   8.855  12.388
11855POPC  C31184148   8.325   8.876  12.600
11855POPC  H11X84149   8.238   8.888  12.667
11855POPC  H11Y84150   8.392   8.965  12.615
11855POPC  C31284151   8.404   8.750  12.639
11855POPC  H12X84152   8.488   8.736  12.568
11855POPC  H12Y84153   8.337   8.662  12.629
11855POPC  C31384154   8.459   8.758  12.782
11855POPC  H13X84155   8.375   8.769  12.854
11855POPC  H13Y84156   8.521   8.851  12.789
11855POPC  C31484157   8.548   8.639  12.822
11855POPC  H14X84158   8.596   8.668  12.918
11855POPC  H14Y84159   8.629   8.625  12.748
11855POPC  C31584160   8.474   8.507  12.848
11855POPC  H15X84161   8.384   8.527  12.910
11855POPC  H15Y84162   8.542   8.442  12.909
11855POPC  C31684163   8.436   8.426  12.724
11855POPC  H16X84164   8.508   8.444  12.641
11855POPC  H16Y84165   8.335   8.454  12.688
11855POPC  H16Z84166   8.435   8.317  12.746
11856POPC     N84167   8.497   0.923  10.858
11856POPC   C1284168   8.558   1.045  10.792
11856POPC  H12A84169   8.663   1.030  10.773
11856POPC  H12B84170   8.553   1.127  10.864
11856POPC   C1384171   8.348   0.938  10.857
11856POPC  H13A84172   8.313   0.940  10.753
11856POPC  H13B84173   8.294   0.861  10.909
11856POPC  H13C84174   8.317   1.037  10.891
11856POPC   C1484175   8.536   0.798  10.786
11856POPC  H14A84176   8.514   0.711  10.846
11856POPC  H14B84177   8.485   0.788  10.691
11856POPC  H14C84178   8.643   0.796  10.767
11856POPC   C1584179   8.541   0.918  11.000
11856POPC  H15A84180   8.649   0.908  11.008
11856POPC  H15B84181   8.498   0.832  11.051
11856POPC  H15C84182   8.512   1.009  11.053
11856POPC   C1184183   8.488   1.100  10.666
11856POPC  H11A84184   8.476   1.020  10.591
11856POPC  H11B84185   8.553   1.178  10.621
11856POPC     P84186   8.353   1.291  10.783
11856POPC   O1384187   8.210   1.323  10.798
11856POPC   O1484188   8.440   1.389  10.712
11856POPC   O1284189   8.361   1.157  10.697
11856POPC   O1184190   8.418   1.243  10.922
11856POPC    C184191   8.432   1.322  11.040
11856POPC    HA84192   8.335   1.372  11.067
11856POPC    HB84193   8.505   1.404  11.022
11856POPC    C284194   8.474   1.239  11.169
11856POPC    HS84195   8.470   1.306  11.258
11856POPC   O2184196   8.607   1.178  11.164
11856POPC   C2184197   8.706   1.269  11.182
11856POPC   O2284198   8.696   1.386  11.152
11856POPC   C2284199   8.835   1.207  11.238
11856POPC   H2R84200   8.916   1.229  11.165
11856POPC   H2S84201   8.819   1.099  11.241
11856POPC    C384202   8.364   1.128  11.192
11856POPC    HX84203   8.329   1.095  11.092
11856POPC    HY84204   8.277   1.182  11.237
11856POPC   O3184205   8.408   1.011  11.268
11856POPC   C3184206   8.343   0.987  11.383
11856POPC   O3284207   8.247   1.049  11.424
11856POPC   C3284208   8.410   0.868  11.453
11856POPC   H2X84209   8.509   0.906  11.484
11856POPC   H2Y84210   8.427   0.787  11.379
11856POPC   C2384211   8.883   1.257  11.377
11856POPC   H3R84212   8.873   1.368  11.385
11856POPC   H3S84213   8.992   1.235  11.385
11856POPC   C2484214   8.815   1.187  11.496
11856POPC   H4R84215   8.706   1.209  11.496
11856POPC   H4S84216   8.858   1.230  11.590
11856POPC   C2584217   8.840   1.036  11.497
11856POPC   H5R84218   8.951   1.021  11.499
11856POPC   H5S84219   8.803   0.989  11.403
11856POPC   C2684220   8.776   0.955  11.609
11856POPC   H6R84221   8.829   0.858  11.607
11856POPC   H6S84222   8.670   0.934  11.588
11856POPC   C2784223   8.780   1.019  11.749
11856POPC   H7R84224   8.719   1.112  11.748
11856POPC   H7S84225   8.885   1.052  11.766
11856POPC   C2884226   8.735   0.927  11.864
11856POPC   H8R84227   8.625   0.931  11.877
11856POPC   H8S84228   8.775   0.966  11.960
11856POPC   C2984229   8.778   0.785  11.840
11856POPC   H9184230   8.877   0.774  11.792
11856POPC  C21084231   8.712   0.674  11.874
11856POPC  H10184232   8.756   0.578  11.845
11856POPC  C21184233   8.579   0.672  11.944
11856POPC  H11R84234   8.524   0.580  11.917
11856POPC  H11S84235   8.513   0.755  11.911
11856POPC  C21284236   8.602   0.682  12.096
11856POPC  H12R84237   8.655   0.778  12.116
11856POPC  H12S84238   8.668   0.599  12.130
11856POPC  C21384239   8.475   0.682  12.183
11856POPC  H13R84240   8.423   0.584  12.173
11856POPC  H13S84241   8.408   0.762  12.146
11856POPC  C21484242   8.509   0.707  12.331
11856POPC  H14R84243   8.574   0.796  12.340
11856POPC  H14S84244   8.565   0.620  12.370
11856POPC  C21584245   8.388   0.734  12.421
11856POPC  H15R84246   8.419   0.721  12.528
11856POPC  H15S84247   8.308   0.660  12.400
11856POPC  C21684248   8.334   0.877  12.405
11856POPC  H16R84249   8.321   0.899  12.298
11856POPC  H16S84250   8.405   0.955  12.434
11856POPC  C21784251   8.204   0.899  12.482
11856POPC  H17R84252   8.130   0.820  12.459
11856POPC  H17S84253   8.168   0.996  12.442
11856POPC  C21884254   8.217   0.918  12.633
11856POPC  H18R84255   8.119   0.903  12.684
11856POPC  H18S84256   8.251   1.021  12.655
11856POPC  H18T84257   8.292   0.849  12.675
11856POPC   C3384258   8.342   0.804  11.579
11856POPC   H3X84259   8.419   0.741  11.630
11856POPC   H3Y84260   8.262   0.733  11.548
11856POPC   C3484261   8.285   0.899  11.685
11856POPC   H4X84262   8.256   0.837  11.774
11856POPC   H4Y84263   8.191   0.947  11.649
11856POPC   C3584264   8.385   1.006  11.729
11856POPC   H5X84265   8.387   1.089  11.655
11856POPC   H5Y84266   8.485   0.959  11.730
11856POPC   C3684267   8.356   1.060  11.869
11856POPC   H6X84268   8.352   0.973  11.938
11856POPC   H6Y84269   8.256   1.110  11.873
11856POPC   C3784270   8.464   1.156  11.918
11856POPC   H7X84271   8.444   1.259  11.884
11856POPC   H7Y84272   8.561   1.129  11.873
11856POPC   C3884273   8.477   1.150  12.069
11856POPC   H8X84274   8.502   1.046  12.102
11856POPC   H8Y84275   8.378   1.176  12.113
11856POPC   C3984276   8.583   1.246  12.121
11856POPC   H9X84277   8.598   1.325  12.044
11856POPC   H9Y84278   8.681   1.194  12.132
11856POPC  C31084279   8.540   1.311  12.252
11856POPC  H10X84280   8.434   1.343  12.247
11856POPC  H10Y84281   8.604   1.400  12.271
11856POPC  C31184282   8.565   1.217  12.367
11856POPC  H11X84283   8.672   1.189  12.353
11856POPC  H11Y84284   8.503   1.125  12.358
11856POPC  C31284285   8.551   1.276  12.508
11856POPC  H12X84286   8.450   1.255  12.547
11856POPC  H12Y84287   8.565   1.386  12.507
11856POPC  C31384288   8.658   1.214  12.599
11856POPC  H13X84289   8.638   1.239  12.706
11856POPC  H13Y84290   8.756   1.260  12.573
11856POPC  C31484291   8.673   1.061  12.580
11856POPC  H14X84292   8.766   1.028  12.627
11856POPC  H14Y84293   8.691   1.035  12.474
11856POPC  C31584294   8.558   0.972  12.628
11856POPC  H15X84295   8.550   0.895  12.549
11856POPC  H15Y84296   8.464   1.031  12.629
11856POPC  C31684297   8.574   0.892  12.758
11856POPC  H16X84298   8.670   0.837  12.758
11856POPC  H16Y84299   8.492   0.818  12.767
11856POPC  H16Z84300   8.571   0.957  12.847
11857POPC     N84301   8.669   8.036  10.596
11857POPC   C1284302   8.773   8.127  10.659
11857POPC  H12A84303   8.721   8.220  10.683
11857POPC  H12B84304   8.850   8.145  10.585
11857POPC   C1384305   8.728   7.902  10.567
11857POPC  H13A84306   8.651   7.831  10.535
11857POPC  H13B84307   8.805   7.906  10.491
11857POPC  H13C84308   8.770   7.861  10.659
11857POPC   C1484309   8.553   8.019  10.691
11857POPC  H14A84310   8.514   8.116  10.721
11857POPC  H14B84311   8.472   7.958  10.655
11857POPC  H14C84312   8.588   7.976  10.785
11857POPC   C1584313   8.617   8.101  10.473
11857POPC  H15A84314   8.555   8.030  10.419
11857POPC  H15B84315   8.696   8.136  10.409
11857POPC  H15C84316   8.552   8.185  10.500
11857POPC   C1184317   8.840   8.082  10.790
11857POPC  H11A84318   8.912   8.162  10.820
11857POPC  H11B84319   8.899   7.988  10.774
11857POPC     P84320   8.752   8.116  11.037
11857POPC   O1384321   8.651   8.223  11.054
11857POPC   O1484322   8.895   8.149  11.061
11857POPC   O1284323   8.741   8.061  10.888
11857POPC   O1184324   8.709   7.986  11.119
11857POPC    C184325   8.573   7.940  11.104
11857POPC    HA84326   8.563   7.876  11.013
11857POPC    HB84327   8.502   8.026  11.094
11857POPC    C284328   8.520   7.859  11.227
11857POPC    HS84329   8.410   7.849  11.213
11857POPC   O2184330   8.553   7.931  11.348
11857POPC   C2184331   8.472   7.909  11.450
11857POPC   O2284332   8.374   7.836  11.449
11857POPC   C2284333   8.516   7.991  11.572
11857POPC   H2R84334   8.431   7.990  11.643
11857POPC   H2S84335   8.535   8.095  11.538
11857POPC    C384336   8.580   7.715  11.226
11857POPC    HX84337   8.634   7.701  11.130
11857POPC    HY84338   8.495   7.642  11.226
11857POPC   O3184339   8.661   7.689  11.342
11857POPC   C3184340   8.787   7.656  11.321
11857POPC   O3284341   8.838   7.628  11.214
11857POPC   C3284342   8.860   7.664  11.454
11857POPC   H2X84343   8.803   7.733  11.521
11857POPC   H2Y84344   8.958   7.711  11.434
11857POPC   C2384345   8.641   7.933  11.640
11857POPC   H3R84346   8.722   7.932  11.563
11857POPC   H3S84347   8.623   7.828  11.671
11857POPC   C2484348   8.694   8.016  11.759
11857POPC   H4R84349   8.709   8.120  11.724
11857POPC   H4S84350   8.795   7.976  11.784
11857POPC   C2584351   8.610   8.019  11.889
11857POPC   H5R84352   8.533   8.097  11.883
11857POPC   H5S84353   8.679   8.054  11.969
11857POPC   C2684354   8.548   7.887  11.936
11857POPC   H6R84355   8.608   7.802  11.898
11857POPC   H6S84356   8.445   7.877  11.895
11857POPC   C2784357   8.541   7.879  12.090
11857POPC   H7R84358   8.468   7.956  12.126
11857POPC   H7S84359   8.638   7.907  12.134
11857POPC   C2884360   8.504   7.743  12.153
11857POPC   H8R84361   8.396   7.736  12.135
11857POPC   H8S84362   8.514   7.755  12.263
11857POPC   C2984363   8.565   7.612  12.105
11857POPC   H9184364   8.556   7.595  11.996
11857POPC  C21084365   8.632   7.522  12.178
11857POPC  H10184366   8.668   7.428  12.132
11857POPC  C21184367   8.661   7.540  12.322
11857POPC  H11R84368   8.706   7.450  12.368
11857POPC  H11S84369   8.568   7.565  12.378
11857POPC  C21284370   8.759   7.657  12.328
11857POPC  H12R84371   8.743   7.737  12.252
11857POPC  H12S84372   8.863   7.621  12.311
11857POPC  C21384373   8.741   7.727  12.460
11857POPC  H13R84374   8.756   7.652  12.541
11857POPC  H13S84375   8.636   7.763  12.467
11857POPC  C21484376   8.834   7.846  12.474
11857POPC  H14R84377   8.824   7.912  12.385
11857POPC  H14S84378   8.940   7.814  12.480
11857POPC  C21584379   8.793   7.924  12.597
11857POPC  H15R84380   8.704   7.983  12.569
11857POPC  H15S84381   8.877   7.989  12.630
11857POPC  C21684382   8.748   7.836  12.714
11857POPC  H16R84383   8.816   7.749  12.720
11857POPC  H16S84384   8.646   7.798  12.693
11857POPC  C21784385   8.754   7.913  12.845
11857POPC  H17R84386   8.860   7.944  12.856
11857POPC  H17S84387   8.731   7.844  12.929
11857POPC  C21884388   8.664   8.036  12.852
11857POPC  H18R84389   8.577   8.015  12.917
11857POPC  H18S84390   8.626   8.065  12.752
11857POPC  H18T84391   8.714   8.124  12.895
11857POPC   C3384392   8.877   7.528  11.522
11857POPC   H3X84393   8.955   7.470  11.468
11857POPC   H3Y84394   8.785   7.466  11.520
11857POPC   C3484395   8.919   7.546  11.668
11857POPC   H4X84396   8.981   7.638  11.674
11857POPC   H4Y84397   8.979   7.456  11.696
11857POPC   C3584398   8.806   7.558  11.770
11857POPC   H5X84399   8.729   7.480  11.744
11857POPC   H5Y84400   8.756   7.657  11.766
11857POPC   C3684401   8.850   7.525  11.913
11857POPC   H6X84402   8.909   7.431  11.913
11857POPC   H6Y84403   8.757   7.500  11.965
11857POPC   C3784404   8.927   7.632  11.996
11857POPC   H7X84405   9.031   7.641  11.959
11857POPC   H7Y84406   8.933   7.595  12.101
11857POPC   C3884407   8.876   7.776  11.997
11857POPC   H8X84408   8.773   7.775  12.038
11857POPC   H8Y84409   8.871   7.814  11.893
11857POPC   C3984410   8.965   7.869  12.083
11857POPC   H9X84411   9.066   7.874  12.038
11857POPC   H9Y84412   8.974   7.825  12.184
11857POPC  C31084413   8.907   8.011  12.095
11857POPC  H10X84414   8.803   7.999  12.130
11857POPC  H10Y84415   8.904   8.060  11.995
11857POPC  C31184416   8.973   8.104  12.199
11857POPC  H11X84417   9.076   8.129  12.165
11857POPC  H11Y84418   8.981   8.049  12.295
11857POPC  C31284419   8.892   8.234  12.224
11857POPC  H12X84420   8.893   8.296  12.132
11857POPC  H12Y84421   8.944   8.291  12.303
11857POPC  C31384422   8.745   8.209  12.264
11857POPC  H13X84423   8.739   8.117  12.327
11857POPC  H13Y84424   8.685   8.191  12.172
11857POPC  C31484425   8.678   8.324  12.342
11857POPC  H14X84426   8.571   8.297  12.359
11857POPC  H14Y84427   8.680   8.418  12.283
11857POPC  C31584428   8.738   8.352  12.480
11857POPC  H15X84429   8.676   8.431  12.527
11857POPC  H15Y84430   8.842   8.388  12.470
11857POPC  C31684431   8.738   8.234  12.575
11857POPC  H16X84432   8.743   8.266  12.682
11857POPC  H16Y84433   8.827   8.171  12.553
11857POPC  H16Z84434   8.645   8.175  12.561
11858POPC     N84435   0.147   7.297  10.877
11858POPC   C1284436   0.140   7.435  10.942
11858POPC  H12A84437   0.222   7.445  11.013
11858POPC  H12B84438   0.049   7.443  11.002
11858POPC   C1384439   0.021   7.275  10.800
11858POPC  H13A84440   0.028   7.192  10.731
11858POPC  H13B84441  -0.065   7.261  10.865
11858POPC  H13C84442   0.000   7.367  10.744
11858POPC   C1484443   0.264   7.288  10.785
11858POPC  H14A84444   0.261   7.372  10.715
11858POPC  H14B84445   0.360   7.295  10.835
11858POPC  H14C84446   0.264   7.198  10.725
11858POPC   C1584447   0.158   7.194  10.983
11858POPC  H15A84448   0.167   7.095  10.938
11858POPC  H15B84449   0.072   7.192  11.049
11858POPC  H15C84450   0.245   7.216  11.045
11858POPC   C1184451   0.140   7.557  10.847
11858POPC  H11A84452   0.224   7.549  10.774
11858POPC  H11B84453   0.161   7.648  10.908
11858POPC     P84454  -0.092   7.677  10.812
11858POPC   O1384455  -0.197   7.667  10.710
11858POPC   O1484456  -0.023   7.808  10.822
11858POPC   O1284457   0.017   7.565  10.776
11858POPC   O1184458  -0.149   7.628  10.951
11858POPC    C184459  -0.190   7.720  11.051
11858POPC    HA84460  -0.249   7.663  11.126
11858POPC    HB84461  -0.258   7.799  11.010
11858POPC    C284462  -0.069   7.785  11.122
11858POPC    HS84463  -0.034   7.869  11.059
11858POPC   O2184464   0.035   7.685  11.137
11858POPC   C2184465   0.148   7.727  11.187
11858POPC   O2284466   0.185   7.842  11.200
11858POPC   C2284467   0.226   7.604  11.236
11858POPC   H2R84468   0.315   7.643  11.289
11858POPC   H2S84469   0.261   7.545  11.151
11858POPC    C384470  -0.114   7.842  11.260
11858POPC    HX84471  -0.219   7.877  11.252
11858POPC    HY84472  -0.048   7.930  11.281
11858POPC   O3184473  -0.098   7.741  11.361
11858POPC   C3184474  -0.126   7.783  11.483
11858POPC   O3284475  -0.196   7.878  11.511
11858POPC   C3284476  -0.046   7.700  11.582
11858POPC   H2X84477   0.061   7.715  11.558
11858POPC   H2Y84478  -0.073   7.595  11.563
11858POPC   C2384479   0.138   7.521  11.333
11858POPC   H3R84480   0.041   7.493  11.286
11858POPC   H3S84481   0.115   7.586  11.418
11858POPC   C2484482   0.203   7.396  11.392
11858POPC   H4R84483   0.220   7.323  11.310
11858POPC   H4S84484   0.134   7.349  11.465
11858POPC   C2584485   0.336   7.424  11.463
11858POPC   H5R84486   0.406   7.475  11.394
11858POPC   H5S84487   0.383   7.327  11.492
11858POPC   C2684488   0.324   7.506  11.592
11858POPC   H6R84489   0.264   7.449  11.667
11858POPC   H6S84490   0.272   7.603  11.573
11858POPC   C2784491   0.463   7.538  11.646
11858POPC   H7R84492   0.493   7.635  11.601
11858POPC   H7S84493   0.536   7.467  11.602
11858POPC   C2884494   0.480   7.547  11.800
11858POPC   H8R84495   0.430   7.640  11.830
11858POPC   H8S84496   0.589   7.565  11.815
11858POPC   C2984497   0.437   7.435  11.892
11858POPC   H9184498   0.494   7.342  11.886
11858POPC  C21084499   0.336   7.444  11.981
11858POPC  H10184500   0.313   7.357  12.046
11858POPC  C21184501   0.248   7.565  12.002
11858POPC  H11R84502   0.145   7.531  12.012
11858POPC  H11S84503   0.245   7.626  11.909
11858POPC  C21284504   0.274   7.663  12.118
11858POPC  H12R84505   0.251   7.764  12.076
11858POPC  H12S84506   0.381   7.661  12.148
11858POPC  C21384507   0.182   7.647  12.241
11858POPC  H13R84508   0.218   7.563  12.304
11858POPC  H13S84509   0.079   7.621  12.205
11858POPC  C21484510   0.168   7.774  12.326
11858POPC  H14R84511   0.128   7.856  12.263
11858POPC  H14S84512   0.268   7.806  12.363
11858POPC  C21584513   0.074   7.754  12.446
11858POPC  H15R84514   0.117   7.677  12.514
11858POPC  H15S84515  -0.024   7.715  12.409
11858POPC  C21684516   0.050   7.884  12.525
11858POPC  H16R84517   0.004   7.960  12.458
11858POPC  H16S84518   0.148   7.924  12.560
11858POPC  C21784519  -0.041   7.865  12.648
11858POPC  H17R84520   0.004   7.787  12.714
11858POPC  H17S84521  -0.140   7.826  12.614
11858POPC  C21884522  -0.061   7.993  12.728
11858POPC  H18R84523  -0.107   8.072  12.665
11858POPC  H18S84524   0.036   8.031  12.766
11858POPC  H18T84525  -0.128   7.975  12.815
11858POPC   C3384526  -0.062   7.741  11.730
11858POPC   H3X84527  -0.166   7.776  11.750
11858POPC   H3Y84528   0.006   7.825  11.750
11858POPC   C3484529  -0.031   7.624  11.824
11858POPC   H4X84530  -0.031   7.661  11.929
11858POPC   H4Y84531   0.070   7.583  11.800
11858POPC   C3584532  -0.136   7.515  11.804
11858POPC   H5X84533  -0.116   7.458  11.711
11858POPC   H5Y84534  -0.228   7.574  11.791
11858POPC   C3684535  -0.170   7.417  11.915
11858POPC   H6X84536  -0.229   7.333  11.871
11858POPC   H6Y84537  -0.234   7.464  11.993
11858POPC   C3784538  -0.051   7.364  11.989
11858POPC   H7X84539  -0.016   7.448  12.053
11858POPC   H7Y84540   0.028   7.332  11.918
11858POPC   C3884541  -0.089   7.252  12.084
11858POPC   H8X84542  -0.138   7.171  12.026
11858POPC   H8Y84543  -0.162   7.288  12.159
11858POPC   C3984544   0.039   7.202  12.149
11858POPC   H9X84545   0.112   7.188  12.067
11858POPC   H9Y84546   0.020   7.104  12.197
11858POPC  C31084547   0.100   7.302  12.249
11858POPC  H10X84548   0.132   7.393  12.195
11858POPC  H10Y84549   0.191   7.259  12.294
11858POPC  C31184550   0.008   7.340  12.363
11858POPC  H11X84551  -0.075   7.406  12.329
11858POPC  H11Y84552   0.068   7.399  12.436
11858POPC  C31284553  -0.049   7.215  12.431
11858POPC  H12X84554   0.005   7.124  12.398
11858POPC  H12Y84555  -0.157   7.203  12.405
11858POPC  C31384556  -0.031   7.221  12.581
11858POPC  H13X84557   0.077   7.235  12.603
11858POPC  H13Y84558  -0.065   7.125  12.626
11858POPC  C31484559  -0.111   7.333  12.642
11858POPC  H14X84560  -0.218   7.308  12.625
11858POPC  H14Y84561  -0.088   7.429  12.591
11858POPC  C31584562  -0.088   7.350  12.791
11858POPC  H15X84563  -0.065   7.252  12.834
11858POPC  H15Y84564  -0.184   7.382  12.836
11858POPC  C31684565   0.019   7.454  12.823
11858POPC  H16X84566  -0.007   7.551  12.776
11858POPC  H16Y84567   0.119   7.423  12.785
11858POPC  H16Z84568   0.026   7.467  12.932
11859POPC     N84569   1.325   8.687  10.797
11859POPC   C1284570   1.231   8.573  10.834
11859POPC  H12A84571   1.251   8.540  10.934
11859POPC  H12B84572   1.245   8.488  10.767
11859POPC   C1384573   1.273   8.746  10.670
11859POPC  H13A84574   1.326   8.834  10.640
11859POPC  H13B84575   1.265   8.676  10.588
11859POPC  H13C84576   1.169   8.778  10.688
11859POPC   C1484577   1.315   8.794  10.901
11859POPC  H14A84578   1.343   8.762  11.000
11859POPC  H14B84579   1.367   8.884  10.873
11859POPC  H14C84580   1.209   8.823  10.909
11859POPC   C1584581   1.466   8.646  10.782
11859POPC  H15A84582   1.504   8.607  10.877
11859POPC  H15B84583   1.526   8.732  10.754
11859POPC  H15C84584   1.476   8.572  10.705
11859POPC   C1184585   1.079   8.604  10.827
11859POPC  H11A84586   1.027   8.531  10.895
11859POPC  H11B84587   1.042   8.585  10.724
11859POPC     P84588   0.898   8.771  10.888
11859POPC   O1384589   0.813   8.696  10.794
11859POPC   O1484590   0.875   8.918  10.895
11859POPC   O1284591   1.049   8.741  10.861
11859POPC   O1184592   0.886   8.710  11.033
11859POPC    C184593   0.757   8.683  11.086
11859POPC    HA84594   0.760   8.589  11.145
11859POPC    HB84595   0.679   8.667  11.007
11859POPC    C284596   0.708   8.798  11.178
11859POPC    HS84597   0.711   8.894  11.122
11859POPC   O2184598   0.788   8.802  11.300
11859POPC   C2184599   0.900   8.874  11.288
11859POPC   O2284600   0.926   8.945  11.193
11859POPC   C2284601   0.984   8.879  11.415
11859POPC   H2R84602   0.989   8.986  11.443
11859POPC   H2S84603   1.086   8.847  11.387
11859POPC    C384604   0.560   8.769  11.211
11859POPC    HX84605   0.503   8.759  11.116
11859POPC    HY84606   0.513   8.852  11.268
11859POPC   O3184607   0.557   8.643  11.277
11859POPC   C3184608   0.499   8.633  11.393
11859POPC   O3284609   0.428   8.716  11.446
11859POPC   C3284610   0.545   8.499  11.451
11859POPC   H2X84611   0.636   8.467  11.395
11859POPC   H2Y84612   0.465   8.425  11.431
11859POPC   C2384613   0.932   8.797  11.534
11859POPC   H3R84614   0.922   8.690  11.505
11859POPC   H3S84615   0.832   8.834  11.565
11859POPC   C2484616   1.033   8.809  11.649
11859POPC   H4R84617   1.040   8.916  11.680
11859POPC   H4S84618   1.133   8.779  11.611
11859POPC   C2584619   1.000   8.722  11.769
11859POPC   H5R84620   1.076   8.744  11.848
11859POPC   H5S84621   1.010   8.615  11.739
11859POPC   C2684622   0.860   8.741  11.830
11859POPC   H6R84623   0.854   8.677  11.921
11859POPC   H6S84624   0.783   8.703  11.758
11859POPC   C2784625   0.826   8.885  11.867
11859POPC   H7R84626   0.828   8.948  11.776
11859POPC   H7S84627   0.905   8.923  11.936
11859POPC   C2884628   0.687   8.898  11.932
11859POPC   H8R84629   0.613   8.844  11.869
11859POPC   H8S84630   0.658   9.005  11.932
11859POPC   C2984631   0.689   8.843  12.072
11859POPC   H9184632   0.674   8.734  12.081
11859POPC  C21084633   0.705   8.916  12.183
11859POPC  H10184634   0.704   8.864  12.280
11859POPC  C21184635   0.724   9.066  12.188
11859POPC  H11R84636   0.624   9.114  12.199
11859POPC  H11S84637   0.764   9.106  12.092
11859POPC  C21284638   0.815   9.121  12.300
11859POPC  H12R84639   0.791   9.230  12.312
11859POPC  H12S84640   0.921   9.116  12.267
11859POPC  C21384641   0.801   9.054  12.437
11859POPC  H13R84642   0.851   9.120  12.512
11859POPC  H13S84643   0.855   8.957  12.437
11859POPC  C21484644   0.657   9.034  12.485
11859POPC  H14R84645   0.599   8.965  12.420
11859POPC  H14S84646   0.608   9.133  12.475
11859POPC  C21584647   0.653   8.980  12.628
11859POPC  H15R84648   0.746   9.013  12.680
11859POPC  H15S84649   0.656   8.869  12.626
11859POPC  C21684650   0.535   9.028  12.713
11859POPC  H16R84651   0.562   9.012  12.819
11859POPC  H16S84652   0.444   8.966  12.697
11859POPC  C21784653   0.501   9.177  12.697
11859POPC  H17R84654   0.418   9.192  12.627
11859POPC  H17S84655   0.583   9.234  12.650
11859POPC  C21884656   0.467   9.242  12.830
11859POPC  H18R84657   0.382   9.191  12.879
11859POPC  H18S84658   0.443   9.349  12.817
11859POPC  H18T84659   0.555   9.233  12.896
11859POPC   C3384660   0.584   8.495  11.601
11859POPC   H3X84661   0.501   8.532  11.666
11859POPC   H3Y84662   0.674   8.558  11.620
11859POPC   C3484663   0.616   8.349  11.632
11859POPC   H4X84664   0.690   8.315  11.557
11859POPC   H4Y84665   0.524   8.288  11.617
11859POPC   C3584666   0.671   8.319  11.770
11859POPC   H5X84667   0.687   8.209  11.773
11859POPC   H5Y84668   0.598   8.346  11.850
11859POPC   C3684669   0.809   8.377  11.802
11859POPC   H6X84670   0.796   8.485  11.824
11859POPC   H6Y84671   0.879   8.366  11.716
11859POPC   C3784672   0.865   8.303  11.924
11859POPC   H7X84673   0.917   8.210  11.894
11859POPC   H7Y84674   0.777   8.273  11.983
11859POPC   C3884675   0.953   8.390  12.013
11859POPC   H8X84676   0.969   8.337  12.110
11859POPC   H8Y84677   0.899   8.485  12.036
11859POPC   C3984678   1.088   8.421  11.950
11859POPC   H9X84679   1.075   8.449  11.843
11859POPC   H9Y84680   1.150   8.328  11.951
11859POPC  C31084681   1.159   8.534  12.024
11859POPC  H10X84682   1.099   8.627  12.016
11859POPC  H10Y84683   1.259   8.554  11.978
11859POPC  C31184684   1.173   8.503  12.173
11859POPC  H11X84685   1.210   8.400  12.189
11859POPC  H11Y84686   1.070   8.506  12.214
11859POPC  C31284687   1.262   8.603  12.246
11859POPC  H12X84688   1.240   8.706  12.211
11859POPC  H12Y84689   1.369   8.581  12.221
11859POPC  C31384690   1.243   8.595  12.397
11859POPC  H13X84691   1.310   8.670  12.444
11859POPC  H13Y84692   1.275   8.495  12.432
11859POPC  C31484693   1.098   8.622  12.441
11859POPC  H14X84694   1.028   8.543  12.406
11859POPC  H14Y84695   1.064   8.720  12.400
11859POPC  C31584696   1.088   8.624  12.593
11859POPC  H15X84697   0.995   8.675  12.625
11859POPC  H15Y84698   1.175   8.684  12.628
11859POPC  C31684699   1.096   8.485  12.654
11859POPC  H16X84700   1.009   8.423  12.622
11859POPC  H16Y84701   1.097   8.491  12.764
11859POPC  H16Z84702   1.189   8.434  12.621
11860POPC     N84703   7.369   9.301  10.985
11860POPC   C1284704   7.519   9.317  11.002
11860POPC  H12A84705   7.565   9.218  10.995
11860POPC  H12B84706   7.541   9.355  11.101
11860POPC   C1384707   7.341   9.219  10.862
11860POPC  H13A84708   7.238   9.223  10.830
11860POPC  H13B84709   7.402   9.258  10.780
11860POPC  H13C84710   7.372   9.117  10.875
11860POPC   C1484711   7.311   9.236  11.106
11860POPC  H14A84712   7.336   9.130  11.108
11860POPC  H14B84713   7.344   9.285  11.197
11860POPC  H14C84714   7.203   9.245  11.104
11860POPC   C1584715   7.303   9.433  10.961
11860POPC  H15A84716   7.318   9.502  11.043
11860POPC  H15B84717   7.196   9.422  10.942
11860POPC  H15C84718   7.343   9.477  10.870
11860POPC   C1184719   7.595   9.405  10.899
11860POPC  H11A84720   7.702   9.418  10.927
11860POPC  H11B84721   7.552   9.508  10.898
11860POPC     P84722   7.669   9.225  10.725
11860POPC   O1384723   7.809   9.267  10.697
11860POPC   O1484724   7.591   9.164  10.616
11860POPC   O1284725   7.585   9.351  10.770
11860POPC   O1184726   7.667   9.126  10.854
11860POPC    C184727   7.631   8.989  10.827
11860POPC    HA84728   7.690   8.947  10.741
11860POPC    HB84729   7.523   8.982  10.800
11860POPC    C284730   7.656   8.889  10.945
11860POPC    HS84731   7.601   8.794  10.923
11860POPC   O2184732   7.619   8.940  11.072
11860POPC   C2184733   7.497   8.931  11.112
11860POPC   O2284734   7.398   8.920  11.042
11860POPC   C2284735   7.493   8.939  11.264
11860POPC   H2R84736   7.422   9.019  11.292
11860POPC   H2S84737   7.594   8.967  11.301
11860POPC    C384738   7.806   8.851  10.960
11860POPC    HX84739   7.836   8.788  10.874
11860POPC    HY84740   7.818   8.788  11.052
11860POPC   O3184741   7.889   8.968  10.961
11860POPC   C3184742   7.887   9.035  11.075
11860POPC   O3284743   7.846   8.996  11.183
11860POPC   C3284744   7.950   9.172  11.054
11860POPC   H2X84745   7.900   9.221  10.967
11860POPC   H2Y84746   8.057   9.157  11.032
11860POPC   C2384747   7.448   8.805  11.330
11860POPC   H3R84748   7.350   8.773  11.290
11860POPC   H3S84749   7.432   8.823  11.439
11860POPC   C2484750   7.549   8.689  11.316
11860POPC   H4R84751   7.561   8.664  11.208
11860POPC   H4S84752   7.504   8.598  11.361
11860POPC   C2584753   7.689   8.710  11.378
11860POPC   H5R84754   7.740   8.792  11.322
11860POPC   H5S84755   7.749   8.618  11.362
11860POPC   C2684756   7.689   8.745  11.529
11860POPC   H6R84757   7.622   8.831  11.545
11860POPC   H6S84758   7.791   8.778  11.559
11860POPC   C2784759   7.649   8.628  11.621
11860POPC   H7R84760   7.738   8.563  11.637
11860POPC   H7S84761   7.575   8.564  11.568
11860POPC   C2884762   7.590   8.671  11.757
11860POPC   H8R84763   7.664   8.736  11.809
11860POPC   H8S84764   7.576   8.581  11.820
11860POPC   C2984765   7.457   8.739  11.736
11860POPC   H9184766   7.390   8.686  11.667
11860POPC  C21084767   7.411   8.852  11.795
11860POPC  H10184768   7.313   8.890  11.765
11860POPC  C21184769   7.483   8.938  11.895
11860POPC  H11R84770   7.514   9.033  11.848
11860POPC  H11S84771   7.575   8.889  11.935
11860POPC  C21284772   7.390   8.971  12.014
11860POPC  H12R84773   7.302   9.028  11.978
11860POPC  H12S84774   7.446   9.038  12.083
11860POPC  C21384775   7.344   8.848  12.093
11860POPC  H13R84776   7.430   8.779  12.103
11860POPC  H13S84777   7.264   8.794  12.037
11860POPC  C21484778   7.295   8.882  12.235
11860POPC  H14R84779   7.380   8.930  12.288
11860POPC  H14S84780   7.272   8.787  12.289
11860POPC  C21584781   7.174   8.977  12.242
11860POPC  H15R84782   7.080   8.922  12.218
11860POPC  H15S84783   7.185   9.059  12.168
11860POPC  C21684784   7.161   9.043  12.381
11860POPC  H16R84785   7.080   9.119  12.378
11860POPC  H16S84786   7.256   9.095  12.404
11860POPC  C21784787   7.131   8.943  12.492
11860POPC  H17R84788   7.193   8.852  12.482
11860POPC  H17S84789   7.025   8.910  12.483
11860POPC  C21884790   7.155   9.002  12.631
11860POPC  H18R84791   7.105   9.100  12.640
11860POPC  H18S84792   7.264   9.018  12.647
11860POPC  H18T84793   7.117   8.933  12.709
11860POPC   C3384794   7.936   9.260  11.181
11860POPC   H3X84795   8.004   9.348  11.173
11860POPC   H3Y84796   7.971   9.202  11.269
11860POPC   C3484797   7.793   9.311  11.203
11860POPC   H4X84798   7.722   9.226  11.205
11860POPC   H4Y84799   7.768   9.377  11.117
11860POPC   C3584800   7.775   9.394  11.331
11860POPC   H5X84801   7.671   9.434  11.336
11860POPC   H5Y84802   7.845   9.480  11.324
11860POPC   C3684803   7.806   9.318  11.461
11860POPC   H6X84804   7.814   9.393  11.543
11860POPC   H6Y84805   7.905   9.268  11.452
11860POPC   C3784806   7.703   9.213  11.501
11860POPC   H7X84807   7.714   9.122  11.436
11860POPC   H7Y84808   7.601   9.255  11.485
11860POPC   C3884809   7.716   9.173  11.649
11860POPC   H8X84810   7.626   9.113  11.677
11860POPC   H8Y84811   7.716   9.266  11.710
11860POPC   C3984812   7.841   9.089  11.681
11860POPC   H9X84813   7.932   9.148  11.660
11860POPC   H9Y84814   7.844   9.000  11.614
11860POPC  C31084815   7.849   9.041  11.828
11860POPC  H10X84816   7.953   9.008  11.849
11860POPC  H10Y84817   7.783   8.952  11.839
11860POPC  C31184818   7.806   9.146  11.931
11860POPC  H11X84819   7.697   9.167  11.916
11860POPC  H11Y84820   7.860   9.241  11.915
11860POPC  C31284821   7.826   9.101  12.076
11860POPC  H12X84822   7.935   9.100  12.100
11860POPC  H12Y84823   7.787   8.998  12.087
11860POPC  C31384824   7.751   9.193  12.173
11860POPC  H13X84825   7.648   9.211  12.136
11860POPC  H13Y84826   7.803   9.291  12.178
11860POPC  C31484827   7.742   9.132  12.313
11860POPC  H14X84828   7.844   9.103  12.347
11860POPC  H14Y84829   7.681   9.039  12.310
11860POPC  C31584830   7.683   9.229  12.416
11860POPC  H15X84831   7.574   9.243  12.393
11860POPC  H15Y84832   7.733   9.328  12.408
11860POPC  C31684833   7.699   9.176  12.557
11860POPC  H16X84834   7.655   9.245  12.632
11860POPC  H16Y84835   7.806   9.161  12.582
11860POPC  H16Z84836   7.648   9.077  12.565
11861POPC     N84837   1.204   0.460  10.820
11861POPC   C1284838   1.350   0.417  10.807
11861POPC  H12A84839   1.393   0.407  10.907
11861POPC  H12B84840   1.407   0.494  10.756
11861POPC   C1384841   1.128   0.431  10.694
11861POPC  H13A84842   1.162   0.492  10.610
11861POPC  H13B84843   1.143   0.327  10.664
11861POPC  H13C84844   1.023   0.447  10.706
11861POPC   C1484845   1.143   0.379  10.931
11861POPC  H14A84846   1.188   0.403  11.028
11861POPC  H14B84847   1.035   0.384  10.936
11861POPC  H14C84848   1.169   0.273  10.917
11861POPC   C1584849   1.197   0.607  10.849
11861POPC  H15A84850   1.239   0.633  10.946
11861POPC  H15B84851   1.095   0.641  10.849
11861POPC  H15C84852   1.250   0.663  10.773
11861POPC   C1184853   1.382   0.283  10.737
11861POPC  H11A84854   1.493   0.271  10.731
11861POPC  H11B84855   1.345   0.284  10.633
11861POPC     P84856   1.391   0.119  10.936
11861POPC   O1384857   1.391   0.225  11.038
11861POPC   O1484858   1.519   0.061  10.889
11861POPC   O1284859   1.320   0.175  10.807
11861POPC   O1184860   1.293   0.004  10.983
11861POPC    C184861   1.158  -0.007  10.940
11861POPC    HA84862   1.142  -0.112  10.908
11861POPC    HB84863   1.134   0.055  10.851
11861POPC    C284864   1.049   0.024  11.049
11861POPC    HS84865   0.954   0.020  10.992
11861POPC   O2184866   1.066   0.154  11.113
11861POPC   C2184867   0.956   0.187  11.183
11861POPC   O2284868   0.851   0.126  11.177
11861POPC   C2284869   0.976   0.317  11.263
11861POPC   H2R84870   0.963   0.400  11.192
11861POPC   H2S84871   1.078   0.321  11.305
11861POPC    C384872   1.047  -0.089  11.158
11861POPC    HX84873   1.095  -0.181  11.118
11861POPC    HY84874   0.939  -0.115  11.173
11861POPC   O3184875   1.100  -0.045  11.285
11861POPC   C3184876   1.219  -0.091  11.317
11861POPC   O3284877   1.274  -0.190  11.272
11861POPC   C3284878   1.277  -0.001  11.425
11861POPC   H2X84879   1.360  -0.055  11.474
11861POPC   H2Y84880   1.197   0.018  11.499
11861POPC   C2384881   0.872   0.335  11.378
11861POPC   H3R84882   0.803   0.249  11.379
11861POPC   H3S84883   0.808   0.424  11.355
11861POPC   C2484884   0.929   0.353  11.520
11861POPC   H4R84885   0.854   0.406  11.584
11861POPC   H4S84886   1.018   0.418  11.514
11861POPC   C2584887   0.966   0.221  11.591
11861POPC   H5R84888   1.068   0.231  11.633
11861POPC   H5S84889   0.971   0.139  11.516
11861POPC   C2684890   0.884   0.177  11.715
11861POPC   H6R84891   0.775   0.172  11.694
11861POPC   H6S84892   0.901   0.251  11.796
11861POPC   C2784893   0.937   0.039  11.759
11861POPC   H7R84894   1.048   0.041  11.743
11861POPC   H7S84895   0.896  -0.039  11.692
11861POPC   C2884896   0.912  -0.004  11.905
11861POPC   H8R84897   0.804  -0.025  11.919
11861POPC   H8S84898   0.938   0.081  11.971
11861POPC   C2984899   0.993  -0.125  11.940
11861POPC   H9184900   0.937  -0.220  11.945
11861POPC  C21084901   1.126  -0.126  11.965
11861POPC  H10184902   1.176  -0.221  11.989
11861POPC  C21184903   1.215  -0.005  11.962
11861POPC  H11R84904   1.157   0.090  11.958
11861POPC  H11S84905   1.277  -0.007  11.869
11861POPC  C21284906   1.314   0.005  12.081
11861POPC  H12R84907   1.368   0.102  12.071
11861POPC  H12S84908   1.390  -0.075  12.068
11861POPC  C21384909   1.256  -0.005  12.224
11861POPC  H13R84910   1.190  -0.095  12.231
11861POPC  H13S84911   1.192   0.084  12.243
11861POPC  C21484912   1.371  -0.018  12.326
11861POPC  H14R84913   1.452   0.051  12.294
11861POPC  H14S84914   1.411  -0.121  12.315
11861POPC  C21584915   1.349   0.006  12.477
11861POPC  H15R84916   1.267  -0.054  12.517
11861POPC  H15S84917   1.316   0.107  12.500
11861POPC  C21684918   1.480  -0.027  12.552
11861POPC  H16R84919   1.564   0.020  12.495
11861POPC  H16S84920   1.493  -0.137  12.545
11861POPC  C21784921   1.496   0.018  12.699
11861POPC  H17R84922   1.471   0.124  12.711
11861POPC  H17S84923   1.604   0.011  12.726
11861POPC  C21884924   1.419  -0.066  12.801
11861POPC  H18R84925   1.313  -0.078  12.770
11861POPC  H18S84926   1.422  -0.020  12.901
11861POPC  H18T84927   1.464  -0.167  12.810
11861POPC   C3384928   1.328   0.130  11.362
11861POPC   H3X84929   1.242   0.187  11.320
11861POPC   H3Y84930   1.396   0.108  11.276
11861POPC   C3484931   1.404   0.219  11.461
11861POPC   H4X84932   1.435   0.312  11.409
11861POPC   H4Y84933   1.495   0.165  11.495
11861POPC   C3584934   1.316   0.255  11.580
11861POPC   H5X84935   1.289   0.163  11.637
11861POPC   H5Y84936   1.223   0.299  11.537
11861POPC   C3684937   1.372   0.357  11.679
11861POPC   H6X84938   1.379   0.455  11.627
11861POPC   H6Y84939   1.474   0.329  11.713
11861POPC   C3784940   1.278   0.369  11.800
11861POPC   H7X84941   1.297   0.284  11.868
11861POPC   H7Y84942   1.173   0.363  11.766
11861POPC   C3884943   1.293   0.503  11.871
11861POPC   H8X84944   1.264   0.579  11.795
11861POPC   H8Y84945   1.399   0.521  11.897
11861POPC   C3984946   1.203   0.518  11.994
11861POPC   H9X84947   1.097   0.503  11.965
11861POPC   H9Y84948   1.212   0.621  12.036
11861POPC  C31084949   1.239   0.419  12.105
11861POPC  H10X84950   1.237   0.315  12.068
11861POPC  H10Y84951   1.162   0.426  12.185
11861POPC  C31184952   1.377   0.452  12.163
11861POPC  H11X84953   1.376   0.553  12.209
11861POPC  H11Y84954   1.455   0.452  12.083
11861POPC  C31284955   1.423   0.351  12.266
11861POPC  H12X84956   1.515   0.389  12.313
11861POPC  H12Y84957   1.449   0.255  12.215
11861POPC  C31384958   1.326   0.324  12.379
11861POPC  H13X84959   1.393   0.275  12.452
11861POPC  H13Y84960   1.246   0.254  12.348
11861POPC  C31484961   1.262   0.446  12.446
11861POPC  H14X84962   1.183   0.490  12.382
11861POPC  H14Y84963   1.340   0.523  12.462
11861POPC  C31584964   1.203   0.405  12.581
11861POPC  H15X84965   1.128   0.324  12.565
11861POPC  H15Y84966   1.148   0.492  12.624
11861POPC  C31684967   1.311   0.356  12.678
11861POPC  H16X84968   1.274   0.357  12.783
11861POPC  H16Y84969   1.403   0.417  12.674
11861POPC  H16Z84970   1.340   0.254  12.651
11862POPC     N84971   0.725   0.734  10.704
11862POPC   C1284972   0.625   0.849  10.693
11862POPC  H12A84973   0.623   0.884  10.590
11862POPC  H12B84974   0.663   0.931  10.754
11862POPC   C1384975   0.781   0.731  10.844
11862POPC  H13A84976   0.861   0.661  10.854
11862POPC  H13B84977   0.815   0.831  10.872
11862POPC  H13C84978   0.703   0.709  10.916
11862POPC   C1484979   0.662   0.601  10.672
11862POPC  H14A84980   0.734   0.520  10.682
11862POPC  H14B84981   0.583   0.580  10.742
11862POPC  H14C84982   0.621   0.599  10.572
11862POPC   C1584983   0.835   0.759  10.606
11862POPC  H15A84984   0.799   0.755  10.503
11862POPC  H15B84985   0.914   0.687  10.614
11862POPC  H15C84986   0.878   0.858  10.619
11862POPC   C1184987   0.474   0.834  10.732
11862POPC  H11A84988   0.432   0.750  10.672
11862POPC  H11B84989   0.422   0.927  10.701
11862POPC     P84990   0.495   0.915  10.978
11862POPC   O1384991   0.628   0.968  10.940
11862POPC   O1484992   0.487   0.840  11.103
11862POPC   O1284993   0.444   0.812  10.869
11862POPC   O1184994   0.386   1.037  10.972
11862POPC    C184995   0.255   1.027  11.027
11862POPC    HA84996   0.257   0.944  11.098
11862POPC    HB84997   0.194   0.993  10.941
11862POPC    C284998   0.158   1.146  11.092
11862POPC    HS84999   0.150   1.225  11.015
11862POPC   O2185000   0.161   1.215  11.224
11862POPC   C2185001   0.187   1.279  11.347
11862POPC   O2285002   0.089   1.304  11.416
11862POPC   C2285003   0.323   1.334  11.417
11862POPC   H2R85004   0.295   1.437  11.441
11862POPC   H2S85005   0.403   1.347  11.348
11862POPC    C385006   0.018   1.070  11.097
11862POPC    HX85007  -0.050   1.110  11.020
11862POPC    HY85008  -0.034   1.097  11.192
11862POPC   O3185009   0.030   0.924  11.080
11862POPC   C3185010   0.057   0.860  11.197
11862POPC   O3285011   0.042   0.910  11.305
11862POPC   C3285012   0.125   0.724  11.174
11862POPC   H2X85013   0.202   0.734  11.095
11862POPC   H2Y85014   0.047   0.653  11.137
11862POPC   C2385015   0.373   1.289  11.563
11862POPC   H3R85016   0.394   1.183  11.557
11862POPC   H3S85017   0.287   1.307  11.632
11862POPC   C2485018   0.498   1.333  11.648
11862POPC   H4R85019   0.465   1.325  11.754
11862POPC   H4S85020   0.516   1.441  11.643
11862POPC   C2585021   0.625   1.240  11.642
11862POPC   H5R85022   0.711   1.294  11.599
11862POPC   H5S85023   0.608   1.156  11.572
11862POPC   C2685024   0.672   1.180  11.779
11862POPC   H6R85025   0.610   1.090  11.800
11862POPC   H6S85026   0.652   1.254  11.859
11862POPC   C2785027   0.821   1.137  11.792
11862POPC   H7R85028   0.888   1.220  11.759
11862POPC   H7S85029   0.840   1.051  11.725
11862POPC   C2885030   0.863   1.093  11.936
11862POPC   H8R85031   0.964   1.046  11.930
11862POPC   H8S85032   0.794   1.012  11.969
11862POPC   C2985033   0.871   1.205  12.037
11862POPC   H9185034   0.963   1.266  12.031
11862POPC  C21085035   0.782   1.236  12.133
11862POPC  H10185036   0.803   1.322  12.199
11862POPC  C21185037   0.653   1.166  12.165
11862POPC  H11R85038   0.651   1.142  12.274
11862POPC  H11S85039   0.641   1.069  12.112
11862POPC  C21285040   0.530   1.253  12.137
11862POPC  H12R85041   0.499   1.237  12.032
11862POPC  H12S85042   0.553   1.362  12.147
11862POPC  C21385043   0.418   1.218  12.234
11862POPC  H13R85044   0.407   1.108  12.242
11862POPC  H13S85045   0.323   1.261  12.195
11862POPC  C21485046   0.444   1.280  12.372
11862POPC  H14R85047   0.464   1.382  12.344
11862POPC  H14S85048   0.533   1.240  12.424
11862POPC  C21585049   0.322   1.281  12.461
11862POPC  H15R85050   0.319   1.185  12.518
11862POPC  H15S85051   0.236   1.285  12.391
11862POPC  C21685052   0.290   1.399  12.553
11862POPC  H16R85053   0.252   1.483  12.491
11862POPC  H16S85054   0.375   1.435  12.613
11862POPC  C21785055   0.183   1.349  12.649
11862POPC  H17R85056   0.122   1.273  12.598
11862POPC  H17S85057   0.113   1.430  12.675
11862POPC  C21885058   0.246   1.284  12.773
11862POPC  H18R85059   0.232   1.173  12.769
11862POPC  H18S85060   0.201   1.324  12.866
11862POPC  H18T85061   0.355   1.301  12.774
11862POPC   C3385062   0.190   0.665  11.303
11862POPC   H3X85063   0.158   0.559  11.312
11862POPC   H3Y85064   0.151   0.713  11.395
11862POPC   C3485065   0.345   0.671  11.306
11862POPC   H4X85066   0.377   0.773  11.322
11862POPC   H4Y85067   0.391   0.646  11.209
11862POPC   C3585068   0.416   0.595  11.418
11862POPC   H5X85069   0.525   0.619  11.411
11862POPC   H5Y85070   0.407   0.485  11.405
11862POPC   C3685071   0.368   0.634  11.557
11862POPC   H6X85072   0.261   0.607  11.569
11862POPC   H6Y85073   0.380   0.744  11.568
11862POPC   C3785074   0.454   0.563  11.661
11862POPC   H7X85075   0.560   0.593  11.650
11862POPC   H7Y85076   0.447   0.454  11.638
11862POPC   C3885077   0.406   0.588  11.803
11862POPC   H8X85078   0.434   0.500  11.865
11862POPC   H8Y85079   0.295   0.596  11.805
11862POPC   C3985080   0.471   0.705  11.874
11862POPC   H9X85081   0.438   0.803  11.836
11862POPC   H9Y85082   0.582   0.702  11.863
11862POPC  C31085083   0.433   0.692  12.021
11862POPC  H10X85084   0.487   0.607  12.066
11862POPC  H10Y85085   0.324   0.669  12.026
11862POPC  C31185086   0.457   0.819  12.101
11862POPC  H11X85087   0.416   0.906  12.047
11862POPC  H11Y85088   0.566   0.838  12.114
11862POPC  C31285089   0.387   0.803  12.235
11862POPC  H12X85090   0.290   0.750  12.222
11862POPC  H12Y85091   0.364   0.903  12.276
11862POPC  C31385092   0.477   0.727  12.333
11862POPC  H13X85093   0.525   0.640  12.284
11862POPC  H13Y85094   0.417   0.685  12.417
11862POPC  C31485095   0.582   0.824  12.386
11862POPC  H14X85096   0.549   0.930  12.378
11862POPC  H14Y85097   0.668   0.814  12.318
11862POPC  C31585098   0.624   0.798  12.530
11862POPC  H15X85099   0.734   0.807  12.537
11862POPC  H15Y85100   0.608   0.692  12.550
11862POPC  C31685101   0.554   0.885  12.636
11862POPC  H16X85102   0.608   0.878  12.733
11862POPC  H16Y85103   0.450   0.850  12.652
11862POPC  H16Z85104   0.551   0.992  12.607
11863POPC     N85105   0.067   1.305  10.680
11863POPC   C1285106   0.050   1.449  10.724
11863POPC  H12A85107   0.096   1.514  10.651
11863POPC  H12B85108   0.106   1.464  10.818
11863POPC   C1385109   0.009   1.217  10.785
11863POPC  H13A85110   0.030   1.113  10.771
11863POPC  H13B85111   0.037   1.252  10.883
11863POPC  H13C85112  -0.099   1.230  10.785
11863POPC   C1485113  -0.010   1.281  10.556
11863POPC  H14A85114   0.004   1.362  10.485
11863POPC  H14B85115   0.018   1.188  10.507
11863POPC  H14C85116  -0.116   1.277  10.579
11863POPC   C1585117   0.212   1.271  10.662
11863POPC  H15A85118   0.223   1.164  10.653
11863POPC  H15B85119   0.270   1.300  10.750
11863POPC  H15C85120   0.255   1.318  10.575
11863POPC   C1185121  -0.094   1.499  10.749
11863POPC  H11A85122  -0.156   1.480  10.660
11863POPC  H11B85123  -0.094   1.609  10.766
11863POPC     P85124  -0.107   1.463  11.008
11863POPC   O1385125  -0.123   1.338  11.084
11863POPC   O1485126  -0.179   1.585  11.051
11863POPC   O1285127  -0.153   1.433  10.859
11863POPC   O1185128   0.053   1.494  10.999
11863POPC    C185129   0.105   1.552  11.119
11863POPC    HA85130   0.073   1.497  11.211
11863POPC    HB85131   0.064   1.656  11.127
11863POPC    C285132   0.262   1.569  11.134
11863POPC    HS85133   0.302   1.616  11.042
11863POPC   O2185134   0.336   1.447  11.167
11863POPC   C2185135   0.374   1.358  11.074
11863POPC   O2285136   0.349   1.373  10.954
11863POPC   C2285137   0.471   1.243  11.131
11863POPC   H2R85138   0.566   1.296  11.140
11863POPC   H2S85139   0.506   1.191  11.042
11863POPC    C385140   0.273   1.677  11.250
11863POPC    HX85141   0.216   1.767  11.220
11863POPC    HY85142   0.378   1.708  11.264
11863POPC   O3185143   0.220   1.624  11.373
11863POPC   C3185144   0.155   1.698  11.462
11863POPC   O3285145   0.135   1.818  11.455
11863POPC   C3285146   0.119   1.613  11.584
11863POPC   H2X85147   0.132   1.506  11.562
11863POPC   H2Y85148   0.011   1.631  11.605
11863POPC   C2385149   0.471   1.142  11.262
11863POPC   H3R85150   0.515   1.185  11.353
11863POPC   H3S85151   0.555   1.076  11.228
11863POPC   C2485152   0.364   1.034  11.311
11863POPC   H4R85153   0.421   0.946  11.281
11863POPC   H4S85154   0.269   1.026  11.263
11863POPC   C2585155   0.319   0.990  11.455
11863POPC   H5R85156   0.405   0.983  11.523
11863POPC   H5S85157   0.282   0.886  11.442
11863POPC   C2685158   0.187   1.043  11.520
11863POPC   H6R85159   0.109   1.061  11.445
11863POPC   H6S85160   0.196   1.140  11.568
11863POPC   C2785161   0.129   0.954  11.631
11863POPC   H7R85162   0.102   0.855  11.588
11863POPC   H7S85163   0.034   1.001  11.667
11863POPC   C2885164   0.226   0.933  11.747
11863POPC   H8R85165   0.305   0.868  11.707
11863POPC   H8S85166   0.172   0.874  11.825
11863POPC   C2985167   0.290   1.058  11.802
11863POPC   H9185168   0.358   1.109  11.732
11863POPC  C21085169   0.278   1.107  11.926
11863POPC  H10185170   0.318   1.206  11.950
11863POPC  C21185171   0.194   1.040  12.030
11863POPC  H11R85172   0.222   1.071  12.132
11863POPC  H11S85173   0.205   0.929  12.028
11863POPC  C21285174   0.048   1.074  12.002
11863POPC  H12R85175  -0.012   0.985  12.030
11863POPC  H12S85176   0.033   1.088  11.893
11863POPC  C21385177  -0.002   1.197  12.075
11863POPC  H13R85178  -0.105   1.221  12.041
11863POPC  H13S85179   0.061   1.284  12.043
11863POPC  C21485180   0.002   1.187  12.229
11863POPC  H14R85181  -0.080   1.247  12.274
11863POPC  H14S85182   0.096   1.241  12.254
11863POPC  C21585183   0.012   1.048  12.297
11863POPC  H15R85184   0.033   0.963  12.230
11863POPC  H15S85185  -0.084   1.025  12.350
11863POPC  C21685186   0.127   1.055  12.397
11863POPC  H16R85187   0.103   1.151  12.447
11863POPC  H16S85188   0.225   1.064  12.347
11863POPC  C21785189   0.135   0.959  12.515
11863POPC  H17R85190   0.031   0.931  12.532
11863POPC  H17S85191   0.174   1.016  12.603
11863POPC  C21885192   0.211   0.828  12.506
11863POPC  H18R85193   0.315   0.851  12.479
11863POPC  H18S85194   0.164   0.761  12.431
11863POPC  H18T85195   0.212   0.777  12.605
11863POPC   C3385196   0.203   1.656  11.706
11863POPC   H3X85197   0.188   1.765  11.723
11863POPC   H3Y85198   0.311   1.639  11.687
11863POPC   C3485199   0.164   1.583  11.834
11863POPC   H4X85200   0.202   1.479  11.830
11863POPC   H4Y85201   0.053   1.579  11.845
11863POPC   C3585202   0.221   1.655  11.957
11863POPC   H5X85203   0.160   1.745  11.980
11863POPC   H5Y85204   0.323   1.692  11.930
11863POPC   C3685205   0.233   1.564  12.079
11863POPC   H6X85206   0.297   1.615  12.154
11863POPC   H6Y85207   0.280   1.467  12.052
11863POPC   C3785208   0.099   1.542  12.149
11863POPC   H7X85209   0.107   1.457  12.221
11863POPC   H7Y85210   0.022   1.517  12.074
11863POPC   C3885211   0.061   1.668  12.227
11863POPC   H8X85212   0.125   1.753  12.194
11863POPC   H8Y85213   0.085   1.652  12.334
11863POPC   C3985214  -0.084   1.712  12.205
11863POPC   H9X85215  -0.105   1.717  12.095
11863POPC   H9Y85216  -0.097   1.815  12.245
11863POPC  C31085217  -0.188   1.623  12.275
11863POPC  H10X85218  -0.191   1.524  12.224
11863POPC  H10Y85219  -0.288   1.671  12.261
11863POPC  C31185220  -0.161   1.604  12.425
11863POPC  H11X85221  -0.078   1.530  12.436
11863POPC  H11Y85222  -0.251   1.560  12.473
11863POPC  C31285223  -0.120   1.733  12.499
11863POPC  H12X85224  -0.196   1.812  12.484
11863POPC  H12Y85225  -0.028   1.774  12.453
11863POPC  C31385226  -0.090   1.714  12.648
11863POPC  H13X85227  -0.067   1.606  12.663
11863POPC  H13Y85228  -0.181   1.737  12.708
11863POPC  C31485229   0.028   1.802  12.693
11863POPC  H14X85230  -0.002   1.909  12.688
11863POPC  H14Y85231   0.109   1.788  12.618
11863POPC  C31585232   0.089   1.771  12.831
11863POPC  H15X85233   0.009   1.778  12.909
11863POPC  H15Y85234   0.167   1.847  12.855
11863POPC  C31685235   0.149   1.631  12.837
11863POPC  H16X85236   0.197   1.607  12.934
11863POPC  H16Y85237   0.226   1.617  12.760
11863POPC  H16Z85238   0.067   1.559  12.816
11864POPC     N85239   9.490   8.428  10.659
11864POPC   C1285240   9.520   8.307  10.748
11864POPC  H12A85241   9.563   8.228  10.688
11864POPC  H12B85242   9.427   8.268  10.788
11864POPC   C1385243   9.408   8.387  10.542
11864POPC  H13A85244   9.307   8.363  10.573
11864POPC  H13B85245   9.399   8.471  10.472
11864POPC  H13C85246   9.448   8.303  10.488
11864POPC   C1485247   9.416   8.533  10.736
11864POPC  H14A85248   9.315   8.503  10.760
11864POPC  H14B85249   9.466   8.547  10.833
11864POPC  H14C85250   9.414   8.628  10.685
11864POPC   C1585251   9.619   8.490  10.614
11864POPC  H15A85252   9.677   8.421  10.555
11864POPC  H15B85253   9.677   8.520  10.701
11864POPC  H15C85254   9.602   8.578  10.552
11864POPC   C1185255   9.612   8.331  10.869
11864POPC  H11A85256   9.711   8.371  10.839
11864POPC  H11B85257   9.629   8.233  10.921
11864POPC     P85258   9.578   8.440  11.106
11864POPC   O1385259   9.670   8.554  11.118
11864POPC   O1485260   9.614   8.309  11.166
11864POPC   O1285261   9.546   8.423  10.953
11864POPC   O1185262   9.435   8.477  11.161
11864POPC    C185263   9.325   8.508  11.076
11864POPC    HA85264   9.299   8.422  11.011
11864POPC    HB85265   9.351   8.595  11.011
11864POPC    C285266   9.199   8.547  11.159
11864POPC    HS85267   9.134   8.613  11.097
11864POPC   O2185268   9.228   8.619  11.281
11864POPC   C2185269   9.326   8.710  11.278
11864POPC   O2285270   9.376   8.759  11.179
11864POPC   C2285271   9.365   8.749  11.420
11864POPC   H2R85272   9.293   8.824  11.459
11864POPC   H2S85273   9.466   8.795  11.415
11864POPC    C385274   9.115   8.419  11.194
11864POPC    HX85275   9.055   8.390  11.105
11864POPC    HY85276   9.043   8.449  11.274
11864POPC   O3185277   9.200   8.309  11.231
11864POPC   C3185278   9.172   8.249  11.346
11864POPC   O3285279   9.065   8.255  11.404
11864POPC   C3285280   9.296   8.182  11.404
11864POPC   H2X85281   9.374   8.169  11.327
11864POPC   H2Y85282   9.265   8.084  11.442
11864POPC   C2385283   9.372   8.625  11.512
11864POPC   H3R85284   9.439   8.550  11.463
11864POPC   H3S85285   9.271   8.581  11.521
11864POPC   C2485286   9.427   8.656  11.652
11864POPC   H4R85287   9.368   8.739  11.694
11864POPC   H4S85288   9.533   8.690  11.644
11864POPC   C2585289   9.417   8.532  11.742
11864POPC   H5R85290   9.518   8.495  11.769
11864POPC   H5S85291   9.366   8.453  11.685
11864POPC   C2685292   9.332   8.553  11.868
11864POPC   H6R85293   9.315   8.456  11.919
11864POPC   H6S85294   9.232   8.594  11.838
11864POPC   C2785295   9.403   8.649  11.962
11864POPC   H7R85296   9.428   8.741  11.903
11864POPC   H7S85297   9.499   8.603  11.995
11864POPC   C2885298   9.319   8.686  12.084
11864POPC   H8R85299   9.304   8.598  12.150
11864POPC   H8S85300   9.219   8.722  12.052
11864POPC   C2985301   9.395   8.798  12.149
11864POPC   H9185302   9.419   8.881  12.081
11864POPC  C21085303   9.439   8.806  12.274
11864POPC  H10185304   9.488   8.899  12.303
11864POPC  C21185305   9.427   8.710  12.387
11864POPC  H11R85306   9.528   8.675  12.419
11864POPC  H11S85307   9.365   8.621  12.364
11864POPC  C21285308   9.363   8.790  12.501
11864POPC  H12R85309   9.409   8.891  12.514
11864POPC  H12S85310   9.387   8.735  12.594
11864POPC  C21385311   9.212   8.806  12.482
11864POPC  H13R85312   9.174   8.718  12.424
11864POPC  H13S85313   9.190   8.896  12.420
11864POPC  C21485314   9.137   8.808  12.615
11864POPC  H14R85315   9.029   8.826  12.596
11864POPC  H14S85316   9.172   8.897  12.672
11864POPC  C21585317   9.164   8.677  12.692
11864POPC  H15R85318   9.259   8.691  12.749
11864POPC  H15S85319   9.183   8.598  12.615
11864POPC  C21685320   9.062   8.620  12.791
11864POPC  H16R85321   8.957   8.647  12.765
11864POPC  H16S85322   9.084   8.663  12.891
11864POPC  C21785323   9.077   8.469  12.808
11864POPC  H17R85324   9.033   8.439  12.906
11864POPC  H17S85325   9.185   8.443  12.812
11864POPC  C21885326   9.007   8.390  12.699
11864POPC  H18R85327   9.011   8.280  12.717
11864POPC  H18S85328   9.052   8.412  12.600
11864POPC  H18T85329   8.900   8.421  12.696
11864POPC   C3385330   9.348   8.269  11.521
11864POPC   H3X85331   9.262   8.325  11.566
11864POPC   H3Y85332   9.420   8.343  11.480
11864POPC   C3485333   9.412   8.192  11.638
11864POPC   H4X85334   9.468   8.265  11.700
11864POPC   H4Y85335   9.487   8.119  11.599
11864POPC   C3585336   9.308   8.122  11.725
11864POPC   H5X85337   9.259   8.042  11.665
11864POPC   H5Y85338   9.227   8.194  11.754
11864POPC   C3685339   9.366   8.060  11.853
11864POPC   H6X85340   9.457   8.001  11.826
11864POPC   H6Y85341   9.290   7.990  11.893
11864POPC   C3785342   9.401   8.160  11.964
11864POPC   H7X85343   9.314   8.227  11.982
11864POPC   H7Y85344   9.487   8.223  11.932
11864POPC   C3885345   9.434   8.084  12.092
11864POPC   H8X85346   9.519   8.016  12.071
11864POPC   H8Y85347   9.348   8.019  12.119
11864POPC   C3985348   9.468   8.171  12.214
11864POPC   H9X85349   9.505   8.103  12.295
11864POPC   H9Y85350   9.375   8.220  12.251
11864POPC  C31085351   9.574   8.279  12.188
11864POPC  H10X85352   9.526   8.366  12.138
11864POPC  H10Y85353   9.650   8.240  12.118
11864POPC  C31185354   9.642   8.326  12.318
11864POPC  H11X85355   9.707   8.413  12.294
11864POPC  H11Y85356   9.709   8.245  12.356
11864POPC  C31285357   9.544   8.363  12.430
11864POPC  H12X85358   9.490   8.273  12.465
11864POPC  H12Y85359   9.469   8.435  12.391
11864POPC  C31385360   9.616   8.426  12.550
11864POPC  H13X85361   9.668   8.518  12.515
11864POPC  H13Y85362   9.693   8.355  12.587
11864POPC  C31485363   9.525   8.465  12.667
11864POPC  H14X85364   9.478   8.374  12.710
11864POPC  H14Y85365   9.443   8.530  12.629
11864POPC  C31585366   9.604   8.539  12.776
11864POPC  H15X85367   9.665   8.619  12.728
11864POPC  H15Y85368   9.675   8.466  12.822
11864POPC  C31685369   9.521   8.600  12.889
11864POPC  H16X85370   9.454   8.680  12.850
11864POPC  H16Y85371   9.588   8.644  12.966
11864POPC  H16Z85372   9.458   8.521  12.937
11865POPC     N85373   8.134   0.164  10.803
11865POPC   C1285374   8.169   0.311  10.806
11865POPC  H12A85375   8.082   0.367  10.834
11865POPC  H12B85376   8.198   0.337  10.705
11865POPC   C1385377   8.249   0.094  10.738
11865POPC  H13A85378   8.267   0.133  10.639
11865POPC  H13B85379   8.338   0.122  10.795
11865POPC  H13C85380   8.240  -0.013  10.739
11865POPC   C1485381   8.121   0.114  10.944
11865POPC  H14A85382   8.215   0.133  10.996
11865POPC  H14B85383   8.043   0.168  10.997
11865POPC  H14C85384   8.100   0.008  10.945
11865POPC   C1585385   8.010   0.134  10.726
11865POPC  H15A85386   7.979   0.030  10.740
11865POPC  H15B85387   8.019   0.147  10.618
11865POPC  H15C85388   7.926   0.195  10.757
11865POPC   C1185389   8.289   0.359  10.890
11865POPC  H11A85390   8.275   0.329  10.997
11865POPC  H11B85391   8.291   0.470  10.888
11865POPC     P85392   8.519   0.246  10.924
11865POPC   O1385393   8.544   0.348  11.029
11865POPC   O1485394   8.627   0.196  10.837
11865POPC   O1285395   8.410   0.312  10.829
11865POPC   O1185396   8.429   0.126  10.978
11865POPC    C185397   8.446  -0.010  10.941
11865POPC    HA85398   8.503  -0.023  10.845
11865POPC    HB85399   8.345  -0.055  10.926
11865POPC    C285400   8.511  -0.097  11.050
11865POPC    HS85401   8.482  -0.204  11.029
11865POPC   O2185402   8.474  -0.058  11.182
11865POPC   C2185403   8.363  -0.103  11.227
11865POPC   O2285404   8.281  -0.169  11.165
11865POPC   C2285405   8.361  -0.077  11.377
11865POPC   H2R85406   8.433   0.004  11.400
11865POPC   H2S85407   8.396  -0.170  11.428
11865POPC    C385408   8.663  -0.090  11.046
11865POPC    HX85409   8.697  -0.085  10.941
11865POPC    HY85410   8.700  -0.187  11.089
11865POPC   O3185411   8.714   0.024  11.117
11865POPC   C3185412   8.738   0.003  11.245
11865POPC   O3285413   8.719  -0.101  11.307
11865POPC   C3285414   8.788   0.131  11.311
11865POPC   H2X85415   8.719   0.213  11.282
11865POPC   H2Y85416   8.888   0.154  11.269
11865POPC   C2385417   8.224  -0.036  11.433
11865POPC   H3R85418   8.149  -0.116  11.414
11865POPC   H3S85419   8.188   0.057  11.383
11865POPC   C2485420   8.235  -0.012  11.584
11865POPC   H4R85421   8.315   0.061  11.606
11865POPC   H4S85422   8.264  -0.109  11.632
11865POPC   C2585423   8.102   0.036  11.643
11865POPC   H5R85424   8.023  -0.032  11.605
11865POPC   H5S85425   8.078   0.138  11.608
11865POPC   C2685426   8.100   0.029  11.795
11865POPC   H6R85427   8.156  -0.062  11.828
11865POPC   H6S85428   7.996   0.017  11.831
11865POPC   C2785429   8.162   0.154  11.856
11865POPC   H7R85430   8.252   0.180  11.797
11865POPC   H7S85431   8.194   0.130  11.959
11865POPC   C2885432   8.072   0.278  11.863
11865POPC   H8R85433   8.067   0.324  11.762
11865POPC   H8S85434   8.125   0.352  11.929
11865POPC   C2985435   7.933   0.253  11.915
11865POPC   H9185436   7.854   0.256  11.839
11865POPC  C21085437   7.900   0.228  12.043
11865POPC  H10185438   7.794   0.216  12.070
11865POPC  C21185439   7.996   0.222  12.158
11865POPC  H11R85440   8.101   0.208  12.124
11865POPC  H11S85441   7.973   0.133  12.222
11865POPC  C21285442   7.994   0.348  12.245
11865POPC  H12R85443   7.890   0.363  12.285
11865POPC  H12S85444   8.020   0.437  12.183
11865POPC  C21385445   8.092   0.341  12.362
11865POPC  H13R85446   8.078   0.244  12.416
11865POPC  H13S85447   8.068   0.424  12.433
11865POPC  C21485448   8.239   0.358  12.323
11865POPC  H14R85449   8.251   0.453  12.266
11865POPC  H14S85450   8.269   0.275  12.256
11865POPC  C21585451   8.330   0.360  12.446
11865POPC  H15R85452   8.295   0.281  12.517
11865POPC  H15S85453   8.319   0.458  12.498
11865POPC  C21685454   8.477   0.332  12.413
11865POPC  H16R85455   8.514   0.411  12.344
11865POPC  H16S85456   8.483   0.235  12.358
11865POPC  C21785457   8.568   0.325  12.536
11865POPC  H17R85458   8.673   0.316  12.501
11865POPC  H17S85459   8.544   0.232  12.593
11865POPC  C21885460   8.557   0.443  12.633
11865POPC  H18R85461   8.636   0.437  12.711
11865POPC  H18S85462   8.458   0.443  12.684
11865POPC  H18T85463   8.569   0.539  12.579
11865POPC   C3385464   8.793   0.114  11.465
11865POPC   H3X85465   8.880   0.172  11.502
11865POPC   H3Y85466   8.813   0.009  11.497
11865POPC   C3485467   8.664   0.165  11.530
11865POPC   H4X85468   8.579   0.101  11.500
11865POPC   H4Y85469   8.643   0.267  11.493
11865POPC   C3585470   8.671   0.168  11.683
11865POPC   H5X85471   8.767   0.125  11.717
11865POPC   H5Y85472   8.590   0.103  11.722
11865POPC   C3685473   8.655   0.310  11.741
11865POPC   H6X85474   8.553   0.350  11.718
11865POPC   H6Y85475   8.728   0.377  11.692
11865POPC   C3785476   8.682   0.314  11.892
11865POPC   H7X85477   8.745   0.400  11.919
11865POPC   H7Y85478   8.743   0.225  11.918
11865POPC   C3885479   8.556   0.316  11.979
11865POPC   H8X85480   8.488   0.397  11.948
11865POPC   H8Y85481   8.584   0.333  12.086
11865POPC   C3985482   8.473   0.190  11.966
11865POPC   H9X85483   8.439   0.186  11.860
11865POPC   H9Y85484   8.384   0.198  12.031
11865POPC  C31085485   8.548   0.060  11.995
11865POPC  H10X85486   8.585   0.059  12.099
11865POPC  H10Y85487   8.638   0.052  11.930
11865POPC  C31185488   8.461  -0.060  11.960
11865POPC  H11X85489   8.526  -0.149  11.957
11865POPC  H11Y85490   8.417  -0.047  11.859
11865POPC  C31285491   8.350  -0.091  12.062
11865POPC  H12X85492   8.300  -0.186  12.031
11865POPC  H12Y85493   8.274  -0.012  12.062
11865POPC  C31385494   8.403  -0.105  12.204
11865POPC  H13X85495   8.449  -0.010  12.240
11865POPC  H13Y85496   8.482  -0.182  12.203
11865POPC  C31485497   8.293  -0.146  12.301
11865POPC  H14X85498   8.340  -0.189  12.392
11865POPC  H14Y85499   8.233  -0.227  12.253
11865POPC  C31585500   8.202  -0.030  12.339
11865POPC  H15X85501   8.188   0.037  12.251
11865POPC  H15Y85502   8.250   0.034  12.417
11865POPC  C31685503   8.065  -0.078  12.385
11865POPC  H16X85504   8.074  -0.147  12.472
11865POPC  H16Y85505   8.015  -0.132  12.302
11865POPC  H16Z85506   8.001   0.008  12.414
11866POPC     N85507   8.989   8.794  10.793
11866POPC   C1285508   9.103   8.891  10.825
11866POPC  H12A85509   9.197   8.852  10.787
11866POPC  H12B85510   9.116   8.901  10.933
11866POPC   C1385511   8.862   8.849  10.851
11866POPC  H13A85512   8.867   8.853  10.959
11866POPC  H13B85513   8.856   8.953  10.819
11866POPC  H13C85514   8.773   8.796  10.820
11866POPC   C1485515   8.972   8.786  10.645
11866POPC  H14A85516   8.882   8.734  10.617
11866POPC  H14B85517   8.962   8.887  10.606
11866POPC  H14C85518   9.056   8.741  10.595
11866POPC   C1585519   9.015   8.659  10.849
11866POPC  H15A85520   8.925   8.598  10.844
11866POPC  H15B85521   9.045   8.667  10.953
11866POPC  H15C85522   9.093   8.606  10.794
11866POPC   C1185523   9.086   9.036  10.773
11866POPC  H11A85524   9.060   9.039  10.665
11866POPC  H11B85525   9.184   9.089  10.782
11866POPC     P85526   9.011   9.222  10.944
11866POPC   O1385527   8.925   9.202  11.061
11866POPC   O1485528   9.004   9.348  10.866
11866POPC   O1285529   8.984   9.100  10.847
11866POPC   O1185530   9.160   9.193  10.990
11866POPC    C185531   9.212   9.253  11.109
11866POPC    HA85532   9.190   9.363  11.109
11866POPC    HB85533   9.322   9.245  11.105
11866POPC    C285534   9.169   9.195  11.251
11866POPC    HS85535   9.261   9.154  11.298
11866POPC   O2185536   9.069   9.092  11.257
11866POPC   C2185537   9.083   8.983  11.185
11866POPC   O2285538   9.181   8.947  11.123
11866POPC   C2285539   8.954   8.900  11.190
11866POPC   H2R85540   8.971   8.813  11.124
11866POPC   H2S85541   8.872   8.963  11.148
11866POPC    C385542   9.120   9.314  11.338
11866POPC    HX85543   9.044   9.366  11.275
11866POPC    HY85544   9.200   9.388  11.356
11866POPC   O3185545   9.055   9.279  11.462
11866POPC   C3185546   9.120   9.205  11.548
11866POPC   O3285547   9.237   9.172  11.546
11866POPC   C3285548   9.024   9.159  11.656
11866POPC   H2X85549   8.929   9.215  11.650
11866POPC   H2Y85550   9.072   9.183  11.753
11866POPC   C2385551   8.914   8.850  11.330
11866POPC   H3R85552   8.866   8.937  11.380
11866POPC   H3S85553   9.003   8.821  11.390
11866POPC   C2485554   8.817   8.729  11.327
11866POPC   H4R85555   8.876   8.637  11.306
11866POPC   H4S85556   8.744   8.744  11.244
11866POPC   C2585557   8.738   8.709  11.457
11866POPC   H5R85558   8.808   8.699  11.543
11866POPC   H5S85559   8.681   8.614  11.452
11866POPC   C2685560   8.641   8.825  11.484
11866POPC   H6R85561   8.568   8.833  11.401
11866POPC   H6S85562   8.698   8.920  11.486
11866POPC   C2785563   8.564   8.814  11.617
11866POPC   H7R85564   8.634   8.781  11.697
11866POPC   H7S85565   8.490   8.734  11.606
11866POPC   C2885566   8.493   8.944  11.658
11866POPC   H8R85567   8.430   8.925  11.747
11866POPC   H8S85568   8.425   8.975  11.576
11866POPC   C2985569   8.597   9.049  11.685
11866POPC   H9185570   8.619   9.117  11.600
11866POPC  C21085571   8.667   9.061  11.799
11866POPC  H10185572   8.744   9.138  11.806
11866POPC  C21185573   8.651   8.970  11.920
11866POPC  H11R85574   8.683   8.866  11.897
11866POPC  H11S85575   8.543   8.964  11.947
11866POPC  C21285576   8.727   9.018  12.046
11866POPC  H12R85577   8.730   9.129  12.048
11866POPC  H12S85578   8.832   8.982  12.042
11866POPC  C21385579   8.663   8.970  12.178
11866POPC  H13R85580   8.686   8.862  12.189
11866POPC  H13S85581   8.553   8.977  12.170
11866POPC  C21485582   8.710   9.053  12.299
11866POPC  H14R85583   8.681   9.158  12.280
11866POPC  H14S85584   8.821   9.051  12.306
11866POPC  C21585585   8.650   9.014  12.436
11866POPC  H15R85586   8.542   8.993  12.425
11866POPC  H15S85587   8.659   9.103  12.502
11866POPC  C21685588   8.722   8.899  12.510
11866POPC  H16R85589   8.664   8.872  12.601
11866POPC  H16S85590   8.821   8.938  12.542
11866POPC  C21785591   8.749   8.775  12.425
11866POPC  H17R85592   8.815   8.805  12.341
11866POPC  H17S85593   8.652   8.739  12.383
11866POPC  C21885594   8.817   8.658  12.495
11866POPC  H18R85595   8.904   8.686  12.556
11866POPC  H18S85596   8.853   8.587  12.417
11866POPC  H18T85597   8.747   8.607  12.563
11866POPC   C3385598   9.001   9.007  11.640
11866POPC   H3X85599   9.087   8.957  11.589
11866POPC   H3Y85600   8.912   8.995  11.574
11866POPC   C3485601   8.975   8.931  11.770
11866POPC   H4X85602   8.910   8.844  11.745
11866POPC   H4Y85603   8.920   8.994  11.841
11866POPC   C3585604   9.103   8.876  11.834
11866POPC   H5X85605   9.163   8.822  11.758
11866POPC   H5Y85606   9.073   8.801  11.911
11866POPC   C3685607   9.189   8.983  11.903
11866POPC   H6X85608   9.223   9.058  11.829
11866POPC   H6Y85609   9.280   8.934  11.942
11866POPC   C3785610   9.112   9.050  12.018
11866POPC   H7X85611   9.066   8.968  12.079
11866POPC   H7Y85612   9.030   9.113  11.978
11866POPC   C3885613   9.199   9.131  12.113
11866POPC   H8X85614   9.262   9.205  12.058
11866POPC   H8Y85615   9.265   9.055  12.160
11866POPC   C3985616   9.119   9.200  12.225
11866POPC   H9X85617   9.029   9.137  12.245
11866POPC   H9Y85618   9.084   9.299  12.189
11866POPC  C31085619   9.194   9.216  12.359
11866POPC  H10X85620   9.283   9.280  12.343
11866POPC  H10Y85621   9.229   9.117  12.394
11866POPC  C31185622   9.102   9.278  12.466
11866POPC  H11X85623   9.017   9.209  12.485
11866POPC  H11Y85624   9.059   9.372  12.422
11866POPC  C31285625   9.170   9.317  12.599
11866POPC  H12X85626   9.147   9.424  12.619
11866POPC  H12Y85627   9.279   9.310  12.587
11866POPC  C31385628   9.125   9.236  12.723
11866POPC  H13X85629   9.187   9.145  12.732
11866POPC  H13Y85630   9.021   9.203  12.702
11866POPC  C31485631   9.122   9.315  12.857
11866POPC  H14X85632   9.020   9.360  12.865
11866POPC  H14Y85633   9.190   9.401  12.846
11866POPC  C31585634   9.149   9.243  12.993
11866POPC  H15X85635   9.059   9.181  13.014
11866POPC  H15Y85636   9.147   9.320  13.073
11866POPC  C31685637   9.275   9.157  13.021
11866POPC  H16X85638   9.287   9.076  12.947
11866POPC  H16Y85639   9.269   9.111  13.122
11866POPC  H16Z85640   9.370   9.210  13.021
11867POPC     N85641   9.323   0.706  10.746
11867POPC   C1285642   9.308   0.563  10.799
11867POPC  H12A85643   9.315   0.563  10.909
11867POPC  H12B85644   9.388   0.501  10.761
11867POPC   C1385645   9.338   0.708  10.597
11867POPC  H13A85646   9.258   0.653  10.548
11867POPC  H13B85647   9.338   0.809  10.559
11867POPC  H13C85648   9.429   0.658  10.566
11867POPC   C1485649   9.195   0.776  10.779
11867POPC  H14A85650   9.183   0.782  10.886
11867POPC  H14B85651   9.184   0.874  10.733
11867POPC  H14C85652   9.112   0.713  10.747
11867POPC   C1585653   9.436   0.779  10.814
11867POPC  H15A85654   9.452   0.875  10.768
11867POPC  H15B85655   9.531   0.726  10.818
11867POPC  H15C85656   9.409   0.803  10.918
11867POPC   C1185657   9.174   0.488  10.772
11867POPC  H11A85658   9.191   0.377  10.776
11867POPC  H11B85659   9.137   0.510  10.672
11867POPC     P85660   9.070   0.466  11.009
11867POPC   O1385661   9.199   0.507  11.069
11867POPC   O1485662   9.037   0.322  11.010
11867POPC   O1285663   9.072   0.529  10.862
11867POPC   O1185664   8.951   0.547  11.076
11867POPC    C185665   8.819   0.528  11.024
11867POPC    HA85666   8.771   0.440  11.073
11867POPC    HB85667   8.819   0.508  10.914
11867POPC    C285668   8.727   0.652  11.044
11867POPC    HS85669   8.646   0.645  10.968
11867POPC   O2185670   8.798   0.778  11.031
11867POPC   C2185671   8.860   0.804  10.915
11867POPC   O2285672   8.833   0.755  10.807
11867POPC   C2285673   8.942   0.932  10.932
11867POPC   H2R85674   8.875   1.016  10.904
11867POPC   H2S85675   9.024   0.934  10.858
11867POPC    C385676   8.654   0.650  11.184
11867POPC    HX85677   8.594   0.555  11.181
11867POPC    HY85678   8.582   0.734  11.188
11867POPC   O3185679   8.740   0.660  11.299
11867POPC   C3185680   8.719   0.573  11.397
11867POPC   O3285681   8.624   0.496  11.405
11867POPC   C3285682   8.831   0.585  11.499
11867POPC   H2X85683   8.785   0.605  11.597
11867POPC   H2Y85684   8.894   0.671  11.470
11867POPC   C2385685   8.996   0.956  11.075
11867POPC   H3R85686   8.907   0.967  11.139
11867POPC   H3S85687   9.055   1.050  11.080
11867POPC   C2485688   9.075   0.840  11.134
11867POPC   H4R85689   9.171   0.827  11.082
11867POPC   H4S85690   9.018   0.748  11.114
11867POPC   C2585691   9.091   0.840  11.287
11867POPC   H5R85692   8.992   0.856  11.335
11867POPC   H5S85693   9.157   0.923  11.319
11867POPC   C2685694   9.146   0.704  11.335
11867POPC   H6R85695   9.216   0.666  11.257
11867POPC   H6S85696   9.063   0.630  11.335
11867POPC   C2785697   9.223   0.702  11.469
11867POPC   H7R85698   9.316   0.761  11.459
11867POPC   H7S85699   9.257   0.598  11.486
11867POPC   C2885700   9.149   0.761  11.590
11867POPC   H8R85701   9.045   0.723  11.591
11867POPC   H8S85702   9.142   0.871  11.571
11867POPC   C2985703   9.213   0.731  11.724
11867POPC   H9185704   9.267   0.635  11.730
11867POPC  C21085705   9.207   0.812  11.832
11867POPC  H10185706   9.253   0.778  11.927
11867POPC  C21185707   9.136   0.945  11.839
11867POPC  H11R85708   9.074   0.960  11.748
11867POPC  H11S85709   9.207   1.030  11.836
11867POPC  C21285710   9.042   0.957  11.961
11867POPC  H12R85711   8.979   0.867  11.960
11867POPC  H12S85712   8.978   1.047  11.947
11867POPC  C21385713   9.097   0.968  12.103
11867POPC  H13R85714   9.139   1.069  12.117
11867POPC  H13S85715   9.176   0.893  12.123
11867POPC  C21485716   8.986   0.954  12.207
11867POPC  H14R85717   8.899   1.017  12.178
11867POPC  H14S85718   9.023   0.992  12.305
11867POPC  C21585719   8.944   0.808  12.221
11867POPC  H15R85720   9.032   0.746  12.250
11867POPC  H15S85721   8.905   0.769  12.125
11867POPC  C21685722   8.836   0.792  12.326
11867POPC  H16R85723   8.795   0.688  12.319
11867POPC  H16S85724   8.755   0.865  12.306
11867POPC  C21785725   8.889   0.812  12.467
11867POPC  H17R85726   8.886   0.920  12.493
11867POPC  H17S85727   8.997   0.782  12.469
11867POPC  C21885728   8.812   0.727  12.567
11867POPC  H18R85729   8.852   0.743  12.669
11867POPC  H18S85730   8.821   0.620  12.542
11867POPC  H18T85731   8.705   0.751  12.566
11867POPC   C3385732   8.914   0.456  11.502
11867POPC   H3X85733   8.963   0.438  11.403
11867POPC   H3Y85734   8.845   0.372  11.519
11867POPC   C3485735   9.019   0.455  11.614
11867POPC   H4X85736   8.985   0.523  11.696
11867POPC   H4Y85737   9.114   0.495  11.574
11867POPC   C3585738   9.049   0.318  11.673
11867POPC   H5X85739   9.091   0.251  11.595
11867POPC   H5Y85740   8.953   0.275  11.707
11867POPC   C3685741   9.147   0.328  11.791
11867POPC   H6X85742   9.121   0.417  11.852
11867POPC   H6Y85743   9.249   0.348  11.750
11867POPC   C3785744   9.148   0.203  11.880
11867POPC   H7X85745   9.229   0.214  11.956
11867POPC   H7Y85746   9.173   0.115  11.818
11867POPC   C3885747   9.015   0.178  11.953
11867POPC   H8X85748   9.024   0.083  12.012
11867POPC   H8Y85749   8.936   0.160  11.877
11867POPC   C3985750   8.973   0.291  12.048
11867POPC   H9X85751   8.870   0.271  12.085
11867POPC   H9Y85752   8.970   0.389  11.995
11867POPC  C31085753   9.064   0.299  12.170
11867POPC  H10X85754   9.169   0.317  12.139
11867POPC  H10Y85755   9.060   0.199  12.220
11867POPC  C31185756   9.025   0.405  12.274
11867POPC  H11X85757   8.916   0.400  12.294
11867POPC  H11Y85758   9.048   0.507  12.235
11867POPC  C31285759   9.103   0.378  12.404
11867POPC  H12X85760   9.212   0.377  12.381
11867POPC  H12Y85761   9.075   0.275  12.437
11867POPC  C31385762   9.075   0.474  12.520
11867POPC  H13X85763   8.965   0.476  12.536
11867POPC  H13Y85764   9.109   0.577  12.494
11867POPC  C31485765   9.143   0.426  12.649
11867POPC  H14X85766   9.253   0.430  12.635
11867POPC  H14Y85767   9.116   0.319  12.664
11867POPC  C31585768   9.106   0.502  12.776
11867POPC  H15X85769   9.138   0.607  12.770
11867POPC  H15Y85770   9.166   0.458  12.859
11867POPC  C31685771   8.957   0.501  12.813
11867POPC  H16X85772   8.944   0.545  12.914
11867POPC  H16Y85773   8.917   0.398  12.813
11867POPC  H16Z85774   8.896   0.561  12.744
11868POPC     N85775   0.378  -0.254  10.926
11868POPC   C1285776   0.453  -0.151  11.011
11868POPC  H12A85777   0.521  -0.202  11.076
11868POPC  H12B85778   0.383  -0.096  11.074
11868POPC   C1385779   0.293  -0.344  11.009
11868POPC  H13A85780   0.225  -0.290  11.074
11868POPC  H13B85781   0.231  -0.407  10.946
11868POPC  H13C85782   0.352  -0.410  11.071
11868POPC   C1485783   0.289  -0.181  10.829
11868POPC  H14A85784   0.248  -0.246  10.754
11868POPC  H14B85785   0.210  -0.130  10.882
11868POPC  H14C85786   0.347  -0.101  10.782
11868POPC   C1585787   0.470  -0.339  10.843
11868POPC  H15A85788   0.553  -0.381  10.898
11868POPC  H15B85789   0.510  -0.282  10.759
11868POPC  H15C85790   0.415  -0.424  10.800
11868POPC   C1185791   0.530  -0.039  10.936
11868POPC  H11A85792   0.602  -0.089  10.867
11868POPC  H11B85793   0.589   0.020  11.011
11868POPC     P85794   0.507   0.146  10.758
11868POPC   O1385795   0.412   0.166  10.644
11868POPC   O1485796   0.646   0.106  10.731
11868POPC   O1285797   0.440   0.047  10.865
11868POPC   O1185798   0.509   0.285  10.834
11868POPC    C185799   0.388   0.341  10.882
11868POPC    HA85800   0.303   0.269  10.886
11868POPC    HB85801   0.359   0.428  10.819
11868POPC    C285802   0.408   0.391  11.025
11868POPC    HS85803   0.474   0.481  11.019
11868POPC   O2185804   0.468   0.287  11.100
11868POPC   C2185805   0.533   0.328  11.206
11868POPC   O2285806   0.580   0.439  11.224
11868POPC   C2285807   0.542   0.205  11.295
11868POPC   H2R85808   0.632   0.155  11.256
11868POPC   H2S85809   0.456   0.139  11.274
11868POPC    C385810   0.274   0.427  11.093
11868POPC    HX85811   0.217   0.500  11.031
11868POPC    HY85812   0.305   0.476  11.185
11868POPC   O3185813   0.192   0.313  11.122
11868POPC   C3185814   0.188   0.276  11.250
11868POPC   O3285815   0.224   0.341  11.346
11868POPC   C3285816   0.137   0.134  11.259
11868POPC   H2X85817   0.156   0.083  11.163
11868POPC   H2Y85818   0.028   0.140  11.276
11868POPC   C2385819   0.548   0.223  11.448
11868POPC   H3R85820   0.454   0.269  11.486
11868POPC   H3S85821   0.630   0.290  11.480
11868POPC   C2485822   0.568   0.083  11.511
11868POPC   H4R85823   0.480   0.022  11.484
11868POPC   H4S85824   0.570   0.092  11.622
11868POPC   C2585825   0.697   0.016  11.460
11868POPC   H5R85826   0.778   0.083  11.491
11868POPC   H5S85827   0.702   0.008  11.350
11868POPC   C2685828   0.733  -0.123  11.512
11868POPC   H6R85829   0.703  -0.137  11.617
11868POPC   H6S85830   0.845  -0.127  11.508
11868POPC   C2785831   0.687  -0.237  11.421
11868POPC   H7R85832   0.777  -0.294  11.395
11868POPC   H7S85833   0.646  -0.199  11.325
11868POPC   C2885834   0.590  -0.331  11.492
11868POPC   H8R85835   0.631  -0.356  11.592
11868POPC   H8S85836   0.579  -0.428  11.439
11868POPC   C2985837   0.460  -0.257  11.496
11868POPC   H9185838   0.404  -0.250  11.402
11868POPC  C21085839   0.409  -0.200  11.605
11868POPC  H10185840   0.319  -0.139  11.594
11868POPC  C21185841   0.463  -0.196  11.745
11868POPC  H11R85842   0.510  -0.099  11.770
11868POPC  H11S85843   0.537  -0.277  11.765
11868POPC  C21285844   0.335  -0.218  11.824
11868POPC  H12R85845   0.289  -0.316  11.797
11868POPC  H12S85846   0.261  -0.137  11.798
11868POPC  C21385847   0.345  -0.213  11.975
11868POPC  H13R85848   0.405  -0.126  12.010
11868POPC  H13S85849   0.395  -0.306  12.012
11868POPC  C21485850   0.202  -0.204  12.028
11868POPC  H14R85851   0.140  -0.278  11.973
11868POPC  H14S85852   0.158  -0.103  12.007
11868POPC  C21585853   0.198  -0.237  12.175
11868POPC  H15R85854   0.254  -0.332  12.182
11868POPC  H15S85855   0.096  -0.255  12.212
11868POPC  C21685856   0.258  -0.129  12.264
11868POPC  H16R85857   0.176  -0.081  12.322
11868POPC  H16S85858   0.308  -0.050  12.204
11868POPC  C21785859   0.359  -0.189  12.363
11868POPC  H17R85860   0.378  -0.111  12.439
11868POPC  H17S85861   0.454  -0.208  12.309
11868POPC  C21885862   0.313  -0.320  12.427
11868POPC  H18R85863   0.371  -0.343  12.518
11868POPC  H18S85864   0.329  -0.407  12.359
11868POPC  H18T85865   0.206  -0.314  12.455
11868POPC   C3385866   0.208   0.059  11.374
11868POPC   H3X85867   0.284   0.121  11.426
11868POPC   H3Y85868   0.262  -0.028  11.332
11868POPC   C3485869   0.106   0.009  11.476
11868POPC   H4X85870   0.148  -0.066  11.545
11868POPC   H4Y85871   0.030  -0.045  11.417
11868POPC   C3585872   0.039   0.119  11.561
11868POPC   H5X85873  -0.066   0.087  11.582
11868POPC   H5Y85874   0.034   0.215  11.506
11868POPC   C3685875   0.109   0.139  11.696
11868POPC   H6X85876   0.129   0.040  11.744
11868POPC   H6Y85877   0.042   0.195  11.765
11868POPC   C3785878   0.238   0.219  11.684
11868POPC   H7X85879   0.215   0.312  11.627
11868POPC   H7Y85880   0.313   0.162  11.625
11868POPC   C3885881   0.300   0.257  11.818
11868POPC   H8X85882   0.226   0.307  11.884
11868POPC   H8Y85883   0.380   0.328  11.792
11868POPC   C3985884   0.372   0.143  11.892
11868POPC   H9X85885   0.436   0.092  11.817
11868POPC   H9Y85886   0.299   0.069  11.931
11868POPC  C31085887   0.461   0.198  12.004
11868POPC  H10X85888   0.408   0.196  12.101
11868POPC  H10Y85889   0.483   0.305  11.981
11868POPC  C31185890   0.597   0.129  12.015
11868POPC  H11X85891   0.645   0.132  11.914
11868POPC  H11Y85892   0.585   0.022  12.042
11868POPC  C31285893   0.691   0.199  12.114
11868POPC  H12X85894   0.677   0.309  12.109
11868POPC  H12Y85895   0.796   0.179  12.084
11868POPC  C31385896   0.675   0.149  12.258
11868POPC  H13X85897   0.661   0.038  12.255
11868POPC  H13Y85898   0.582   0.191  12.302
11868POPC  C31485899   0.798   0.179  12.345
11868POPC  H14X85900   0.888   0.131  12.300
11868POPC  H14Y85901   0.782   0.134  12.446
11868POPC  C31585902   0.827   0.329  12.364
11868POPC  H15X85903   0.856   0.375  12.267
11868POPC  H15Y85904   0.914   0.339  12.433
11868POPC  C31685905   0.709   0.406  12.422
11868POPC  H16X85906   0.674   0.355  12.515
11868POPC  H16Y85907   0.624   0.410  12.351
11868POPC  H16Z85908   0.737   0.511  12.448
11869POPC     N85909   4.414   4.497  14.787
11869POPC   C1285910   4.459   4.472  14.644
11869POPC  H12A85911   4.421   4.555  14.585
11869POPC  H12B85912   4.411   4.382  14.607
11869POPC   C1385913   4.446   4.638  14.827
11869POPC  H13A85914   4.555   4.650  14.824
11869POPC  H13B85915   4.405   4.709  14.758
11869POPC  H13C85916   4.411   4.659  14.927
11869POPC   C1485917   4.266   4.477  14.789
11869POPC  H14A85918   4.225   4.503  14.886
11869POPC  H14B85919   4.218   4.539  14.713
11869POPC  H14C85920   4.240   4.374  14.768
11869POPC   C1585921   4.486   4.408  14.883
11869POPC  H15A85922   4.475   4.304  14.854
11869POPC  H15B85923   4.446   4.420  14.983
11869POPC  H15C85924   4.592   4.434  14.884
11869POPC   C1185925   4.609   4.464  14.615
11869POPC  H11A85926   4.619   4.451  14.504
11869POPC  H11B85927   4.656   4.377  14.664
11869POPC     P85928   4.800   4.633  14.582
11869POPC   O1385929   4.860   4.516  14.516
11869POPC   O1485930   4.881   4.713  14.677
11869POPC   O1285931   4.670   4.584  14.662
11869POPC   O1185932   4.738   4.728  14.471
11869POPC    C185933   4.615   4.798  14.482
11869POPC    HA85934   4.636   4.902  14.515
11869POPC    HB85935   4.544   4.751  14.554
11869POPC    C285936   4.547   4.805  14.343
11869POPC    HS85937   4.452   4.863  14.352
11869POPC   O2185938   4.522   4.676  14.284
11869POPC   C2185939   4.424   4.609  14.336
11869POPC   O2285940   4.353   4.646  14.428
11869POPC   C2285941   4.410   4.474  14.264
11869POPC   H2R85942   4.330   4.419  14.317
11869POPC   H2S85943   4.505   4.419  14.276
11869POPC    C385944   4.636   4.879  14.243
11869POPC    HX85945   4.733   4.825  14.234
11869POPC    HY85946   4.655   4.983  14.279
11869POPC   O3185947   4.565   4.877  14.119
11869POPC   C3185948   4.616   4.951  14.024
11869POPC   O3285949   4.708   5.029  14.034
11869POPC   C3285950   4.541   4.916  13.897
11869POPC   H2X85951   4.432   4.915  13.918
11869POPC   H2Y85952   4.573   4.812  13.871
11869POPC   C2385953   4.374   4.482  14.113
11869POPC   H3R85954   4.455   4.534  14.057
11869POPC   H3S85955   4.280   4.542  14.102
11869POPC   C2485956   4.350   4.342  14.054
11869POPC   H4R85957   4.284   4.285  14.124
11869POPC   H4S85958   4.447   4.288  14.047
11869POPC   C2585959   4.281   4.338  13.916
11869POPC   H5R85960   4.181   4.385  13.926
11869POPC   H5S85961   4.262   4.231  13.888
11869POPC   C2685962   4.358   4.405  13.801
11869POPC   H6R85963   4.397   4.504  13.833
11869POPC   H6S85964   4.287   4.424  13.717
11869POPC   C2785965   4.472   4.319  13.743
11869POPC   H7R85966   4.428   4.223  13.710
11869POPC   H7S85967   4.544   4.297  13.825
11869POPC   C2885968   4.544   4.388  13.625
11869POPC   H8R85969   4.590   4.482  13.662
11869POPC   H8S85970   4.468   4.416  13.549
11869POPC   C2985971   4.650   4.299  13.564
11869POPC   H9185972   4.669   4.207  13.621
11869POPC  C21085973   4.718   4.320  13.450
11869POPC  H10185974   4.790   4.242  13.419
11869POPC  C21185975   4.708   4.435  13.353
11869POPC  H11R85976   4.628   4.505  13.384
11869POPC  H11S85977   4.679   4.395  13.253
11869POPC  C21285978   4.838   4.519  13.334
11869POPC  H12R85979   4.919   4.450  13.300
11869POPC  H12S85980   4.868   4.563  13.431
11869POPC  C21385981   4.827   4.633  13.229
11869POPC  H13R85982   4.792   4.586  13.135
11869POPC  H13S85983   4.928   4.673  13.208
11869POPC  C21485984   4.735   4.751  13.268
11869POPC  H14R85985   4.780   4.803  13.356
11869POPC  H14S85986   4.637   4.712  13.304
11869POPC  C21585987   4.703   4.857  13.158
11869POPC  H15R85988   4.658   4.946  13.208
11869POPC  H15S85989   4.627   4.818  13.088
11869POPC  C21685990   4.819   4.903  13.070
11869POPC  H16R85991   4.869   4.816  13.023
11869POPC  H16S85992   4.892   4.956  13.134
11869POPC  C21785993   4.776   5.001  12.958
11869POPC  H17R85994   4.867   5.052  12.921
11869POPC  H17S85995   4.709   5.079  13.000
11869POPC  C21885996   4.710   4.932  12.839
11869POPC  H18R85997   4.755   4.832  12.826
11869POPC  H18S85998   4.725   4.990  12.746
11869POPC  H18T85999   4.601   4.916  12.854
11869POPC   C3386000   4.572   5.008  13.779
11869POPC   H3X86001   4.678   5.043  13.780
11869POPC   H3Y86002   4.507   5.099  13.782
11869POPC   C3486003   4.550   4.932  13.649
11869POPC   H4X86004   4.624   4.849  13.642
11869POPC   H4Y86005   4.569   4.999  13.563
11869POPC   C3586006   4.409   4.877  13.632
11869POPC   H5X86007   4.334   4.958  13.642
11869POPC   H5Y86008   4.387   4.799  13.709
11869POPC   C3686009   4.402   4.813  13.494
11869POPC   H6X86010   4.473   4.728  13.493
11869POPC   H6Y86011   4.439   4.884  13.417
11869POPC   C3786012   4.263   4.767  13.452
11869POPC   H7X86013   4.194   4.854  13.449
11869POPC   H7Y86014   4.223   4.693  13.524
11869POPC   C3886015   4.273   4.705  13.313
11869POPC   H8X86016   4.328   4.777  13.248
11869POPC   H8Y86017   4.172   4.693  13.270
11869POPC   C3986018   4.342   4.569  13.315
11869POPC   H9X86019   4.276   4.496  13.366
11869POPC   H9Y86020   4.437   4.574  13.370
11869POPC  C31086021   4.373   4.519  13.174
11869POPC  H10X86022   4.282   4.533  13.114
11869POPC  H10Y86023   4.399   4.411  13.179
11869POPC  C31186024   4.487   4.596  13.110
11869POPC  H11X86025   4.580   4.564  13.159
11869POPC  H11Y86026   4.473   4.704  13.129
11869POPC  C31286027   4.501   4.578  12.959
11869POPC  H12X86028   4.456   4.666  12.907
11869POPC  H12Y86029   4.450   4.487  12.924
11869POPC  C31386030   4.646   4.562  12.916
11869POPC  H13X86031   4.686   4.466  12.954
11869POPC  H13Y86032   4.708   4.645  12.958
11869POPC  C31486033   4.654   4.567  12.765
11869POPC  H14X86034   4.633   4.672  12.733
11869POPC  H14Y86035   4.579   4.500  12.718
11869POPC  C31586036   4.794   4.527  12.723
11869POPC  H15X86037   4.860   4.563  12.804
11869POPC  H15Y86038   4.818   4.578  12.626
11869POPC  C31686039   4.819   4.380  12.700
11869POPC  H16X86040   4.790   4.320  12.788
11869POPC  H16Y86041   4.926   4.365  12.677
11869POPC  H16Z86042   4.764   4.347  12.609
11870POPC     N86043   4.079   5.229  14.596
11870POPC   C1286044   4.223   5.178  14.606
11870POPC  H12A86045   4.283   5.234  14.534
11870POPC  H12B86046   4.221   5.074  14.577
11870POPC   C1386047   4.083   5.379  14.580
11870POPC  H13A86048   4.144   5.408  14.495
11870POPC  H13B86049   3.985   5.420  14.570
11870POPC  H13C86050   4.132   5.424  14.667
11870POPC   C1486051   4.012   5.165  14.478
11870POPC  H14A86052   3.906   5.186  14.476
11870POPC  H14B86053   4.056   5.192  14.384
11870POPC  H14C86054   4.018   5.056  14.485
11870POPC   C1586055   4.003   5.194  14.719
11870POPC  H15A86056   3.995   5.086  14.729
11870POPC  H15B86057   3.904   5.237  14.719
11870POPC  H15C86058   4.057   5.230  14.807
11870POPC   C1186059   4.300   5.186  14.742
11870POPC  H11A86060   4.401   5.140  14.728
11870POPC  H11B86061   4.249   5.119  14.813
11870POPC     P86062   4.411   5.428  14.741
11870POPC   O1386063   4.541   5.432  14.814
11870POPC   O1486064   4.339   5.555  14.724
11870POPC   O1286065   4.312   5.317  14.800
11870POPC   O1186066   4.438   5.367  14.597
11870POPC    C186067   4.565   5.383  14.534
11870POPC    HA86068   4.597   5.284  14.494
11870POPC    HB86069   4.645   5.420  14.602
11870POPC    C286070   4.555   5.480  14.414
11870POPC    HS86071   4.524   5.580  14.453
11870POPC   O2186072   4.460   5.422  14.322
11870POPC   C2186073   4.367   5.503  14.277
11870POPC   O2286074   4.354   5.621  14.303
11870POPC   C2286075   4.284   5.428  14.173
11870POPC   H2R86076   4.179   5.424  14.206
11870POPC   H2S86077   4.324   5.325  14.160
11870POPC    C386078   4.691   5.496  14.341
11870POPC    HX86079   4.723   5.393  14.311
11870POPC    HY86080   4.768   5.533  14.413
11870POPC   O3186081   4.678   5.589  14.232
11870POPC   C3186082   4.698   5.539  14.110
11870POPC   O3286083   4.743   5.429  14.085
11870POPC   C3286084   4.652   5.640  14.004
11870POPC   H2X86085   4.719   5.727  14.007
11870POPC   H2Y86086   4.551   5.676  14.029
11870POPC   C2386087   4.298   5.507  14.041
11870POPC   H3R86088   4.405   5.531  14.025
11870POPC   H3S86089   4.243   5.604  14.051
11870POPC   C2486090   4.254   5.436  13.914
11870POPC   H4R86091   4.149   5.399  13.923
11870POPC   H4S86092   4.321   5.349  13.896
11870POPC   C2586093   4.264   5.534  13.797
11870POPC   H5R86094   4.361   5.588  13.803
11870POPC   H5S86095   4.183   5.610  13.809
11870POPC   C2686096   4.255   5.467  13.659
11870POPC   H6R86097   4.172   5.394  13.657
11870POPC   H6S86098   4.350   5.411  13.641
11870POPC   C2786099   4.233   5.569  13.546
11870POPC   H7R86100   4.254   5.520  13.449
11870POPC   H7S86101   4.306   5.653  13.557
11870POPC   C2886102   4.089   5.623  13.546
11870POPC   H8R86103   4.073   5.681  13.640
11870POPC   H8S86104   4.020   5.536  13.552
11870POPC   C2986105   4.053   5.710  13.430
11870POPC   H9186106   4.056   5.819  13.450
11870POPC  C21086107   4.023   5.669  13.306
11870POPC  H10186108   3.984   5.744  13.236
11870POPC  C21186109   4.019   5.529  13.251
11870POPC  H11R86110   3.914   5.492  13.252
11870POPC  H11S86111   4.076   5.459  13.314
11870POPC  C21286112   4.070   5.521  13.105
11870POPC  H12R86113   4.024   5.602  13.044
11870POPC  H12S86114   4.032   5.425  13.062
11870POPC  C21386115   4.223   5.522  13.085
11870POPC  H13R86116   4.247   5.440  13.014
11870POPC  H13S86117   4.274   5.499  13.181
11870POPC  C21486118   4.279   5.653  13.026
11870POPC  H14R86119   4.275   5.729  13.107
11870POPC  H14S86120   4.214   5.687  12.942
11870POPC  C21586121   4.425   5.649  12.976
11870POPC  H15R86122   4.491   5.621  13.062
11870POPC  H15S86123   4.454   5.752  12.945
11870POPC  C21686124   4.450   5.554  12.858
11870POPC  H16R86125   4.455   5.615  12.765
11870POPC  H16S86126   4.364   5.485  12.845
11870POPC  C21786127   4.579   5.471  12.872
11870POPC  H17R86128   4.665   5.540  12.888
11870POPC  H17S86129   4.597   5.419  12.775
11870POPC  C21886130   4.575   5.367  12.985
11870POPC  H18R86131   4.663   5.301  12.981
11870POPC  H18S86132   4.485   5.305  12.975
11870POPC  H18T86133   4.569   5.415  13.085
11870POPC   C3386134   4.660   5.585  13.860
11870POPC   H3X86135   4.584   5.505  13.846
11870POPC   H3Y86136   4.760   5.539  13.843
11870POPC   C3486137   4.639   5.696  13.755
11870POPC   H4X86138   4.692   5.788  13.788
11870POPC   H4Y86139   4.531   5.722  13.749
11870POPC   C3586140   4.690   5.658  13.615
11870POPC   H5X86141   4.801   5.649  13.617
11870POPC   H5Y86142   4.665   5.739  13.543
11870POPC   C3686143   4.632   5.525  13.567
11870POPC   H6X86144   4.521   5.530  13.565
11870POPC   H6Y86145   4.662   5.447  13.641
11870POPC   C3786146   4.684   5.482  13.430
11870POPC   H7X86147   4.779   5.536  13.409
11870POPC   H7Y86148   4.612   5.510  13.351
11870POPC   C3886149   4.713   5.331  13.428
11870POPC   H8X86150   4.794   5.309  13.502
11870POPC   H8Y86151   4.751   5.301  13.327
11870POPC   C3986152   4.594   5.244  13.464
11870POPC   H9X86153   4.565   5.259  13.571
11870POPC   H9Y86154   4.627   5.140  13.450
11870POPC  C31086155   4.472   5.269  13.376
11870POPC  H10X86156   4.501   5.249  13.270
11870POPC  H10Y86157   4.440   5.375  13.383
11870POPC  C31186158   4.353   5.181  13.414
11870POPC  H11X86159   4.328   5.198  13.521
11870POPC  H11Y86160   4.381   5.074  13.403
11870POPC  C31286161   4.230   5.209  13.328
11870POPC  H12X86162   4.205   5.316  13.346
11870POPC  H12Y86163   4.144   5.148  13.364
11870POPC  C31386164   4.250   5.187  13.177
11870POPC  H13X86165   4.319   5.264  13.138
11870POPC  H13Y86166   4.152   5.201  13.127
11870POPC  C31486167   4.307   5.048  13.143
11870POPC  H14X86168   4.255   4.974  13.208
11870POPC  H14Y86169   4.415   5.044  13.168
11870POPC  C31586170   4.285   5.006  12.997
11870POPC  H15X86171   4.178   5.022  12.971
11870POPC  H15Y86172   4.306   4.897  12.988
11870POPC  C31686173   4.373   5.081  12.896
11870POPC  H16X86174   4.480   5.066  12.919
11870POPC  H16Y86175   4.350   5.189  12.900
11870POPC  H16Z86176   4.353   5.047  12.792
11871POPC     N86177   4.955   5.279  14.738
11871POPC   C1286178   5.077   5.257  14.827
11871POPC  H12A86179   5.128   5.166  14.794
11871POPC  H12B86180   5.042   5.236  14.927
11871POPC   C1386181   4.911   5.422  14.740
11871POPC  H13A86182   4.813   5.433  14.695
11871POPC  H13B86183   4.906   5.460  14.842
11871POPC  H13C86184   4.983   5.483  14.686
11871POPC   C1486185   4.992   5.237  14.601
11871POPC  H14A86186   5.058   5.150  14.603
11871POPC  H14B86187   4.907   5.218  14.535
11871POPC  H14C86188   5.050   5.314  14.549
11871POPC   C1586189   4.844   5.192  14.788
11871POPC  H15A86190   4.820   5.216  14.891
11871POPC  H15B86191   4.871   5.087  14.785
11871POPC  H15C86192   4.753   5.209  14.733
11871POPC   C1186193   5.188   5.366  14.837
11871POPC  H11A86194   5.258   5.338  14.919
11871POPC  H11B86195   5.141   5.462  14.866
11871POPC     P86196   5.330   5.276  14.630
11871POPC   O1386197   5.290   5.144  14.684
11871POPC   O1486198   5.472   5.307  14.608
11871POPC   O1286199   5.263   5.390  14.719
11871POPC   O1186200   5.251   5.301  14.493
11871POPC    C186201   5.217   5.440  14.470
11871POPC    HA86202   5.301   5.509  14.497
11871POPC    HB86203   5.131   5.468  14.534
11871POPC    C286204   5.176   5.477  14.325
11871POPC    HS86205   5.084   5.540  14.332
11871POPC   O2186206   5.155   5.365  14.238
11871POPC   C2186207   5.039   5.307  14.253
11871POPC   O2286208   4.956   5.334  14.339
11871POPC   C2286209   5.018   5.203  14.143
11871POPC   H2R86210   4.915   5.163  14.150
11871POPC   H2S86211   5.091   5.121  14.158
11871POPC    C386212   5.283   5.568  14.260
11871POPC    HX86213   5.304   5.647  14.336
11871POPC    HY86214   5.238   5.617  14.171
11871POPC   O3186215   5.406   5.500  14.233
11871POPC   C3186216   5.411   5.438  14.115
11871POPC   O3286217   5.332   5.457  14.023
11871POPC   C3286218   5.533   5.345  14.110
11871POPC   H2X86219   5.565   5.325  14.214
11871POPC   H2Y86220   5.615   5.397  14.058
11871POPC   C2386221   5.038   5.266  14.003
11871POPC   H3R86222   5.135   5.321  14.001
11871POPC   H3S86223   4.958   5.340  13.982
11871POPC   C2486224   5.046   5.164  13.889
11871POPC   H4R86225   4.947   5.115  13.875
11871POPC   H4S86226   5.119   5.085  13.917
11871POPC   C2586227   5.092   5.230  13.758
11871POPC   H5R86228   5.194   5.272  13.773
11871POPC   H5S86229   5.024   5.316  13.735
11871POPC   C2686230   5.095   5.136  13.636
11871POPC   H6R86231   5.141   5.195  13.553
11871POPC   H6S86232   4.991   5.109  13.606
11871POPC   C2786233   5.177   5.009  13.660
11871POPC   H7R86234   5.120   4.939  13.725
11871POPC   H7S86235   5.268   5.040  13.716
11871POPC   C2886236   5.224   4.937  13.532
11871POPC   H8R86237   5.297   4.857  13.557
11871POPC   H8S86238   5.281   5.010  13.471
11871POPC   C2986239   5.110   4.874  13.457
11871POPC   H9186240   5.072   4.779  13.497
11871POPC  C21086241   5.053   4.928  13.350
11871POPC  H10186242   4.972   4.874  13.300
11871POPC  C21186243   5.094   5.059  13.289
11871POPC  H11R86244   5.139   5.128  13.363
11871POPC  H11S86245   5.004   5.112  13.251
11871POPC  C21286246   5.198   5.045  13.178
11871POPC  H12R86247   5.279   4.974  13.207
11871POPC  H12S86248   5.246   5.144  13.163
11871POPC  C21386249   5.137   5.003  13.046
11871POPC  H13R86250   5.051   5.068  13.021
11871POPC  H13S86251   5.103   4.897  13.047
11871POPC  C21486252   5.243   5.023  12.940
11871POPC  H14R86253   5.332   4.965  12.969
11871POPC  H14S86254   5.271   5.131  12.933
11871POPC  C21586255   5.202   4.972  12.804
11871POPC  H15R86256   5.117   5.030  12.763
11871POPC  H15S86257   5.176   4.865  12.814
11871POPC  C21686258   5.324   4.985  12.717
11871POPC  H16R86259   5.394   4.902  12.745
11871POPC  H16S86260   5.369   5.083  12.746
11871POPC  C21786261   5.303   4.993  12.568
11871POPC  H17R86262   5.380   5.062  12.524
11871POPC  H17S86263   5.204   5.037  12.545
11871POPC  C21886264   5.323   4.855  12.508
11871POPC  H18R86265   5.337   4.860  12.398
11871POPC  H18S86266   5.239   4.788  12.530
11871POPC  H18T86267   5.411   4.808  12.555
11871POPC   C3386268   5.507   5.209  14.038
11871POPC   H3X86269   5.428   5.154  14.094
11871POPC   H3Y86270   5.600   5.149  14.046
11871POPC   C3486271   5.465   5.217  13.890
11871POPC   H4X86272   5.394   5.299  13.870
11871POPC   H4Y86273   5.410   5.125  13.866
11871POPC   C3586274   5.580   5.225  13.789
11871POPC   H5X86275   5.654   5.146  13.812
11871POPC   H5Y86276   5.633   5.322  13.800
11871POPC   C3686277   5.533   5.207  13.644
11871POPC   H6X86278   5.453   5.130  13.638
11871POPC   H6Y86279   5.618   5.173  13.581
11871POPC   C3786280   5.485   5.342  13.592
11871POPC   H7X86281   5.575   5.407  13.593
11871POPC   H7Y86282   5.409   5.383  13.662
11871POPC   C3886283   5.430   5.345  13.450
11871POPC   H8X86284   5.337   5.285  13.444
11871POPC   H8Y86285   5.505   5.301  13.381
11871POPC   C3986286   5.403   5.491  13.408
11871POPC   H9X86287   5.490   5.529  13.351
11871POPC   H9Y86288   5.393   5.552  13.501
11871POPC  C31086289   5.274   5.511  13.329
11871POPC  H10X86290   5.276   5.440  13.244
11871POPC  H10Y86291   5.271   5.614  13.287
11871POPC  C31186292   5.148   5.488  13.414
11871POPC  H11X86293   5.117   5.579  13.468
11871POPC  H11Y86294   5.170   5.412  13.493
11871POPC  C31286295   5.033   5.433  13.329
11871POPC  H12X86296   4.951   5.402  13.396
11871POPC  H12Y86297   5.073   5.341  13.282
11871POPC  C31386298   4.982   5.531  13.222
11871POPC  H13X86299   5.069   5.575  13.169
11871POPC  H13Y86300   4.929   5.616  13.270
11871POPC  C31486301   4.889   5.469  13.116
11871POPC  H14X86302   4.879   5.542  13.032
11871POPC  H14Y86303   4.788   5.454  13.157
11871POPC  C31586304   4.942   5.338  13.058
11871POPC  H15X86305   4.877   5.306  12.974
11871POPC  H15Y86306   4.933   5.259  13.135
11871POPC  C31686307   5.087   5.348  13.010
11871POPC  H16X86308   5.106   5.449  12.968
11871POPC  H16Y86309   5.108   5.273  12.931
11871POPC  H16Z86310   5.159   5.333  13.092
11872POPC     N86311   5.652   4.508  14.798
11872POPC   C1286312   5.514   4.568  14.816
11872POPC  H12A86313   5.510   4.665  14.768
11872POPC  H12B86314   5.496   4.583  14.922
11872POPC   C1386315   5.644   4.360  14.818
11872POPC  H13A86316   5.732   4.308  14.782
11872POPC  H13B86317   5.625   4.328  14.919
11872POPC  H13C86318   5.562   4.324  14.756
11872POPC   C1486319   5.693   4.528  14.654
11872POPC  H14A86320   5.701   4.632  14.625
11872POPC  H14B86321   5.783   4.473  14.632
11872POPC  H14C86322   5.614   4.487  14.591
11872POPC   C1586323   5.752   4.567  14.890
11872POPC  H15A86324   5.845   4.514  14.882
11872POPC  H15B86325   5.716   4.561  14.992
11872POPC  H15C86326   5.769   4.673  14.873
11872POPC   C1186327   5.395   4.484  14.761
11872POPC  H11A86328   5.302   4.545  14.758
11872POPC  H11B86329   5.376   4.401  14.832
11872POPC     P86330   5.369   4.466  14.497
11872POPC   O1386331   5.233   4.414  14.481
11872POPC   O1486332   5.470   4.427  14.395
11872POPC   O1286333   5.425   4.423  14.637
11872POPC   O1186334   5.370   4.623  14.510
11872POPC    C186335   5.261   4.708  14.474
11872POPC    HA86336   5.260   4.795  14.542
11872POPC    HB86337   5.162   4.656  14.486
11872POPC    C286338   5.274   4.761  14.329
11872POPC    HS86339   5.183   4.824  14.309
11872POPC   O2186340   5.284   4.649  14.239
11872POPC   C2186341   5.167   4.598  14.206
11872POPC   O2286342   5.061   4.656  14.213
11872POPC   C2286343   5.186   4.460  14.143
11872POPC   H2R86344   5.085   4.418  14.125
11872POPC   H2S86345   5.237   4.396  14.218
11872POPC    C386346   5.395   4.857  14.309
11872POPC    HX86347   5.421   4.908  14.405
11872POPC    HY86348   5.363   4.936  14.238
11872POPC   O3186349   5.507   4.789  14.248
11872POPC   C3186350   5.595   4.735  14.330
11872POPC   O3286351   5.610   4.760  14.448
11872POPC   C3286352   5.692   4.650  14.250
11872POPC   H2X86353   5.635   4.567  14.204
11872POPC   H2Y86354   5.765   4.608  14.322
11872POPC   C2386355   5.267   4.463  14.012
11872POPC   H3R86356   5.275   4.358  13.976
11872POPC   H3S86357   5.371   4.497  14.033
11872POPC   C2486358   5.202   4.546  13.900
11872POPC   H4R86359   5.092   4.530  13.899
11872POPC   H4S86360   5.242   4.509  13.802
11872POPC   C2586361   5.233   4.696  13.904
11872POPC   H5R86362   5.181   4.748  13.988
11872POPC   H5S86363   5.194   4.741  13.810
11872POPC   C2686364   5.384   4.724  13.912
11872POPC   H6R86365   5.436   4.641  13.861
11872POPC   H6S86366   5.418   4.727  14.018
11872POPC   C2786367   5.421   4.854  13.841
11872POPC   H7R86368   5.363   4.935  13.888
11872POPC   H7S86369   5.389   4.844  13.735
11872POPC   C2886370   5.571   4.887  13.837
11872POPC   H8R86371   5.601   4.932  13.934
11872POPC   H8S86372   5.585   4.964  13.758
11872POPC   C2986373   5.657   4.768  13.807
11872POPC   H9186374   5.668   4.700  13.891
11872POPC  C21086375   5.704   4.727  13.689
11872POPC  H10186376   5.769   4.638  13.684
11872POPC  C21186377   5.680   4.793  13.558
11872POPC  H11R86378   5.727   4.894  13.555
11872POPC  H11S86379   5.570   4.808  13.543
11872POPC  C21286380   5.734   4.708  13.443
11872POPC  H12R86381   5.700   4.603  13.445
11872POPC  H12S86382   5.845   4.707  13.446
11872POPC  C21386383   5.684   4.771  13.314
11872POPC  H13R86384   5.704   4.880  13.329
11872POPC  H13S86385   5.574   4.758  13.306
11872POPC  C21486386   5.752   4.724  13.186
11872POPC  H14R86387   5.732   4.617  13.168
11872POPC  H14S86388   5.862   4.732  13.201
11872POPC  C21586389   5.710   4.808  13.065
11872POPC  H15R86390   5.608   4.777  13.034
11872POPC  H15S86391   5.779   4.786  12.981
11872POPC  C21686392   5.707   4.960  13.090
11872POPC  H16R86393   5.730   5.011  12.994
11872POPC  H16S86394   5.785   4.990  13.163
11872POPC  C21786395   5.569   5.008  13.137
11872POPC  H17R86396   5.543   4.965  13.235
11872POPC  H17S86397   5.496   4.966  13.065
11872POPC  C21886398   5.548   5.159  13.147
11872POPC  H18R86399   5.472   5.180  13.224
11872POPC  H18S86400   5.507   5.199  13.053
11872POPC  H18T86401   5.643   5.211  13.172
11872POPC   C3386402   5.764   4.737  14.145
11872POPC   H3X86403   5.796   4.832  14.195
11872POPC   H3Y86404   5.692   4.768  14.068
11872POPC   C3486405   5.893   4.676  14.087
11872POPC   H4X86406   5.954   4.639  14.171
11872POPC   H4Y86407   5.949   4.760  14.039
11872POPC   C3586408   5.883   4.564  13.981
11872POPC   H5X86409   5.988   4.540  13.958
11872POPC   H5Y86410   5.843   4.602  13.885
11872POPC   C3686411   5.812   4.433  14.021
11872POPC   H6X86412   5.806   4.428  14.131
11872POPC   H6Y86413   5.874   4.347  13.988
11872POPC   C3786414   5.671   4.415  13.959
11872POPC   H7X86415   5.612   4.508  13.977
11872POPC   H7Y86416   5.619   4.332  14.012
11872POPC   C3886417   5.674   4.383  13.809
11872POPC   H8X86418   5.727   4.287  13.793
11872POPC   H8Y86419   5.735   4.459  13.757
11872POPC   C3986420   5.536   4.377  13.742
11872POPC   H9X86421   5.473   4.460  13.780
11872POPC   H9Y86422   5.485   4.282  13.767
11872POPC  C31086423   5.544   4.394  13.589
11872POPC  H10X86424   5.613   4.318  13.547
11872POPC  H10Y86425   5.589   4.493  13.568
11872POPC  C31186426   5.409   4.386  13.516
11872POPC  H11X86427   5.373   4.488  13.493
11872POPC  H11Y86428   5.335   4.339  13.585
11872POPC  C31286429   5.413   4.301  13.388
11872POPC  H12X86430   5.310   4.294  13.348
11872POPC  H12Y86431   5.446   4.198  13.416
11872POPC  C31386432   5.507   4.349  13.277
11872POPC  H13X86433   5.507   4.273  13.195
11872POPC  H13Y86434   5.611   4.354  13.318
11872POPC  C31486435   5.473   4.486  13.215
11872POPC  H14X86436   5.555   4.513  13.145
11872POPC  H14Y86437   5.470   4.562  13.296
11872POPC  C31586438   5.342   4.491  13.135
11872POPC  H15X86439   5.318   4.598  13.117
11872POPC  H15Y86440   5.259   4.448  13.194
11872POPC  C31686441   5.351   4.422  12.998
11872POPC  H16X86442   5.260   4.443  12.938
11872POPC  H16Y86443   5.362   4.312  13.009
11872POPC  H16Z86444   5.440   4.458  12.942
11873POPC     N86445   3.615   4.558  14.791
11873POPC   C1286446   3.764   4.591  14.780
11873POPC  H12A86447   3.807   4.536  14.696
11873POPC  H12B86448   3.814   4.557  14.870
11873POPC   C1386449   3.545   4.604  14.669
11873POPC  H13A86450   3.566   4.709  14.651
11873POPC  H13B86451   3.584   4.551  14.583
11873POPC  H13C86452   3.438   4.585  14.672
11873POPC   C1486453   3.593   4.410  14.806
11873POPC  H14A86454   3.489   4.392  14.828
11873POPC  H14B86455   3.619   4.356  14.716
11873POPC  H14C86456   3.651   4.368  14.888
11873POPC   C1586457   3.555   4.627  14.910
11873POPC  H15A86458   3.608   4.598  15.001
11873POPC  H15B86459   3.450   4.604  14.920
11873POPC  H15C86460   3.568   4.735  14.899
11873POPC   C1186461   3.803   4.740  14.757
11873POPC  H11A86462   3.913   4.751  14.777
11873POPC  H11B86463   3.752   4.804  14.832
11873POPC     P86464   3.875   4.773  14.509
11873POPC   O1386465   3.923   4.634  14.507
11873POPC   O1486466   3.975   4.880  14.527
11873POPC   O1286467   3.768   4.785  14.626
11873POPC   O1186468   3.782   4.806  14.385
11873POPC    C186469   3.672   4.722  14.349
11873POPC    HA86470   3.612   4.775  14.272
11873POPC    HB86471   3.605   4.704  14.435
11873POPC    C286472   3.716   4.587  14.285
11873POPC    HS86473   3.766   4.526  14.364
11873POPC   O2186474   3.808   4.620  14.179
11873POPC   C2186475   3.882   4.518  14.139
11873POPC   O2286476   3.868   4.402  14.176
11873POPC   C2286477   3.982   4.570  14.035
11873POPC   H2R86478   4.074   4.511  14.051
11873POPC   H2S86479   4.004   4.676  14.055
11873POPC    C386480   3.593   4.506  14.233
11873POPC    HX86481   3.532   4.479  14.322
11873POPC    HY86482   3.624   4.409  14.188
11873POPC   O3186483   3.512   4.586  14.145
11873POPC   C3186484   3.552   4.585  14.018
11873POPC   O3286485   3.636   4.511  13.970
11873POPC   C3286486   3.472   4.687  13.937
11873POPC   H2X86487   3.489   4.788  13.981
11873POPC   H2Y86488   3.365   4.660  13.948
11873POPC   C2386489   3.930   4.551  13.891
11873POPC   H3R86490   3.839   4.613  13.875
11873POPC   H3S86491   3.900   4.444  13.879
11873POPC   C2486492   4.031   4.586  13.781
11873POPC   H4R86493   4.133   4.560  13.816
11873POPC   H4S86494   4.031   4.695  13.761
11873POPC   C2586495   4.004   4.507  13.652
11873POPC   H5R86496   3.994   4.399  13.678
11873POPC   H5S86497   4.090   4.516  13.582
11873POPC   C2686498   3.877   4.551  13.578
11873POPC   H6R86499   3.789   4.548  13.646
11873POPC   H6S86500   3.858   4.479  13.495
11873POPC   C2786501   3.889   4.691  13.516
11873POPC   H7R86502   3.987   4.700  13.465
11873POPC   H7S86503   3.885   4.768  13.597
11873POPC   C2886504   3.776   4.715  13.414
11873POPC   H8R86505   3.682   4.678  13.461
11873POPC   H8S86506   3.795   4.648  13.328
11873POPC   C2986507   3.755   4.858  13.368
11873POPC   H9186508   3.664   4.905  13.407
11873POPC  C21086509   3.836   4.930  13.288
11873POPC  H10186510   3.806   5.033  13.263
11873POPC  C21186511   3.966   4.884  13.227
11873POPC  H11R86512   4.012   4.806  13.290
11873POPC  H11S86513   4.036   4.971  13.229
11873POPC  C21286514   3.963   4.832  13.081
11873POPC  H12R86515   4.067   4.829  13.042
11873POPC  H12S86516   3.907   4.907  13.021
11873POPC  C21386517   3.900   4.692  13.058
11873POPC  H13R86518   3.854   4.693  12.956
11873POPC  H13S86519   3.814   4.682  13.127
11873POPC  C21486520   3.993   4.568  13.070
11873POPC  H14R86521   3.938   4.493  13.132
11873POPC  H14S86522   4.085   4.593  13.124
11873POPC  C21586523   4.026   4.498  12.936
11873POPC  H15R86524   3.980   4.563  12.859
11873POPC  H15S86525   3.976   4.399  12.932
11873POPC  C21686526   4.172   4.475  12.890
11873POPC  H16R86527   4.235   4.563  12.912
11873POPC  H16S86528   4.167   4.467  12.779
11873POPC  C21786529   4.235   4.341  12.931
11873POPC  H17R86530   4.161   4.287  12.992
11873POPC  H17S86531   4.324   4.353  12.995
11873POPC  C21886532   4.279   4.254  12.813
11873POPC  H18R86533   4.200   4.180  12.787
11873POPC  H18S86534   4.372   4.197  12.836
11873POPC  H18T86535   4.297   4.315  12.723
11873POPC   C3386536   3.512   4.684  13.788
11873POPC   H3X86537   3.523   4.578  13.754
11873POPC   H3Y86538   3.611   4.733  13.772
11873POPC   C3486539   3.405   4.748  13.700
11873POPC   H4X86540   3.400   4.857  13.721
11873POPC   H4Y86541   3.306   4.705  13.731
11873POPC   C3586542   3.423   4.724  13.549
11873POPC   H5X86543   3.443   4.617  13.529
11873POPC   H5Y86544   3.509   4.785  13.515
11873POPC   C3686545   3.295   4.768  13.476
11873POPC   H6X86546   3.276   4.873  13.507
11873POPC   H6Y86547   3.213   4.705  13.517
11873POPC   C3786548   3.286   4.762  13.321
11873POPC   H7X86549   3.227   4.851  13.289
11873POPC   H7Y86550   3.225   4.673  13.294
11873POPC   C3886551   3.418   4.758  13.241
11873POPC   H8X86552   3.442   4.650  13.225
11873POPC   H8Y86553   3.501   4.801  13.301
11873POPC   C3986554   3.417   4.829  13.103
11873POPC   H9X86555   3.463   4.930  13.114
11873POPC   H9Y86556   3.313   4.844  13.069
11873POPC  C31086557   3.496   4.744  13.001
11873POPC  H10X86558   3.452   4.642  13.009
11873POPC  H10Y86559   3.602   4.738  13.035
11873POPC  C31186560   3.495   4.778  12.850
11873POPC  H11X86561   3.566   4.860  12.828
11873POPC  H11Y86562   3.395   4.807  12.814
11873POPC  C31286563   3.535   4.648  12.776
11873POPC  H12X86564   3.445   4.584  12.766
11873POPC  H12Y86565   3.603   4.598  12.847
11873POPC  C31386566   3.610   4.653  12.641
11873POPC  H13X86567   3.614   4.549  12.602
11873POPC  H13Y86568   3.715   4.683  12.656
11873POPC  C31486569   3.546   4.741  12.533
11873POPC  H14X86570   3.456   4.788  12.577
11873POPC  H14Y86571   3.515   4.675  12.449
11873POPC  C31586572   3.640   4.847  12.475
11873POPC  H15X86573   3.708   4.881  12.556
11873POPC  H15Y86574   3.582   4.936  12.443
11873POPC  C31686575   3.719   4.797  12.353
11873POPC  H16X86576   3.809   4.860  12.336
11873POPC  H16Y86577   3.655   4.802  12.262
11873POPC  H16Z86578   3.752   4.692  12.366
11874POPC     N86579   4.911   3.685  14.874
11874POPC   C1286580   4.805   3.675  14.764
11874POPC  H12A86581   4.744   3.765  14.766
11874POPC  H12B86582   4.739   3.593  14.787
11874POPC   C1386583   4.985   3.815  14.863
11874POPC  H13A86584   5.072   3.816  14.927
11874POPC  H13B86585   5.016   3.829  14.758
11874POPC  H13C86586   4.923   3.899  14.890
11874POPC   C1486587   4.843   3.676  15.008
11874POPC  H14A86588   4.805   3.576  15.027
11874POPC  H14B86589   4.911   3.704  15.087
11874POPC  H14C86590   4.761   3.748  15.011
11874POPC   C1586591   5.007   3.570  14.865
11874POPC  H15A86592   5.057   3.571  14.770
11874POPC  H15B86593   4.954   3.474  14.871
11874POPC  H15C86594   5.081   3.572  14.944
11874POPC   C1186595   4.845   3.654  14.615
11874POPC  H11A86596   4.750   3.647  14.555
11874POPC  H11B86597   4.895   3.555  14.606
11874POPC     P86598   4.985   3.742  14.414
11874POPC   O1386599   4.971   3.869  14.341
11874POPC   O1486600   4.927   3.618  14.356
11874POPC   O1286601   4.925   3.761  14.562
11874POPC   O1186602   5.139   3.719  14.448
11874POPC    C186603   5.168   3.695  14.585
11874POPC    HA86604   5.111   3.607  14.620
11874POPC    HB86605   5.142   3.784  14.646
11874POPC    C286606   5.317   3.663  14.612
11874POPC    HS86607   5.339   3.684  14.719
11874POPC   O2186608   5.403   3.742  14.525
11874POPC   C2186609   5.388   3.873  14.551
11874POPC   O2286610   5.343   3.918  14.655
11874POPC   C2286611   5.430   3.962  14.435
11874POPC   H2R86612   5.540   3.959  14.426
11874POPC   H2S86613   5.400   4.066  14.464
11874POPC    C386614   5.334   3.509  14.591
11874POPC    HX86615   5.264   3.460  14.662
11874POPC    HY86616   5.434   3.475  14.621
11874POPC   O3186617   5.299   3.461  14.460
11874POPC   C3186618   5.396   3.469  14.370
11874POPC   O3286619   5.509   3.510  14.391
11874POPC   C3286620   5.352   3.396  14.244
11874POPC   H2X86621   5.288   3.310  14.274
11874POPC   H2Y86622   5.443   3.355  14.195
11874POPC   C2386623   5.360   3.927  14.301
11874POPC   H3R86624   5.259   3.885  14.317
11874POPC   H3S86625   5.421   3.849  14.250
11874POPC   C2486626   5.343   4.049  14.209
11874POPC   H4R86627   5.417   4.128  14.238
11874POPC   H4S86628   5.242   4.093  14.222
11874POPC   C2586629   5.367   4.010  14.063
11874POPC   H5R86630   5.453   3.940  14.059
11874POPC   H5S86631   5.394   4.101  14.004
11874POPC   C2686632   5.246   3.942  13.999
11874POPC   H6R86633   5.159   4.011  14.006
11874POPC   H6S86634   5.221   3.849  14.056
11874POPC   C2786635   5.273   3.907  13.853
11874POPC   H7R86636   5.351   3.827  13.849
11874POPC   H7S86637   5.315   3.997  13.802
11874POPC   C2886638   5.147   3.860  13.780
11874POPC   H8R86639   5.071   3.942  13.784
11874POPC   H8S86640   5.103   3.774  13.835
11874POPC   C2986641   5.181   3.822  13.639
11874POPC   H9186642   5.191   3.714  13.620
11874POPC  C21086643   5.198   3.909  13.537
11874POPC  H10186644   5.221   3.869  13.437
11874POPC  C21186645   5.186   4.058  13.548
11874POPC  H11R86646   5.261   4.107  13.482
11874POPC  H11S86647   5.208   4.095  13.650
11874POPC  C21286648   5.045   4.106  13.510
11874POPC  H12R86649   5.038   4.216  13.526
11874POPC  H12S86650   4.973   4.058  13.581
11874POPC  C21386651   5.001   4.072  13.367
11874POPC  H13R86652   4.890   4.082  13.362
11874POPC  H13S86653   5.022   3.966  13.343
11874POPC  C21486654   5.061   4.165  13.260
11874POPC  H14R86655   5.077   4.266  13.303
11874POPC  H14S86656   4.986   4.176  13.178
11874POPC  C21586657   5.191   4.113  13.198
11874POPC  H15R86658   5.261   4.080  13.277
11874POPC  H15S86659   5.241   4.195  13.142
11874POPC  C21686660   5.166   3.997  13.101
11874POPC  H16R86661   5.094   3.927  13.148
11874POPC  H16S86662   5.260   3.941  13.080
11874POPC  C21786663   5.107   4.047  12.968
11874POPC  H17R86664   5.190   4.045  12.895
11874POPC  H17S86665   5.076   4.154  12.978
11874POPC  C21886666   4.988   3.964  12.920
11874POPC  H18R86667   5.018   3.857  12.915
11874POPC  H18S86668   4.905   3.976  12.994
11874POPC  H18T86669   4.950   3.993  12.820
11874POPC   C3386670   5.274   3.483  14.144
11874POPC   H3X86671   5.343   3.551  14.090
11874POPC   H3Y86672   5.197   3.546  14.196
11874POPC   C3486673   5.201   3.392  14.044
11874POPC   H4X86674   5.125   3.332  14.098
11874POPC   H4Y86675   5.274   3.321  13.999
11874POPC   C3586676   5.134   3.472  13.932
11874POPC   H5X86677   5.212   3.530  13.878
11874POPC   H5Y86678   5.062   3.545  13.975
11874POPC   C3686679   5.062   3.381  13.832
11874POPC   H6X86680   4.976   3.330  13.882
11874POPC   H6Y86681   5.133   3.303  13.796
11874POPC   C3786682   5.013   3.462  13.712
11874POPC   H7X86683   5.098   3.524  13.678
11874POPC   H7Y86684   4.931   3.530  13.745
11874POPC   C3886685   4.966   3.376  13.594
11874POPC   H8X86686   4.894   3.299  13.629
11874POPC   H8Y86687   5.055   3.323  13.552
11874POPC   C3986688   4.900   3.461  13.484
11874POPC   H9X86689   4.800   3.493  13.519
11874POPC   H9Y86690   4.887   3.397  13.394
11874POPC  C31086691   4.981   3.587  13.449
11874POPC  H10X86692   5.084   3.557  13.418
11874POPC  H10Y86693   4.990   3.652  13.539
11874POPC  C31186694   4.917   3.674  13.340
11874POPC  H11X86695   4.987   3.757  13.317
11874POPC  H11Y86696   4.824   3.718  13.380
11874POPC  C31286697   4.885   3.597  13.211
11874POPC  H12X86698   4.841   3.669  13.138
11874POPC  H12Y86699   4.807   3.522  13.235
11874POPC  C31386700   5.005   3.527  13.146
11874POPC  H13X86701   4.969   3.457  13.067
11874POPC  H13Y86702   5.059   3.466  13.221
11874POPC  C31486703   5.100   3.628  13.081
11874POPC  H14X86704   5.091   3.724  13.136
11874POPC  H14Y86705   5.064   3.646  12.977
11874POPC  C31586706   5.248   3.590  13.083
11874POPC  H15X86707   5.282   3.584  13.189
11874POPC  H15Y86708   5.305   3.674  13.036
11874POPC  C31686709   5.283   3.460  13.012
11874POPC  H16X86710   5.357   3.480  12.931
11874POPC  H16Y86711   5.193   3.414  12.966
11874POPC  H16Z86712   5.329   3.387  13.082
11875POPC     N86713   3.851   3.854  14.743
11875POPC   C1286714   3.918   3.880  14.608
11875POPC  H12A86715   3.884   3.975  14.570
11875POPC  H12B86716   3.884   3.804  14.538
11875POPC   C1386717   3.905   3.946  14.847
11875POPC  H13A86718   3.887   4.049  14.820
11875POPC  H13B86719   3.859   3.928  14.944
11875POPC  H13C86720   4.012   3.931  14.855
11875POPC   C1486721   3.703   3.870  14.733
11875POPC  H14A86722   3.660   3.802  14.659
11875POPC  H14B86723   3.653   3.852  14.826
11875POPC  H14C86724   3.673   3.968  14.695
11875POPC   C1586725   3.884   3.715  14.785
11875POPC  H15A86726   3.993   3.705  14.776
11875POPC  H15B86727   3.838   3.645  14.717
11875POPC  H15C86728   3.854   3.698  14.887
11875POPC   C1186729   4.073   3.878  14.606
11875POPC  H11A86730   4.114   3.950  14.679
11875POPC  H11B86731   4.103   3.913  14.504
11875POPC     P86732   4.279   3.717  14.601
11875POPC   O1386733   4.286   3.634  14.480
11875POPC   O1486734   4.332   3.654  14.724
11875POPC   O1286735   4.124   3.747  14.631
11875POPC   O1186736   4.345   3.860  14.579
11875POPC    C186737   4.428   3.885  14.465
11875POPC    HA86738   4.471   3.792  14.419
11875POPC    HB86739   4.515   3.947  14.497
11875POPC    C286740   4.356   3.964  14.351
11875POPC    HS86741   4.316   4.057  14.398
11875POPC   O2186742   4.251   3.884  14.297
11875POPC   C2186743   4.146   3.944  14.247
11875POPC   O2286744   4.123   4.064  14.252
11875POPC   C2286745   4.054   3.836  14.188
11875POPC   H2R86746   3.961   3.834  14.249
11875POPC   H2S86747   4.105   3.738  14.200
11875POPC    C386748   4.454   4.004  14.237
11875POPC    HX86749   4.544   4.050  14.283
11875POPC    HY86750   4.406   4.084  14.176
11875POPC   O3186751   4.496   3.889  14.160
11875POPC   C3186752   4.441   3.878  14.039
11875POPC   O3286753   4.364   3.958  13.989
11875POPC   C3286754   4.495   3.755  13.967
11875POPC   H2X86755   4.477   3.667  14.032
11875POPC   H2Y86756   4.604   3.768  13.954
11875POPC   C2386757   4.018   3.856  14.039
11875POPC   H3R86758   4.108   3.887  13.982
11875POPC   H3S86759   3.942   3.937  14.030
11875POPC   C2486760   3.963   3.726  13.977
11875POPC   H4R86761   3.894   3.677  14.049
11875POPC   H4S86762   4.048   3.656  13.958
11875POPC   C2586763   3.886   3.750  13.846
11875POPC   H5R86764   3.796   3.811  13.870
11875POPC   H5S86765   3.849   3.652  13.807
11875POPC   C2686766   3.966   3.821  13.736
11875POPC   H6R86767   4.044   3.753  13.697
11875POPC   H6S86768   4.016   3.911  13.776
11875POPC   C2786769   3.873   3.864  13.621
11875POPC   H7R86770   3.799   3.934  13.665
11875POPC   H7S86771   3.820   3.773  13.585
11875POPC   C2886772   3.939   3.933  13.501
11875POPC   H8R86773   3.865   3.939  13.418
11875POPC   H8S86774   4.022   3.868  13.465
11875POPC   C2986775   3.985   4.072  13.538
11875POPC   H9186776   3.905   4.147  13.552
11875POPC  C21086777   4.113   4.108  13.557
11875POPC  H10186778   4.136   4.212  13.587
11875POPC  C21186779   4.231   4.015  13.545
11875POPC  H11R86780   4.209   3.917  13.593
11875POPC  H11S86781   4.318   4.057  13.601
11875POPC  C21286782   4.275   3.988  13.400
11875POPC  H12R86783   4.196   3.928  13.348
11875POPC  H12S86784   4.367   3.925  13.402
11875POPC  C21386785   4.302   4.116  13.320
11875POPC  H13R86786   4.368   4.183  13.381
11875POPC  H13S86787   4.206   4.170  13.305
11875POPC  C21486788   4.368   4.094  13.183
11875POPC  H14R86789   4.473   4.062  13.198
11875POPC  H14S86790   4.370   4.192  13.132
11875POPC  C21586791   4.296   3.993  13.091
11875POPC  H15R86792   4.314   3.889  13.128
11875POPC  H15S86793   4.344   4.001  12.991
11875POPC  C21686794   4.145   4.018  13.079
11875POPC  H16R86795   4.127   4.126  13.092
11875POPC  H16S86796   4.090   3.969  13.162
11875POPC  C21786797   4.084   3.976  12.944
11875POPC  H17R86798   4.043   3.874  12.954
11875POPC  H17S86799   4.164   3.970  12.867
11875POPC  C21886800   3.973   4.068  12.894
11875POPC  H18R86801   4.010   4.172  12.882
11875POPC  H18S86802   3.888   4.070  12.965
11875POPC  H18T86803   3.936   4.033  12.795
11875POPC   C3386804   4.428   3.736  13.829
11875POPC   H3X86805   4.434   3.831  13.770
11875POPC   H3Y86806   4.320   3.714  13.844
11875POPC   C3486807   4.493   3.626  13.744
11875POPC   H4X86808   4.482   3.528  13.796
11875POPC   H4Y86809   4.601   3.648  13.734
11875POPC   C3586810   4.433   3.614  13.602
11875POPC   H5X86811   4.489   3.537  13.545
11875POPC   H5Y86812   4.446   3.711  13.549
11875POPC   C3686813   4.284   3.577  13.602
11875POPC   H6X86814   4.228   3.654  13.659
11875POPC   H6Y86815   4.270   3.480  13.655
11875POPC   C3786816   4.221   3.569  13.462
11875POPC   H7X86817   4.271   3.489  13.403
11875POPC   H7Y86818   4.236   3.666  13.409
11875POPC   C3886819   4.070   3.539  13.470
11875POPC   H8X86820   4.018   3.621  13.525
11875POPC   H8Y86821   4.059   3.447  13.530
11875POPC   C3986822   4.001   3.517  13.335
11875POPC   H9X86823   3.901   3.470  13.351
11875POPC   H9Y86824   4.062   3.444  13.277
11875POPC  C31086825   3.981   3.647  13.256
11875POPC  H10X86826   4.053   3.724  13.292
11875POPC  H10Y86827   3.879   3.687  13.276
11875POPC  C31186828   4.004   3.629  13.105
11875POPC  H11X86829   3.964   3.719  13.054
11875POPC  H11Y86830   3.948   3.541  13.067
11875POPC  C31286831   4.154   3.614  13.077
11875POPC  H12X86832   4.188   3.516  13.116
11875POPC  H12Y86833   4.207   3.692  13.137
11875POPC  C31386834   4.201   3.629  12.932
11875POPC  H13X86835   4.312   3.624  12.934
11875POPC  H13Y86836   4.176   3.729  12.892
11875POPC  C31486837   4.151   3.523  12.834
11875POPC  H14X86838   4.043   3.539  12.814
11875POPC  H14Y86839   4.162   3.422  12.877
11875POPC  C31586840   4.231   3.532  12.703
11875POPC  H15X86841   4.338   3.510  12.725
11875POPC  H15Y86842   4.224   3.636  12.664
11875POPC  C31686843   4.187   3.435  12.594
11875POPC  H16X86844   4.197   3.330  12.629
11875POPC  H16Y86845   4.247   3.448  12.501
11875POPC  H16Z86846   4.081   3.454  12.568
11876POPC     N86847   4.911   6.035  14.857
11876POPC   C1286848   4.929   6.145  14.753
11876POPC  H12A86849   4.972   6.100  14.664
11876POPC  H12B86850   5.001   6.216  14.791
11876POPC   C1386851   5.045   5.987  14.898
11876POPC  H13A86852   5.102   6.069  14.941
11876POPC  H13B86853   5.032   5.911  14.975
11876POPC  H13C86854   5.096   5.946  14.812
11876POPC   C1486855   4.843   6.092  14.977
11876POPC  H14A86856   4.903   6.171  15.022
11876POPC  H14B86857   4.746   6.132  14.949
11876POPC  H14C86858   4.827   6.016  15.053
11876POPC   C1586859   4.834   5.921  14.800
11876POPC  H15A86860   4.743   5.960  14.754
11876POPC  H15B86861   4.808   5.849  14.878
11876POPC  H15C86862   4.889   5.872  14.721
11876POPC   C1186863   4.804   6.223  14.709
11876POPC  H11A86864   4.840   6.305  14.643
11876POPC  H11B86865   4.755   6.272  14.797
11876POPC     P86866   4.632   6.188  14.516
11876POPC   O1386867   4.660   6.332  14.495
11876POPC   O1486868   4.493   6.144  14.531
11876POPC   O1286869   4.710   6.138  14.645
11876POPC   O1186870   4.700   6.102  14.404
11876POPC    C186871   4.745   5.968  14.423
11876POPC    HA86872   4.661   5.896  14.412
11876POPC    HB86873   4.790   5.953  14.524
11876POPC    C286874   4.854   5.935  14.317
11876POPC    HS86875   4.910   5.844  14.349
11876POPC   O2186876   4.944   6.044  14.297
11876POPC   C2186877   5.013   6.086  14.399
11876POPC   O2286878   5.034   6.025  14.503
11876POPC   C2286879   5.085   6.213  14.351
11876POPC   H2R86880   5.037   6.243  14.256
11876POPC   H2S86881   5.189   6.185  14.327
11876POPC    C386882   4.788   5.909  14.181
11876POPC    HX86883   4.722   5.997  14.161
11876POPC    HY86884   4.721   5.821  14.191
11876POPC   O3186885   4.878   5.896  14.069
11876POPC   C3186886   4.958   5.790  14.064
11876POPC   O3286887   4.975   5.710  14.155
11876POPC   C3286888   5.016   5.772  13.922
11876POPC   H2X86889   4.981   5.672  13.887
11876POPC   H2Y86890   5.127   5.768  13.929
11876POPC   C2386891   5.089   6.335  14.445
11876POPC   H3R86892   5.158   6.314  14.531
11876POPC   H3S86893   4.988   6.356  14.486
11876POPC   C2486894   5.141   6.457  14.368
11876POPC   H4R86895   5.241   6.434  14.324
11876POPC   H4S86896   5.155   6.542  14.438
11876POPC   C2586897   5.048   6.506  14.255
11876POPC   H5R86898   5.053   6.436  14.168
11876POPC   H5S86899   5.083   6.605  14.218
11876POPC   C2686900   4.900   6.516  14.297
11876POPC   H6R86901   4.895   6.561  14.399
11876POPC   H6S86902   4.858   6.413  14.305
11876POPC   C2786903   4.812   6.599  14.203
11876POPC   H7R86904   4.847   6.705  14.205
11876POPC   H7S86905   4.707   6.598  14.242
11876POPC   C2886906   4.810   6.552  14.056
11876POPC   H8R86907   4.914   6.557  14.018
11876POPC   H8S86908   4.750   6.624  13.997
11876POPC   C2986909   4.751   6.413  14.042
11876POPC   H9186910   4.666   6.391  14.108
11876POPC  C21086911   4.798   6.315  13.963
11876POPC  H10186912   4.748   6.217  13.963
11876POPC  C21186913   4.919   6.323  13.873
11876POPC  H11R86914   5.000   6.271  13.926
11876POPC  H11S86915   4.954   6.428  13.858
11876POPC  C21286916   4.905   6.258  13.734
11876POPC  H12R86917   4.848   6.163  13.742
11876POPC  H12S86918   5.007   6.232  13.698
11876POPC  C21386919   4.841   6.352  13.631
11876POPC  H13R86920   4.910   6.438  13.615
11876POPC  H13S86921   4.746   6.392  13.672
11876POPC  C21486922   4.814   6.284  13.496
11876POPC  H14R86923   4.736   6.206  13.509
11876POPC  H14S86924   4.907   6.234  13.462
11876POPC  C21586925   4.768   6.385  13.389
11876POPC  H15R86926   4.852   6.454  13.368
11876POPC  H15S86927   4.685   6.446  13.431
11876POPC  C21686928   4.721   6.323  13.256
11876POPC  H16R86929   4.714   6.405  13.182
11876POPC  H16S86930   4.619   6.281  13.269
11876POPC  C21786931   4.813   6.214  13.201
11876POPC  H17R86932   4.789   6.117  13.250
11876POPC  H17S86933   4.918   6.238  13.227
11876POPC  C21886934   4.804   6.197  13.049
11876POPC  H18R86935   4.832   6.292  12.998
11876POPC  H18S86936   4.701   6.170  13.018
11876POPC  H18T86937   4.873   6.119  13.014
11876POPC   C3386938   4.972   5.879  13.818
11876POPC   H3X86939   5.017   5.977  13.842
11876POPC   H3Y86940   4.862   5.892  13.823
11876POPC   C3486941   5.009   5.842  13.673
11876POPC   H4X86942   4.991   5.733  13.657
11876POPC   H4Y86943   5.118   5.859  13.660
11876POPC   C3586944   4.930   5.923  13.569
11876POPC   H5X86945   4.957   6.030  13.580
11876POPC   H5Y86946   4.821   5.914  13.589
11876POPC   C3686947   4.955   5.884  13.422
11876POPC   H6X86948   4.907   5.960  13.356
11876POPC   H6Y86949   4.907   5.786  13.400
11876POPC   C3786950   5.104   5.875  13.390
11876POPC   H7X86951   5.137   5.770  13.402
11876POPC   H7Y86952   5.159   5.936  13.465
11876POPC   C3886953   5.151   5.926  13.253
11876POPC   H8X86954   5.252   5.881  13.236
11876POPC   H8Y86955   5.165   6.036  13.258
11876POPC   C3986956   5.063   5.892  13.134
11876POPC   H9X86957   4.982   5.967  13.123
11876POPC   H9Y86958   5.015   5.794  13.154
11876POPC  C31086959   5.144   5.883  13.004
11876POPC  H10X86960   5.251   5.860  13.028
11876POPC  H10Y86961   5.143   5.981  12.952
11876POPC  C31186962   5.093   5.774  12.911
11876POPC  H11X86963   5.115   5.675  12.958
11876POPC  H11Y86964   5.149   5.776  12.814
11876POPC  C31286965   4.942   5.783  12.884
11876POPC  H12X86966   4.884   5.793  12.979
11876POPC  H12Y86967   4.907   5.687  12.841
11876POPC  C31386968   4.903   5.895  12.788
11876POPC  H13X86969   4.978   5.902  12.706
11876POPC  H13Y86970   4.905   5.992  12.842
11876POPC  C31486971   4.765   5.869  12.726
11876POPC  H14X86972   4.729   5.962  12.678
11876POPC  H14Y86973   4.693   5.843  12.806
11876POPC  C31586974   4.772   5.758  12.620
11876POPC  H15X86975   4.794   5.660  12.669
11876POPC  H15Y86976   4.857   5.781  12.551
11876POPC  C31686977   4.645   5.741  12.535
11876POPC  H16X86978   4.622   5.836  12.482
11876POPC  H16Y86979   4.558   5.715  12.599
11876POPC  H16Z86980   4.660   5.661  12.460
11877POPC     N86981   5.991   5.165  14.872
11877POPC   C1286982   6.108   5.123  14.786
11877POPC  H12A86983   6.130   5.020  14.812
11877POPC  H12B86984   6.194   5.185  14.811
11877POPC   C1386985   5.870   5.082  14.841
11877POPC  H13A86986   5.888   4.976  14.858
11877POPC  H13B86987   5.786   5.112  14.903
11877POPC  H13C86988   5.841   5.098  14.737
11877POPC   C1486989   6.027   5.154  15.015
11877POPC  H14A86990   6.122   5.204  15.036
11877POPC  H14B86991   5.951   5.202  15.076
11877POPC  H14C86992   6.039   5.049  15.042
11877POPC   C1586993   5.950   5.307  14.844
11877POPC  H15A86994   6.029   5.378  14.858
11877POPC  H15B86995   5.862   5.336  14.901
11877POPC  H15C86996   5.921   5.314  14.738
11877POPC   C1186997   6.091   5.135  14.634
11877POPC  H11A86998   5.998   5.080  14.605
11877POPC  H11B86999   6.176   5.086  14.582
11877POPC     P87000   5.985   5.319  14.490
11877POPC   O1387001   6.030   5.451  14.440
11877POPC   O1487002   5.852   5.306  14.553
11877POPC   O1287003   6.090   5.273  14.599
11877POPC   O1187004   6.010   5.202  14.389
11877POPC    C187005   6.117   5.209  14.295
11877POPC    HA87006   6.175   5.114  14.300
11877POPC    HB87007   6.188   5.294  14.310
11877POPC    C287008   6.050   5.218  14.158
11877POPC    HS87009   6.127   5.195  14.080
11877POPC   O2187010   5.990   5.348  14.140
11877POPC   C2187011   6.075   5.439  14.100
11877POPC   O2287012   6.193   5.419  14.072
11877POPC   C2287013   6.004   5.573  14.080
11877POPC   H2R87014   6.032   5.639  14.165
11877POPC   H2S87015   5.894   5.557  14.082
11877POPC    C387016   5.938   5.111  14.149
11877POPC    HX87017   5.840   5.156  14.179
11877POPC    HY87018   5.959   5.031  14.223
11877POPC   O3187019   5.934   5.051  14.018
11877POPC   C3187020   5.894   5.137  13.925
11877POPC   O3287021   5.839   5.244  13.944
11877POPC   C3287022   5.938   5.087  13.790
11877POPC   H2X87023   5.883   5.147  13.715
11877POPC   H2Y87024   5.908   4.981  13.780
11877POPC   C2387025   6.046   5.635  13.944
11877POPC   H3R87026   6.156   5.624  13.929
11877POPC   H3S87027   6.023   5.744  13.945
11877POPC   C2487028   5.971   5.570  13.827
11877POPC   H4R87029   5.866   5.603  13.833
11877POPC   H4S87030   5.970   5.459  13.835
11877POPC   C2587031   6.024   5.611  13.689
11877POPC   H5R87032   6.121   5.558  13.670
11877POPC   H5S87033   6.046   5.720  13.690
11877POPC   C2687034   5.925   5.581  13.575
11877POPC   H6R87035   5.966   5.634  13.486
11877POPC   H6S87036   5.826   5.626  13.595
11877POPC   C2787037   5.908   5.431  13.546
11877POPC   H7R87038   5.845   5.385  13.626
11877POPC   H7S87039   6.009   5.385  13.553
11877POPC   C2887040   5.848   5.399  13.408
11877POPC   H8R87041   5.743   5.434  13.405
11877POPC   H8S87042   5.847   5.289  13.392
11877POPC   C2987043   5.932   5.467  13.302
11877POPC   H9187044   6.040   5.469  13.323
11877POPC  C21087045   5.890   5.515  13.184
11877POPC  H10187046   5.965   5.560  13.117
11877POPC  C21187047   5.751   5.513  13.126
11877POPC  H11R87048   5.705   5.614  13.121
11877POPC  H11S87049   5.682   5.447  13.184
11877POPC  C21287050   5.773   5.456  12.985
11877POPC  H12R87051   5.847   5.373  12.991
11877POPC  H12S87052   5.817   5.534  12.920
11877POPC  C21387053   5.652   5.394  12.914
11877POPC  H13R87054   5.615   5.463  12.835
11877POPC  H13S87055   5.569   5.378  12.986
11877POPC  C21487056   5.699   5.264  12.849
11877POPC  H14R87057   5.753   5.203  12.925
11877POPC  H14S87058   5.772   5.293  12.771
11877POPC  C21587059   5.591   5.177  12.786
11877POPC  H15R87060   5.532   5.237  12.714
11877POPC  H15S87061   5.522   5.143  12.866
11877POPC  C21687062   5.646   5.051  12.718
11877POPC  H16R87063   5.563   4.984  12.695
11877POPC  H16S87064   5.715   4.995  12.785
11877POPC  C21787065   5.712   5.079  12.585
11877POPC  H17R87066   5.806   5.125  12.616
11877POPC  H17S87067   5.649   5.149  12.525
11877POPC  C21887068   5.751   4.960  12.500
11877POPC  H18R87069   5.802   4.987  12.406
11877POPC  H18S87070   5.659   4.908  12.469
11877POPC  H18T87071   5.817   4.892  12.557
11877POPC   C3387072   6.090   5.105  13.773
11877POPC   H3X87073   6.145   5.023  13.823
11877POPC   H3Y87074   6.124   5.201  13.818
11877POPC   C3487075   6.126   5.110  13.625
11877POPC   H4X87076   6.235   5.127  13.612
11877POPC   H4Y87077   6.073   5.196  13.579
11877POPC   C3587078   6.083   4.983  13.552
11877POPC   H5X87079   5.974   4.965  13.566
11877POPC   H5Y87080   6.138   4.895  13.592
11877POPC   C3687081   6.108   4.998  13.404
11877POPC   H6X87082   6.218   4.998  13.383
11877POPC   H6Y87083   6.068   5.098  13.372
11877POPC   C3787084   6.039   4.890  13.322
11877POPC   H7X87085   5.929   4.907  13.328
11877POPC   H7Y87086   6.060   4.790  13.367
11877POPC   C3887087   6.083   4.891  13.176
11877POPC   H8X87088   6.020   4.824  13.113
11877POPC   H8Y87089   6.189   4.857  13.171
11877POPC   C3987090   6.079   5.029  13.116
11877POPC   H9X87091   6.149   5.089  13.178
11877POPC   H9Y87092   5.977   5.073  13.126
11877POPC  C31087093   6.124   5.036  12.971
11877POPC  H10X87094   6.063   4.968  12.907
11877POPC  H10Y87095   6.231   5.004  12.964
11877POPC  C31187096   6.108   5.180  12.924
11877POPC  H11X87097   6.000   5.197  12.905
11877POPC  H11Y87098   6.164   5.195  12.829
11877POPC  C31287099   6.154   5.280  13.031
11877POPC  H12X87100   6.242   5.239  13.085
11877POPC  H12Y87101   6.072   5.297  13.105
11877POPC  C31387102   6.202   5.411  12.975
11877POPC  H13X87103   6.292   5.382  12.914
11877POPC  H13Y87104   6.235   5.482  13.053
11877POPC  C31487105   6.107   5.484  12.883
11877POPC  H14X87106   6.064   5.574  12.932
11877POPC  H14Y87107   6.023   5.418  12.852
11877POPC  C31587108   6.188   5.522  12.761
11877POPC  H15X87109   6.229   5.428  12.717
11877POPC  H15Y87110   6.273   5.588  12.790
11877POPC  C31687111   6.102   5.590  12.661
11877POPC  H16X87112   6.002   5.546  12.661
11877POPC  H16Y87113   6.145   5.582  12.559
11877POPC  H16Z87114   6.091   5.696  12.690
11878POPC     N87115   3.448   5.216  14.761
11878POPC   C1287116   3.433   5.345  14.837
11878POPC  H12A87117   3.517   5.359  14.904
11878POPC  H12B87118   3.344   5.338  14.900
11878POPC   C1387119   3.317   5.183  14.698
11878POPC  H13A87120   3.291   5.264  14.628
11878POPC  H13B87121   3.319   5.088  14.645
11878POPC  H13C87122   3.237   5.177  14.771
11878POPC   C1487123   3.546   5.236  14.650
11878POPC  H14A87124   3.643   5.265  14.688
11878POPC  H14B87125   3.554   5.151  14.584
11878POPC  H14C87126   3.511   5.321  14.590
11878POPC   C1587127   3.493   5.110  14.856
11878POPC  H15A87128   3.422   5.098  14.937
11878POPC  H15B87129   3.590   5.131  14.901
11878POPC  H15C87130   3.500   5.016  14.803
11878POPC   C1187131   3.428   5.475  14.755
11878POPC  H11A87132   3.532   5.506  14.728
11878POPC  H11B87133   3.388   5.547  14.829
11878POPC     P87134   3.295   5.611  14.586
11878POPC   O1387135   3.235   5.597  14.452
11878POPC   O1487136   3.398   5.715  14.612
11878POPC   O1287137   3.348   5.471  14.636
11878POPC   O1187138   3.185   5.636  14.695
11878POPC    C187139   3.100   5.535  14.748
11878POPC    HA87140   3.085   5.557  14.855
11878POPC    HB87141   3.146   5.433  14.744
11878POPC    C287142   2.961   5.542  14.681
11878POPC    HS87143   2.888   5.496  14.751
11878POPC   O2187144   2.953   5.475  14.554
11878POPC   C2187145   3.002   5.354  14.543
11878POPC   O2287146   3.013   5.271  14.633
11878POPC   C2287147   3.032   5.326  14.395
11878POPC   H2R87148   3.023   5.421  14.337
11878POPC   H2S87149   2.956   5.255  14.358
11878POPC    C387150   2.921   5.692  14.664
11878POPC    HX87151   2.947   5.741  14.760
11878POPC    HY87152   2.812   5.702  14.650
11878POPC   O3187153   2.991   5.759  14.557
11878POPC   C3187154   2.942   5.743  14.435
11878POPC   O3287155   2.834   5.693  14.409
11878POPC   C3287156   3.031   5.820  14.338
11878POPC   H2X87157   3.137   5.803  14.367
11878POPC   H2Y87158   3.009   5.928  14.349
11878POPC   C2387159   3.174   5.268  14.373
11878POPC   H3R87160   3.186   5.177  14.435
11878POPC   H3S87161   3.251   5.342  14.403
11878POPC   C2487162   3.199   5.227  14.227
11878POPC   H4R87163   3.106   5.183  14.186
11878POPC   H4S87164   3.278   5.150  14.223
11878POPC   C2587165   3.247   5.342  14.138
11878POPC   H5R87166   3.351   5.370  14.168
11878POPC   H5S87167   3.183   5.432  14.154
11878POPC   C2687168   3.246   5.306  13.988
11878POPC   H6R87169   3.301   5.211  13.970
11878POPC   H6S87170   3.299   5.386  13.933
11878POPC   C2787171   3.102   5.295  13.934
11878POPC   H7R87172   3.048   5.386  13.968
11878POPC   H7S87173   3.051   5.208  13.980
11878POPC   C2887174   3.092   5.282  13.781
11878POPC   H8R87175   3.134   5.183  13.752
11878POPC   H8S87176   3.159   5.357  13.734
11878POPC   C2987177   2.949   5.296  13.734
11878POPC   H9187178   2.899   5.201  13.709
11878POPC  C21087179   2.876   5.408  13.725
11878POPC  H10187180   2.771   5.399  13.692
11878POPC  C21187181   2.918   5.549  13.760
11878POPC  H11R87182   2.951   5.550  13.867
11878POPC  H11S87183   2.830   5.616  13.755
11878POPC  C21287184   3.032   5.611  13.677
11878POPC  H12R87185   3.117   5.541  13.671
11878POPC  H12S87186   3.068   5.701  13.732
11878POPC  C21387187   2.996   5.658  13.536
11878POPC  H13R87188   3.071   5.733  13.502
11878POPC  H13S87189   2.897   5.709  13.540
11878POPC  C21487190   2.991   5.546  13.432
11878POPC  H14R87191   2.927   5.582  13.348
11878POPC  H14S87192   2.942   5.455  13.473
11878POPC  C21587193   3.128   5.508  13.373
11878POPC  H15R87194   3.189   5.453  13.448
11878POPC  H15S87195   3.182   5.601  13.346
11878POPC  C21687196   3.108   5.423  13.247
11878POPC  H16R87197   3.030   5.474  13.186
11878POPC  H16S87198   3.069   5.322  13.274
11878POPC  C21787199   3.229   5.409  13.156
11878POPC  H17R87200   3.290   5.322  13.188
11878POPC  H17S87201   3.291   5.500  13.163
11878POPC  C21887202   3.184   5.392  13.010
11878POPC  H18R87203   3.106   5.313  13.004
11878POPC  H18S87204   3.269   5.364  12.945
11878POPC  H18T87205   3.141   5.486  12.972
11878POPC   C3387206   3.012   5.776  14.192
11878POPC   H3X87207   2.906   5.782  14.160
11878POPC   H3Y87208   3.045   5.669  14.182
11878POPC   C3487209   3.098   5.863  14.101
11878POPC   H4X87210   3.185   5.898  14.161
11878POPC   H4Y87211   3.039   5.953  14.071
11878POPC   C3587212   3.153   5.797  13.975
11878POPC   H5X87213   3.133   5.866  13.891
11878POPC   H5Y87214   3.101   5.701  13.953
11878POPC   C3687215   3.305   5.778  13.974
11878POPC   H6X87216   3.336   5.694  14.040
11878POPC   H6Y87217   3.352   5.871  14.015
11878POPC   C3787218   3.359   5.761  13.831
11878POPC   H7X87219   3.458   5.809  13.825
11878POPC   H7Y87220   3.293   5.816  13.761
11878POPC   C3887221   3.368   5.615  13.787
11878POPC   H8X87222   3.278   5.561  13.823
11878POPC   H8Y87223   3.457   5.567  13.835
11878POPC   C3987224   3.376   5.598  13.634
11878POPC   H9X87225   3.283   5.638  13.589
11878POPC   H9Y87226   3.383   5.490  13.608
11878POPC  C31087227   3.492   5.675  13.571
11878POPC  H10X87228   3.588   5.632  13.608
11878POPC  H10Y87229   3.484   5.781  13.603
11878POPC  C31187230   3.491   5.678  13.418
11878POPC  H11X87231   3.568   5.751  13.385
11878POPC  H11Y87232   3.392   5.714  13.381
11878POPC  C31287233   3.524   5.544  13.352
11878POPC  H12X87234   3.438   5.474  13.364
11878POPC  H12Y87235   3.612   5.498  13.402
11878POPC  C31387236   3.555   5.565  13.204
11878POPC  H13X87237   3.645   5.631  13.195
11878POPC  H13Y87238   3.470   5.621  13.159
11878POPC  C31487239   3.579   5.436  13.126
11878POPC  H14X87240   3.506   5.360  13.161
11878POPC  H14Y87241   3.681   5.397  13.147
11878POPC  C31587242   3.559   5.456  12.975
11878POPC  H15X87243   3.639   5.522  12.936
11878POPC  H15Y87244   3.462   5.509  12.959
11878POPC  C31687245   3.557   5.325  12.898
11878POPC  H16X87246   3.475   5.260  12.938
11878POPC  H16Y87247   3.653   5.270  12.910
11878POPC  H16Z87248   3.538   5.342  12.790
11879POPC     N87249   5.717   3.486  14.683
11879POPC   C1287250   5.757   3.591  14.582
11879POPC  H12A87251   5.682   3.595  14.502
11879POPC  H12B87252   5.851   3.561  14.537
11879POPC   C1387253   5.619   3.545  14.779
11879POPC  H13A87254   5.534   3.589  14.731
11879POPC  H13B87255   5.593   3.478  14.859
11879POPC  H13C87256   5.671   3.629  14.828
11879POPC   C1487257   5.665   3.364  14.617
11879POPC  H14A87258   5.619   3.301  14.692
11879POPC  H14B87259   5.591   3.388  14.541
11879POPC  H14C87260   5.745   3.308  14.569
11879POPC   C1587261   5.840   3.451  14.762
11879POPC  H15A87262   5.913   3.401  14.701
11879POPC  H15B87263   5.815   3.388  14.847
11879POPC  H15C87264   5.885   3.544  14.798
11879POPC   C1187265   5.775   3.736  14.635
11879POPC  H11A87266   5.681   3.793  14.615
11879POPC  H11B87267   5.854   3.780  14.569
11879POPC     P87268   5.932   3.822  14.824
11879POPC   O1387269   6.046   3.728  14.810
11879POPC   O1487270   5.905   3.871  14.960
11879POPC   O1287271   5.805   3.743  14.775
11879POPC   O1187272   5.931   3.940  14.718
11879POPC    C187273   6.043   3.937  14.630
11879POPC    HA87274   6.071   3.833  14.600
11879POPC    HB87275   6.132   3.983  14.680
11879POPC    C287276   6.023   4.012  14.497
11879POPC    HS87277   6.054   4.118  14.518
11879POPC   O2187278   5.892   4.002  14.436
11879POPC   C2187279   5.829   4.118  14.431
11879POPC   O2287280   5.841   4.210  14.510
11879POPC   C2287281   5.752   4.135  14.296
11879POPC   H2R87282   5.819   4.201  14.237
11879POPC   H2S87283   5.658   4.191  14.317
11879POPC    C387284   6.130   3.954  14.401
11879POPC    HX87285   6.197   3.880  14.451
11879POPC    HY87286   6.192   4.044  14.386
11879POPC   O3187287   6.082   3.897  14.277
11879POPC   C3187288   6.084   3.989  14.183
11879POPC   O3287289   6.062   4.108  14.198
11879POPC   C3287290   6.143   3.929  14.057
11879POPC   H2X87291   6.076   3.850  14.019
11879POPC   H2Y87292   6.240   3.883  14.084
11879POPC   C2387293   5.724   4.012  14.203
11879POPC   H3R87294   5.627   3.964  14.232
11879POPC   H3S87295   5.804   3.936  14.216
11879POPC   C2487296   5.715   4.047  14.053
11879POPC   H4R87297   5.803   4.107  14.021
11879POPC   H4S87298   5.625   4.112  14.038
11879POPC   C2587299   5.701   3.920  13.966
11879POPC   H5R87300   5.643   3.846  14.024
11879POPC   H5S87301   5.802   3.876  13.950
11879POPC   C2687302   5.630   3.937  13.830
11879POPC   H6R87303   5.535   3.993  13.843
11879POPC   H6S87304   5.604   3.836  13.790
11879POPC   C2787305   5.716   4.007  13.725
11879POPC   H7R87306   5.799   3.941  13.698
11879POPC   H7S87307   5.762   4.096  13.773
11879POPC   C2887308   5.644   4.050  13.596
11879POPC   H8R87309   5.704   4.133  13.554
11879POPC   H8S87310   5.544   4.092  13.621
11879POPC   C2987311   5.631   3.941  13.492
11879POPC   H9187312   5.540   3.880  13.502
11879POPC  C21087313   5.720   3.910  13.395
11879POPC  H10187314   5.695   3.826  13.328
11879POPC  C21187315   5.853   3.975  13.366
11879POPC  H11R87316   5.907   3.914  13.290
11879POPC  H11S87317   5.917   3.973  13.457
11879POPC  C21287318   5.851   4.120  13.314
11879POPC  H12R87319   5.955   4.151  13.293
11879POPC  H12S87320   5.815   4.188  13.395
11879POPC  C21387321   5.762   4.143  13.191
11879POPC  H13R87322   5.750   4.253  13.178
11879POPC  H13S87323   5.661   4.100  13.208
11879POPC  C21487324   5.819   4.089  13.059
11879POPC  H14R87325   5.742   4.100  12.979
11879POPC  H14S87326   5.844   3.981  13.068
11879POPC  C21587327   5.943   4.169  13.019
11879POPC  H15R87328   6.023   4.151  13.094
11879POPC  H15S87329   5.919   4.278  13.022
11879POPC  C21687330   6.001   4.137  12.881
11879POPC  H16R87331   5.924   4.155  12.803
11879POPC  H16S87332   6.033   4.030  12.877
11879POPC  C21787333   6.119   4.229  12.855
11879POPC  H17R87334   6.187   4.225  12.943
11879POPC  H17S87335   6.081   4.333  12.847
11879POPC  C21887336   6.198   4.196  12.730
11879POPC  H18R87337   6.226   4.088  12.727
11879POPC  H18S87338   6.291   4.256  12.733
11879POPC  H18T87339   6.142   4.221  12.638
11879POPC   C3387340   6.172   4.039  13.954
11879POPC   H3X87341   6.269   4.087  13.980
11879POPC   H3Y87342   6.094   4.119  13.959
11879POPC   C3487343   6.174   3.991  13.809
11879POPC   H4X87344   6.258   3.922  13.791
11879POPC   H4Y87345   6.191   4.080  13.746
11879POPC   C3587346   6.041   3.930  13.764
11879POPC   H5X87347   5.995   3.999  13.690
11879POPC   H5Y87348   5.972   3.924  13.851
11879POPC   C3687349   6.056   3.790  13.702
11879POPC   H6X87350   6.100   3.722  13.777
11879POPC   H6Y87351   6.127   3.801  13.617
11879POPC   C3787352   5.924   3.728  13.653
11879POPC   H7X87353   5.880   3.793  13.575
11879POPC   H7Y87354   5.852   3.724  13.738
11879POPC   C3887355   5.937   3.587  13.593
11879POPC   H8X87356   5.836   3.546  13.571
11879POPC   H8Y87357   5.984   3.522  13.670
11879POPC   C3987358   6.022   3.584  13.465
11879POPC   H9X87359   6.088   3.495  13.469
11879POPC   H9Y87360   6.087   3.674  13.463
11879POPC  C31087361   5.945   3.581  13.333
11879POPC  H10X87362   5.861   3.654  13.335
11879POPC  H10Y87363   5.902   3.480  13.318
11879POPC  C31187364   6.041   3.616  13.217
11879POPC  H11X87365   6.135   3.558  13.234
11879POPC  H11Y87366   6.068   3.724  13.222
11879POPC  C31287367   5.992   3.579  13.077
11879POPC  H12X87368   5.975   3.469  13.078
11879POPC  H12Y87369   6.072   3.599  13.003
11879POPC  C31387370   5.862   3.647  13.028
11879POPC  H13X87371   5.886   3.746  12.982
11879POPC  H13Y87372   5.793   3.664  13.113
11879POPC  C31487373   5.795   3.554  12.926
11879POPC  H14X87374   5.786   3.454  12.975
11879POPC  H14Y87375   5.862   3.543  12.838
11879POPC  C31587376   5.655   3.590  12.879
11879POPC  H15X87377   5.658   3.685  12.820
11879POPC  H15Y87378   5.589   3.606  12.967
11879POPC  C31687379   5.599   3.477  12.793
11879POPC  H16X87380   5.658   3.464  12.700
11879POPC  H16Y87381   5.494   3.498  12.765
11879POPC  H16Z87382   5.600   3.381  12.849
11880POPC     N87383   3.095   3.890  14.819
11880POPC   C1287384   3.092   3.848  14.673
11880POPC  H12A87385   3.056   3.931  14.611
11880POPC  H12B87386   3.024   3.765  14.661
11880POPC   C1387387   3.130   4.035  14.831
11880POPC  H13A87388   3.061   4.099  14.776
11880POPC  H13B87389   3.126   4.068  14.935
11880POPC  H13C87390   3.229   4.050  14.789
11880POPC   C1487391   2.963   3.867  14.884
11880POPC  H14A87392   2.967   3.903  14.986
11880POPC  H14B87393   2.885   3.926  14.837
11880POPC  H14C87394   2.933   3.763  14.885
11880POPC   C1587395   3.201   3.817  14.895
11880POPC  H15A87396   3.177   3.714  14.914
11880POPC  H15B87397   3.221   3.865  14.990
11880POPC  H15C87398   3.293   3.822  14.835
11880POPC   C1187399   3.226   3.807  14.610
11880POPC  H11A87400   3.205   3.778  14.504
11880POPC  H11B87401   3.266   3.716  14.661
11880POPC     P87402   3.444   3.912  14.526
11880POPC   O1387403   3.506   3.779  14.544
11880POPC   O1487404   3.527   4.030  14.561
11880POPC   O1287405   3.317   3.916  14.621
11880POPC   O1187406   3.381   3.928  14.381
11880POPC    C187407   3.388   4.053  14.313
11880POPC    HA87408   3.442   4.037  14.217
11880POPC    HB87409   3.445   4.132  14.368
11880POPC    C287410   3.250   4.116  14.281
11880POPC    HS87411   3.201   4.143  14.376
11880POPC   O2187412   3.167   4.026  14.207
11880POPC   C2187413   3.086   3.947  14.274
11880POPC   O2287414   3.045   3.961  14.388
11880POPC   C2287415   3.049   3.834  14.178
11880POPC   H2R87416   3.052   3.873  14.074
11880POPC   H2S87417   2.945   3.802  14.199
11880POPC    C387418   3.271   4.244  14.196
11880POPC    HX87419   3.313   4.323  14.261
11880POPC    HY87420   3.171   4.277  14.159
11880POPC   O3187421   3.363   4.215  14.088
11880POPC   C3187422   3.359   4.304  13.990
11880POPC   O3287423   3.291   4.405  13.991
11880POPC   C3287424   3.452   4.259  13.877
11880POPC   H2X87425   3.468   4.150  13.887
11880POPC   H2Y87426   3.550   4.308  13.888
11880POPC   C2387427   3.147   3.715  14.193
11880POPC   H3R87428   3.111   3.649  14.275
11880POPC   H3S87429   3.248   3.751  14.223
11880POPC   C2487430   3.166   3.630  14.065
11880POPC   H4R87431   3.068   3.591  14.033
11880POPC   H4S87432   3.232   3.544  14.092
11880POPC   C2587433   3.227   3.701  13.943
11880POPC   H5R87434   3.149   3.764  13.894
11880POPC   H5S87435   3.256   3.623  13.869
11880POPC   C2687436   3.348   3.788  13.977
11880POPC   H6R87437   3.424   3.725  14.028
11880POPC   H6S87438   3.317   3.868  14.049
11880POPC   C2787439   3.410   3.855  13.855
11880POPC   H7R87440   3.487   3.927  13.894
11880POPC   H7S87441   3.333   3.914  13.801
11880POPC   C2887442   3.477   3.756  13.759
11880POPC   H8R87443   3.400   3.691  13.713
11880POPC   H8S87444   3.546   3.691  13.817
11880POPC   C2987445   3.555   3.835  13.657
11880POPC   H9187446   3.609   3.920  13.700
11880POPC  C21087447   3.557   3.818  13.524
11880POPC  H10187448   3.619   3.884  13.461
11880POPC  C21187449   3.477   3.714  13.452
11880POPC  H11R87450   3.477   3.617  13.508
11880POPC  H11S87451   3.517   3.693  13.351
11880POPC  C21287452   3.334   3.767  13.442
11880POPC  H12R87453   3.331   3.847  13.365
11880POPC  H12S87454   3.299   3.811  13.538
11880POPC  C21387455   3.238   3.655  13.407
11880POPC  H13R87456   3.203   3.606  13.501
11880POPC  H13S87457   3.291   3.578  13.347
11880POPC  C21487458   3.119   3.706  13.326
11880POPC  H14R87459   3.155   3.778  13.250
11880POPC  H14S87460   3.047   3.757  13.394
11880POPC  C21587461   3.052   3.591  13.253
11880POPC  H15R87462   2.942   3.604  13.252
11880POPC  H15S87463   3.076   3.497  13.309
11880POPC  C21687464   3.104   3.575  13.111
11880POPC  H16R87465   3.089   3.468  13.081
11880POPC  H16S87466   3.213   3.595  13.107
11880POPC  C21787467   3.030   3.662  13.011
11880POPC  H17R87468   3.049   3.770  13.029
11880POPC  H17S87469   2.920   3.646  13.024
11880POPC  C21887470   3.072   3.623  12.871
11880POPC  H18R87471   2.995   3.654  12.799
11880POPC  H18S87472   3.080   3.513  12.863
11880POPC  H18T87473   3.170   3.666  12.843
11880POPC   C3387474   3.392   4.289  13.738
11880POPC   H3X87475   3.459   4.246  13.660
11880POPC   H3Y87476   3.384   4.399  13.720
11880POPC   C3487477   3.253   4.224  13.726
11880POPC   H4X87478   3.177   4.283  13.783
11880POPC   H4Y87479   3.262   4.126  13.777
11880POPC   C3587480   3.203   4.200  13.583
11880POPC   H5X87481   3.288   4.205  13.512
11880POPC   H5Y87482   3.132   4.281  13.555
11880POPC   C3687483   3.138   4.061  13.571
11880POPC   H6X87484   3.139   4.009  13.669
11880POPC   H6Y87485   3.199   4.000  13.502
11880POPC   C3787486   2.991   4.061  13.525
11880POPC   H7X87487   2.929   4.123  13.594
11880POPC   H7Y87488   2.957   3.957  13.534
11880POPC   C3887489   2.969   4.106  13.380
11880POPC   H8X87490   3.018   4.204  13.366
11880POPC   H8Y87491   2.860   4.117  13.362
11880POPC   C3987492   3.022   4.007  13.276
11880POPC   H9X87493   2.952   3.921  13.270
11880POPC   H9Y87494   3.120   3.970  13.313
11880POPC  C31087495   3.043   4.067  13.137
11880POPC  H10X87496   2.951   4.122  13.106
11880POPC  H10Y87497   3.061   3.986  13.064
11880POPC  C31187498   3.165   4.159  13.133
11880POPC  H11X87499   3.154   4.242  13.206
11880POPC  H11Y87500   3.170   4.204  13.031
11880POPC  C31287501   3.295   4.084  13.164
11880POPC  H12X87502   3.284   3.978  13.135
11880POPC  H12Y87503   3.313   4.086  13.274
11880POPC  C31387504   3.417   4.139  13.090
11880POPC  H13X87505   3.506   4.082  13.126
11880POPC  H13Y87506   3.433   4.246  13.116
11880POPC  C31487507   3.405   4.123  12.938
11880POPC  H14X87508   3.346   4.209  12.899
11880POPC  H14Y87509   3.351   4.029  12.912
11880POPC  C31587510   3.542   4.123  12.871
11880POPC  H15X87511   3.604   4.192  12.932
11880POPC  H15Y87512   3.532   4.164  12.768
11880POPC  C31687513   3.616   3.990  12.865
11880POPC  H16X87514   3.704   3.999  12.797
11880POPC  H16Y87515   3.551   3.909  12.827
11880POPC  H16Z87516   3.655   3.962  12.966
11881POPC     N87517   3.776   6.220  14.857
11881POPC   C1287518   3.757   6.097  14.770
11881POPC  H12A87519   3.660   6.106  14.721
11881POPC  H12B87520   3.753   6.008  14.831
11881POPC   C1387521   3.736   6.345  14.782
11881POPC  H13A87522   3.795   6.354  14.689
11881POPC  H13B87523   3.632   6.341  14.751
11881POPC  H13C87524   3.753   6.434  14.840
11881POPC   C1487525   3.695   6.212  14.982
11881POPC  H14A87526   3.589   6.203  14.961
11881POPC  H14B87527   3.726   6.129  15.044
11881POPC  H14C87528   3.705   6.302  15.043
11881POPC   C1587529   3.919   6.236  14.897
11881POPC  H15A87530   3.932   6.328  14.952
11881POPC  H15B87531   3.983   6.240  14.808
11881POPC  H15C87532   3.952   6.153  14.958
11881POPC   C1187533   3.862   6.075  14.658
11881POPC  H11A87534   3.830   5.990  14.593
11881POPC  H11B87535   3.960   6.045  14.704
11881POPC     P87536   4.005   6.257  14.532
11881POPC   O1387537   4.107   6.227  14.635
11881POPC   O1487538   3.974   6.400  14.504
11881POPC   O1287539   3.870   6.192  14.580
11881POPC   O1187540   4.031   6.176  14.397
11881POPC    C187541   3.923   6.162  14.303
11881POPC    HA87542   3.905   6.259  14.253
11881POPC    HB87543   3.830   6.132  14.356
11881POPC    C287544   3.943   6.051  14.193
11881POPC    HS87545   3.967   5.955  14.244
11881POPC   O2187546   4.046   6.087  14.099
11881POPC   C2187547   4.104   5.989  14.029
11881POPC   O2287548   4.087   5.869  14.042
11881POPC   C2287549   4.201   6.054  13.930
11881POPC   H2R87550   4.303   6.039  13.971
11881POPC   H2S87551   4.181   6.163  13.925
11881POPC    C387552   3.806   6.036  14.119
11881POPC    HX87553   3.783   6.135  14.074
11881POPC    HY87554   3.728   6.012  14.194
11881POPC   O3187555   3.811   5.933  14.018
11881POPC   C3187556   3.706   5.932  13.938
11881POPC   O3287557   3.608   6.005  13.948
11881POPC   C3287558   3.729   5.824  13.832
11881POPC   H2X87559   3.656   5.743  13.850
11881POPC   H2Y87560   3.831   5.782  13.843
11881POPC   C2387561   4.190   5.992  13.788
11881POPC   H3R87562   4.099   6.032  13.738
11881POPC   H3S87563   4.179   5.881  13.796
11881POPC   C2487564   4.314   6.020  13.702
11881POPC   H4R87565   4.400   5.965  13.747
11881POPC   H4S87566   4.337   6.128  13.703
11881POPC   C2587567   4.294   5.973  13.557
11881POPC   H5R87568   4.224   6.043  13.506
11881POPC   H5S87569   4.247   5.873  13.558
11881POPC   C2687570   4.425   5.963  13.478
11881POPC   H6R87571   4.483   5.877  13.520
11881POPC   H6S87572   4.486   6.055  13.492
11881POPC   C2787573   4.403   5.939  13.327
11881POPC   H7R87574   4.327   5.859  13.314
11881POPC   H7S87575   4.499   5.902  13.284
11881POPC   C2887576   4.361   6.067  13.251
11881POPC   H8R87577   4.443   6.141  13.264
11881POPC   H8S87578   4.272   6.110  13.301
11881POPC   C2987579   4.335   6.047  13.104
11881POPC   H9187580   4.417   6.079  13.037
11881POPC  C21087581   4.224   5.995  13.048
11881POPC  H10187582   4.220   5.981  12.939
11881POPC  C21187583   4.102   5.944  13.121
11881POPC  H11R87584   4.108   5.965  13.230
11881POPC  H11S87585   4.099   5.835  13.109
11881POPC  C21287586   3.965   5.995  13.070
11881POPC  H12R87587   3.980   6.098  13.030
11881POPC  H12S87588   3.894   6.003  13.155
11881POPC  C21387589   3.902   5.906  12.961
11881POPC  H13R87590   3.983   5.863  12.897
11881POPC  H13S87591   3.840   5.972  12.899
11881POPC  C21487592   3.806   5.794  13.007
11881POPC  H14R87593   3.831   5.757  13.108
11881POPC  H14S87594   3.818   5.709  12.936
11881POPC  C21587595   3.658   5.836  13.000
11881POPC  H15R87596   3.594   5.746  13.003
11881POPC  H15S87597   3.641   5.884  12.902
11881POPC  C21687598   3.614   5.929  13.115
11881POPC  H16R87599   3.683   6.016  13.121
11881POPC  H16S87600   3.622   5.873  13.211
11881POPC  C21787601   3.471   5.982  13.097
11881POPC  H17R87602   3.444   6.040  13.189
11881POPC  H17S87603   3.401   5.896  13.091
11881POPC  C21887604   3.455   6.072  12.974
11881POPC  H18R87605   3.488   6.020  12.881
11881POPC  H18S87606   3.518   6.163  12.985
11881POPC  H18T87607   3.350   6.102  12.960
11881POPC   C3387608   3.713   5.880  13.689
11881POPC   H3X87609   3.615   5.932  13.678
11881POPC   H3Y87610   3.715   5.795  13.617
11881POPC   C3487611   3.826   5.972  13.647
11881POPC   H4X87612   3.920   5.912  13.643
11881POPC   H4Y87613   3.840   6.053  13.722
11881POPC   C3587614   3.800   6.034  13.510
11881POPC   H5X87615   3.762   5.958  13.438
11881POPC   H5Y87616   3.900   6.067  13.473
11881POPC   C3687617   3.703   6.153  13.517
11881POPC   H6X87618   3.737   6.221  13.599
11881POPC   H6Y87619   3.601   6.118  13.542
11881POPC   C3787620   3.698   6.237  13.388
11881POPC   H7X87621   3.636   6.327  13.405
11881POPC   H7Y87622   3.649   6.178  13.307
11881POPC   C3887623   3.838   6.279  13.342
11881POPC   H8X87624   3.894   6.188  13.311
11881POPC   H8Y87625   3.894   6.327  13.426
11881POPC   C3987626   3.838   6.370  13.219
11881POPC   H9X87627   3.788   6.467  13.241
11881POPC   H9Y87628   3.777   6.316  13.144
11881POPC  C31087629   3.981   6.393  13.167
11881POPC  H10X87630   4.036   6.296  13.165
11881POPC  H10Y87631   4.033   6.458  13.242
11881POPC  C31187632   3.991   6.459  13.028
11881POPC  H11X87633   4.091   6.508  13.019
11881POPC  H11Y87634   3.914   6.539  13.020
11881POPC  C31287635   3.975   6.364  12.908
11881POPC  H12X87636   4.047   6.280  12.914
11881POPC  H12Y87637   4.000   6.420  12.816
11881POPC  C31387638   3.831   6.311  12.897
11881POPC  H13X87639   3.766   6.382  12.953
11881POPC  H13Y87640   3.824   6.212  12.946
11881POPC  C31487641   3.769   6.307  12.757
11881POPC  H14X87642   3.749   6.410  12.725
11881POPC  H14Y87643   3.671   6.256  12.767
11881POPC  C31587644   3.853   6.239  12.649
11881POPC  H15X87645   3.946   6.298  12.633
11881POPC  H15Y87646   3.796   6.241  12.553
11881POPC  C31687647   3.890   6.096  12.684
11881POPC  H16X87648   3.798   6.041  12.714
11881POPC  H16Y87649   3.961   6.097  12.770
11881POPC  H16Z87650   3.937   6.042  12.599
11882POPC     N87651   5.639   6.178  14.878
11882POPC   C1287652   5.492   6.169  14.837
11882POPC  H12A87653   5.445   6.264  14.861
11882POPC  H12B87654   5.444   6.096  14.902
11882POPC   C1387655   5.642   6.239  15.017
11882POPC  H13A87656   5.588   6.179  15.090
11882POPC  H13B87657   5.742   6.253  15.052
11882POPC  H13C87658   5.594   6.337  15.016
11882POPC   C1487659   5.701   6.042  14.874
11882POPC  H14A87660   5.693   6.003  14.772
11882POPC  H14B87661   5.806   6.043  14.899
11882POPC  H14C87662   5.653   5.969  14.938
11882POPC   C1587663   5.710   6.270  14.785
11882POPC  H15A87664   5.677   6.372  14.797
11882POPC  H15B87665   5.695   6.240  14.681
11882POPC  H15C87666   5.817   6.274  14.801
11882POPC   C1187667   5.454   6.134  14.692
11882POPC  H11A87668   5.490   6.215  14.625
11882POPC  H11B87669   5.343   6.131  14.684
11882POPC     P87670   5.587   5.981  14.525
11882POPC   O1387671   5.697   5.890  14.563
11882POPC   O1487672   5.626   6.111  14.463
11882POPC   O1287673   5.505   6.005  14.660
11882POPC   O1187674   5.475   5.911  14.438
11882POPC    C187675   5.393   5.994  14.355
11882POPC    HA87676   5.441   6.090  14.323
11882POPC    HB87677   5.299   6.017  14.408
11882POPC    C287678   5.364   5.916  14.226
11882POPC    HS87679   5.314   5.823  14.256
11882POPC   O2187680   5.492   5.890  14.162
11882POPC   C2187681   5.484   5.785  14.082
11882POPC   O2287682   5.381   5.744  14.031
11882POPC   C2287683   5.616   5.711  14.069
11882POPC   H2R87684   5.622   5.642  14.156
11882POPC   H2S87685   5.701   5.781  14.076
11882POPC    C387686   5.266   5.994  14.133
11882POPC    HX87687   5.164   5.982  14.177
11882POPC    HY87688   5.266   5.941  14.035
11882POPC   O3187689   5.296   6.134  14.123
11882POPC   C3187690   5.241   6.186  14.014
11882POPC   O3287691   5.176   6.122  13.933
11882POPC   C3287692   5.276   6.332  13.996
11882POPC   H2X87693   5.327   6.370  14.086
11882POPC   H2Y87694   5.182   6.389  13.981
11882POPC   C2387695   5.617   5.630  13.937
11882POPC   H3R87696   5.526   5.567  13.929
11882POPC   H3S87697   5.703   5.560  13.937
11882POPC   C2487698   5.617   5.718  13.812
11882POPC   H4R87699   5.716   5.714  13.763
11882POPC   H4S87700   5.597   5.823  13.837
11882POPC   C2587701   5.511   5.680  13.708
11882POPC   H5R87702   5.409   5.696  13.749
11882POPC   H5S87703   5.522   5.572  13.688
11882POPC   C2687704   5.533   5.759  13.580
11882POPC   H6R87705   5.562   5.693  13.495
11882POPC   H6S87706   5.621   5.822  13.599
11882POPC   C2787707   5.417   5.851  13.543
11882POPC   H7R87708   5.381   5.904  13.634
11882POPC   H7S87709   5.334   5.787  13.507
11882POPC   C2887710   5.454   5.953  13.433
11882POPC   H8R87711   5.360   5.986  13.385
11882POPC   H8S87712   5.513   5.902  13.354
11882POPC   C2987713   5.524   6.076  13.484
11882POPC   H9187714   5.634   6.077  13.478
11882POPC  C21087715   5.463   6.184  13.535
11882POPC  H10187716   5.525   6.269  13.569
11882POPC  C21187717   5.315   6.202  13.551
11882POPC  H11R87718   5.282   6.160  13.649
11882POPC  H11S87719   5.257   6.145  13.475
11882POPC  C21287720   5.276   6.351  13.539
11882POPC  H12R87721   5.347   6.414  13.597
11882POPC  H12S87722   5.175   6.366  13.584
11882POPC  C21387723   5.273   6.397  13.394
11882POPC  H13R87724   5.362   6.357  13.340
11882POPC  H13S87725   5.277   6.508  13.389
11882POPC  C21487726   5.145   6.351  13.322
11882POPC  H14R87727   5.060   6.409  13.365
11882POPC  H14S87728   5.124   6.243  13.342
11882POPC  C21587729   5.152   6.376  13.171
11882POPC  H15R87730   5.230   6.453  13.156
11882POPC  H15S87731   5.055   6.418  13.137
11882POPC  C21687732   5.182   6.249  13.089
11882POPC  H16R87733   5.101   6.175  13.108
11882POPC  H16S87734   5.278   6.204  13.122
11882POPC  C21787735   5.185   6.276  12.938
11882POPC  H17R87736   5.085   6.317  12.909
11882POPC  H17S87737   5.198   6.181  12.882
11882POPC  C21887738   5.294   6.374  12.895
11882POPC  H18R87739   5.266   6.424  12.801
11882POPC  H18S87740   5.391   6.322  12.883
11882POPC  H18T87741   5.308   6.453  12.970
11882POPC   C3387742   5.361   6.338  13.867
11882POPC   H3X87743   5.388   6.441  13.838
11882POPC   H3Y87744   5.295   6.303  13.786
11882POPC   C3487745   5.487   6.249  13.872
11882POPC   H4X87746   5.553   6.274  13.786
11882POPC   H4Y87747   5.455   6.143  13.859
11882POPC   C3587748   5.567   6.263  14.001
11882POPC   H5X87749   5.500   6.256  14.090
11882POPC   H5Y87750   5.611   6.366  14.003
11882POPC   C3687751   5.679   6.161  14.029
11882POPC   H6X87752   5.666   6.125  14.134
11882POPC   H6Y87753   5.773   6.218  14.024
11882POPC   C3787754   5.696   6.039  13.937
11882POPC   H7X87755   5.596   5.999  13.914
11882POPC   H7Y87756   5.752   5.963  13.997
11882POPC   C3887757   5.781   6.069  13.813
11882POPC   H8X87758   5.854   6.145  13.846
11882POPC   H8Y87759   5.717   6.114  13.734
11882POPC   C3987760   5.873   5.960  13.756
11882POPC   H9X87761   5.848   5.864  13.807
11882POPC   H9Y87762   5.979   5.981  13.781
11882POPC  C31087763   5.858   5.941  13.603
11882POPC  H10X87764   5.752   5.950  13.578
11882POPC  H10Y87765   5.892   5.839  13.577
11882POPC  C31187766   5.926   6.040  13.508
11882POPC  H11X87767   6.030   6.058  13.542
11882POPC  H11Y87768   5.872   6.137  13.510
11882POPC  C31287769   5.931   5.985  13.363
11882POPC  H12X87770   5.956   5.877  13.365
11882POPC  H12Y87771   6.013   6.037  13.309
11882POPC  C31387772   5.802   6.004  13.279
11882POPC  H13X87773   5.773   6.111  13.281
11882POPC  H13Y87774   5.720   5.944  13.324
11882POPC  C31487775   5.819   5.960  13.132
11882POPC  H14X87776   5.818   5.848  13.128
11882POPC  H14Y87777   5.918   5.994  13.096
11882POPC  C31587778   5.712   6.015  13.036
11882POPC  H15X87779   5.729   5.970  12.935
11882POPC  H15Y87780   5.729   6.125  13.024
11882POPC  C31687781   5.567   5.992  13.078
11882POPC  H16X87782   5.498   6.033  13.001
11882POPC  H16Y87783   5.546   6.044  13.174
11882POPC  H16Z87784   5.546   5.884  13.090
11883POPC     N87785   4.292   3.100  14.759
11883POPC   C1287786   4.361   2.967  14.790
11883POPC  H12A87787   4.308   2.917  14.871
11883POPC  H12B87788   4.462   2.988  14.826
11883POPC   C1387789   4.173   3.078  14.671
11883POPC  H13A87790   4.094   3.027  14.724
11883POPC  H13B87791   4.139   3.172  14.632
11883POPC  H13C87792   4.205   3.016  14.588
11883POPC   C1487793   4.252   3.168  14.886
11883POPC  H14A87794   4.338   3.190  14.948
11883POPC  H14B87795   4.200   3.259  14.864
11883POPC  H14C87796   4.187   3.104  14.946
11883POPC   C1587797   4.388   3.186  14.684
11883POPC  H15A87798   4.417   3.135  14.592
11883POPC  H15B87799   4.482   3.198  14.738
11883POPC  H15C87800   4.348   3.284  14.660
11883POPC   C1187801   4.382   2.866  14.674
11883POPC  H11A87802   4.284   2.835  14.633
11883POPC  H11B87803   4.427   2.771  14.714
11883POPC     P87804   4.621   2.927  14.589
11883POPC   O1387805   4.664   2.800  14.652
11883POPC   O1487806   4.652   3.052  14.662
11883POPC   O1287807   4.463   2.922  14.570
11883POPC   O1187808   4.669   2.934  14.437
11883POPC    C187809   4.688   3.061  14.373
11883POPC    HA87810   4.782   3.055  14.314
11883POPC    HB87811   4.706   3.144  14.445
11883POPC    C287812   4.571   3.106  14.278
11883POPC    HS87813   4.529   3.198  14.326
11883POPC   O2187814   4.470   3.003  14.265
11883POPC   C2187815   4.352   3.052  14.232
11883POPC   O2287816   4.326   3.170  14.217
11883POPC   C2287817   4.250   2.940  14.219
11883POPC   H2R87818   4.148   2.982  14.223
11883POPC   H2S87819   4.262   2.876  14.309
11883POPC    C387820   4.624   3.145  14.136
11883POPC    HX87821   4.678   3.241  14.145
11883POPC    HY87822   4.536   3.163  14.069
11883POPC   O3187823   4.714   3.044  14.087
11883POPC   C3187824   4.683   2.977  13.977
11883POPC   O3287825   4.587   3.000  13.905
11883POPC   C3287826   4.792   2.868  13.949
11883POPC   H2X87827   4.753   2.774  13.991
11883POPC   H2Y87828   4.881   2.898  14.007
11883POPC   C2387829   4.270   2.854  14.093
11883POPC   H3R87830   4.231   2.753  14.118
11883POPC   H3S87831   4.379   2.842  14.071
11883POPC   C2487832   4.198   2.893  13.963
11883POPC   H4R87833   4.245   2.985  13.922
11883POPC   H4S87834   4.091   2.912  13.984
11883POPC   C2587835   4.205   2.779  13.860
11883POPC   H5R87836   4.119   2.710  13.868
11883POPC   H5S87837   4.295   2.722  13.887
11883POPC   C2687838   4.226   2.818  13.714
11883POPC   H6R87839   4.271   2.730  13.662
11883POPC   H6S87840   4.297   2.903  13.707
11883POPC   C2787841   4.098   2.848  13.637
11883POPC   H7R87842   4.051   2.935  13.686
11883POPC   H7S87843   4.030   2.761  13.649
11883POPC   C2887844   4.130   2.872  13.489
11883POPC   H8R87845   4.175   2.780  13.446
11883POPC   H8S87846   4.205   2.953  13.480
11883POPC   C2987847   4.003   2.910  13.419
11883POPC   H9187848   3.934   2.966  13.482
11883POPC  C21087849   3.965   2.881  13.293
11883POPC  H10187850   3.863   2.910  13.262
11883POPC  C21187851   4.041   2.804  13.190
11883POPC  H11R87852   4.003   2.701  13.186
11883POPC  H11S87853   4.149   2.798  13.212
11883POPC  C21287854   4.017   2.868  13.052
11883POPC  H12R87855   4.056   2.972  13.050
11883POPC  H12S87856   3.907   2.871  13.033
11883POPC  C21387857   4.080   2.788  12.937
11883POPC  H13R87858   4.033   2.819  12.842
11883POPC  H13S87859   4.058   2.680  12.951
11883POPC  C21487860   4.230   2.812  12.921
11883POPC  H14R87861   4.279   2.755  13.001
11883POPC  H14S87862   4.250   2.920  12.934
11883POPC  C21587863   4.287   2.767  12.786
11883POPC  H15R87864   4.333   2.854  12.734
11883POPC  H15S87865   4.203   2.731  12.723
11883POPC  C21687866   4.392   2.657  12.801
11883POPC  H16R87867   4.364   2.590  12.885
11883POPC  H16S87868   4.492   2.700  12.827
11883POPC  C21787869   4.400   2.572  12.674
11883POPC  H17R87870   4.299   2.565  12.628
11883POPC  H17S87871   4.430   2.468  12.701
11883POPC  C21887872   4.499   2.626  12.571
11883POPC  H18R87873   4.601   2.618  12.612
11883POPC  H18S87874   4.481   2.733  12.549
11883POPC  H18T87875   4.494   2.568  12.477
11883POPC   C3387876   4.824   2.850  13.796
11883POPC   H3X87877   4.895   2.929  13.764
11883POPC   H3Y87878   4.725   2.878  13.757
11883POPC   C3487879   4.861   2.709  13.732
11883POPC   H4X87880   4.803   2.634  13.788
11883POPC   H4Y87881   4.965   2.689  13.764
11883POPC   C3587882   4.854   2.675  13.572
11883POPC   H5X87883   4.938   2.601  13.566
11883POPC   H5Y87884   4.893   2.758  13.513
11883POPC   C3687885   4.733   2.592  13.501
11883POPC   H6X87886   4.655   2.591  13.574
11883POPC   H6Y87887   4.774   2.489  13.503
11883POPC   C3787888   4.655   2.596  13.356
11883POPC   H7X87889   4.608   2.497  13.352
11883POPC   H7Y87890   4.726   2.583  13.273
11883POPC   C3887891   4.521   2.679  13.319
11883POPC   H8X87892   4.546   2.779  13.354
11883POPC   H8Y87893   4.430   2.645  13.370
11883POPC   C3987894   4.462   2.735  13.184
11883POPC   H9X87895   4.374   2.670  13.162
11883POPC   H9Y87896   4.529   2.730  13.097
11883POPC  C31087897   4.400   2.881  13.204
11883POPC  H10X87898   4.341   2.873  13.298
11883POPC  H10Y87899   4.329   2.910  13.125
11883POPC  C31187900   4.495   3.001  13.223
11883POPC  H11X87901   4.585   2.986  13.163
11883POPC  H11Y87902   4.520   3.000  13.331
11883POPC  C31287903   4.455   3.149  13.198
11883POPC  H12X87904   4.537   3.210  13.242
11883POPC  H12Y87905   4.362   3.176  13.251
11883POPC  C31387906   4.449   3.190  13.050
11883POPC  H13X87907   4.371   3.128  13.000
11883POPC  H13Y87908   4.546   3.167  13.000
11883POPC  C31487909   4.415   3.339  13.030
11883POPC  H14X87910   4.317   3.358  13.079
11883POPC  H14Y87911   4.403   3.358  12.921
11883POPC  C31587912   4.518   3.439  13.085
11883POPC  H15X87913   4.525   3.431  13.196
11883POPC  H15Y87914   4.480   3.542  13.064
11883POPC  C31687915   4.657   3.425  13.023
11883POPC  H16X87916   4.715   3.518  13.037
11883POPC  H16Y87917   4.648   3.407  12.914
11883POPC  H16Z87918   4.712   3.340  13.068
11884POPC     N87919   6.410   4.600  14.610
11884POPC   C1287920   6.288   4.509  14.599
11884POPC  H12A87921   6.314   4.421  14.539
11884POPC  H12B87922   6.208   4.560  14.545
11884POPC   C1387923   6.380   4.724  14.688
11884POPC  H13A87924   6.345   4.696  14.787
11884POPC  H13B87925   6.470   4.783  14.701
11884POPC  H13C87926   6.304   4.785  14.641
11884POPC   C1487927   6.518   4.527  14.684
11884POPC  H14A87928   6.484   4.505  14.784
11884POPC  H14B87929   6.532   4.429  14.639
11884POPC  H14C87930   6.612   4.580  14.686
11884POPC   C1587931   6.460   4.630  14.471
11884POPC  H15A87932   6.388   4.684  14.412
11884POPC  H15B87933   6.482   4.536  14.419
11884POPC  H15C87934   6.554   4.685  14.471
11884POPC   C1187935   6.228   4.447  14.726
11884POPC  H11A87936   6.133   4.394  14.699
11884POPC  H11B87937   6.199   4.525  14.800
11884POPC     P87938   6.307   4.201  14.785
11884POPC   O1387939   6.177   4.172  14.850
11884POPC   O1487940   6.427   4.145  14.849
11884POPC   O1287941   6.324   4.360  14.785
11884POPC   O1187942   6.303   4.165  14.628
11884POPC    C187943   6.406   4.091  14.561
11884POPC    HA87944   6.366   3.995  14.523
11884POPC    HB87945   6.487   4.062  14.632
11884POPC    C287946   6.480   4.163  14.442
11884POPC    HS87947   6.562   4.092  14.415
11884POPC   O2187948   6.529   4.293  14.480
11884POPC   C2187949   6.659   4.289  14.505
11884POPC   O2287950   6.717   4.200  14.565
11884POPC   C2287951   6.723   4.405  14.433
11884POPC   H2R87952   6.831   4.382  14.424
11884POPC   H2S87953   6.713   4.496  14.495
11884POPC    C387954   6.404   4.184  14.305
11884POPC    HX87955   6.329   4.107  14.281
11884POPC    HY87956   6.484   4.161  14.231
11884POPC   O3187957   6.359   4.316  14.269
11884POPC   C3187958   6.244   4.360  14.315
11884POPC   O3287959   6.180   4.311  14.406
11884POPC   C3287960   6.206   4.492  14.247
11884POPC   H2X87961   6.252   4.575  14.305
11884POPC   H2Y87962   6.096   4.502  14.256
11884POPC   C2387963   6.664   4.423  14.291
11884POPC   H3R87964   6.554   4.424  14.292
11884POPC   H3S87965   6.694   4.337  14.227
11884POPC   C2487966   6.704   4.555  14.228
11884POPC   H4R87967   6.808   4.546  14.193
11884POPC   H4S87968   6.703   4.635  14.305
11884POPC   C2587969   6.613   4.595  14.112
11884POPC   H5R87970   6.647   4.691  14.068
11884POPC   H5S87971   6.513   4.615  14.155
11884POPC   C2687972   6.600   4.491  13.999
11884POPC   H6R87973   6.515   4.520  13.933
11884POPC   H6S87974   6.576   4.390  14.040
11884POPC   C2787975   6.724   4.484  13.909
11884POPC   H7R87976   6.810   4.454  13.971
11884POPC   H7S87977   6.744   4.585  13.871
11884POPC   C2887978   6.710   4.388  13.790
11884POPC   H8R87979   6.795   4.403  13.719
11884POPC   H8S87980   6.617   4.413  13.734
11884POPC   C2987981   6.712   4.248  13.845
11884POPC   H9187982   6.806   4.219  13.894
11884POPC  C21087983   6.614   4.156  13.835
11884POPC  H10187984   6.628   4.057  13.881
11884POPC  C21187985   6.483   4.177  13.764
11884POPC  H11R87986   6.456   4.284  13.751
11884POPC  H11S87987   6.401   4.129  13.820
11884POPC  C21287988   6.502   4.110  13.628
11884POPC  H12R87989   6.516   4.000  13.644
11884POPC  H12S87990   6.593   4.151  13.578
11884POPC  C21387991   6.387   4.130  13.530
11884POPC  H13R87992   6.396   4.229  13.481
11884POPC  H13S87993   6.290   4.129  13.584
11884POPC  C21487994   6.380   4.017  13.426
11884POPC  H14R87995   6.361   3.922  13.481
11884POPC  H14S87996   6.476   4.007  13.372
11884POPC  C21587997   6.266   4.040  13.327
11884POPC  H15R87998   6.178   4.077  13.384
11884POPC  H15S87999   6.235   3.944  13.280
11884POPC  C21688000   6.303   4.144  13.220
11884POPC  H16R88001   6.362   4.227  13.265
11884POPC  H16S88002   6.207   4.187  13.184
11884POPC  C21788003   6.375   4.089  13.097
11884POPC  H17R88004   6.477   4.053  13.124
11884POPC  H17S88005   6.389   4.175  13.026
11884POPC  C21888006   6.297   3.979  13.027
11884POPC  H18R88007   6.324   3.879  13.068
11884POPC  H18S88008   6.315   3.979  12.917
11884POPC  H18T88009   6.188   3.993  13.042
11884POPC   C3388010   6.248   4.509  14.099
11884POPC   H3X88011   6.357   4.514  14.089
11884POPC   H3Y88012   6.207   4.606  14.063
11884POPC   C3488013   6.199   4.397  14.007
11884POPC   H4X88014   6.095   4.370  14.034
11884POPC   H4Y88015   6.263   4.306  14.022
11884POPC   C3588016   6.206   4.439  13.859
11884POPC   H5X88017   6.310   4.421  13.823
11884POPC   H5Y88018   6.188   4.549  13.851
11884POPC   C3688019   6.104   4.368  13.770
11884POPC   H6X88020   6.003   4.411  13.782
11884POPC   H6Y88021   6.098   4.261  13.800
11884POPC   C3788022   6.144   4.373  13.622
11884POPC   H7X88023   6.080   4.303  13.564
11884POPC   H7Y88024   6.250   4.339  13.614
11884POPC   C3888025   6.137   4.513  13.561
11884POPC   H8X88026   6.192   4.585  13.626
11884POPC   H8Y88027   6.032   4.547  13.554
11884POPC   C3988028   6.202   4.517  13.421
11884POPC   H9X88029   6.307   4.482  13.429
11884POPC   H9Y88030   6.206   4.623  13.389
11884POPC  C31088031   6.128   4.431  13.318
11884POPC  H10X88032   6.019   4.455  13.319
11884POPC  H10Y88033   6.139   4.324  13.347
11884POPC  C31188034   6.181   4.450  13.175
11884POPC  H11X88035   6.141   4.371  13.108
11884POPC  H11Y88036   6.292   4.441  13.176
11884POPC  C31288037   6.139   4.584  13.116
11884POPC  H12X88038   6.129   4.653  13.201
11884POPC  H12Y88039   6.039   4.576  13.068
11884POPC  C31388040   6.240   4.643  13.017
11884POPC  H13X88041   6.338   4.660  13.068
11884POPC  H13Y88042   6.205   4.742  12.981
11884POPC  C31488043   6.261   4.553  12.897
11884POPC  H14X88044   6.162   4.529  12.854
11884POPC  H14Y88045   6.308   4.457  12.930
11884POPC  C31588046   6.349   4.618  12.792
11884POPC  H15X88047   6.435   4.668  12.840
11884POPC  H15Y88048   6.292   4.696  12.738
11884POPC  C31688049   6.401   4.513  12.695
11884POPC  H16X88050   6.466   4.441  12.749
11884POPC  H16Y88051   6.458   4.561  12.613
11884POPC  H16Z88052   6.318   4.455  12.649
11885POPC     N88053   2.764   4.891  14.587
11885POPC   C1288054   2.891   4.814  14.626
11885POPC  H12A88055   2.976   4.881  14.630
11885POPC  H12B88056   2.914   4.740  14.550
11885POPC   C1388057   2.668   4.788  14.535
11885POPC  H13A88058   2.660   4.708  14.609
11885POPC  H13B88059   2.569   4.828  14.516
11885POPC  H13C88060   2.705   4.740  14.445
11885POPC   C1488061   2.707   4.953  14.712
11885POPC  H14A88062   2.698   4.873  14.786
11885POPC  H14B88063   2.776   5.023  14.759
11885POPC  H14C88064   2.610   4.998  14.700
11885POPC   C1588065   2.792   4.993  14.482
11885POPC  H15A88066   2.707   5.058  14.468
11885POPC  H15B88067   2.815   4.946  14.387
11885POPC  H15C88068   2.878   5.054  14.509
11885POPC   C1188069   2.888   4.737  14.762
11885POPC  H11A88070   2.864   4.805  14.846
11885POPC  H11B88071   2.993   4.704  14.783
11885POPC     P88072   2.852   4.480  14.765
11885POPC   O1388073   2.759   4.383  14.705
11885POPC   O1488074   2.894   4.449  14.904
11885POPC   O1288075   2.793   4.629  14.759
11885POPC   O1188076   2.980   4.492  14.675
11885POPC    C188077   3.066   4.379  14.666
11885POPC    HA88078   3.032   4.291  14.727
11885POPC    HB88079   3.165   4.407  14.708
11885POPC    C288080   3.080   4.333  14.520
11885POPC    HS88081   3.163   4.258  14.523
11885POPC   O2188082   3.111   4.436  14.426
11885POPC   C2188083   3.207   4.519  14.448
11885POPC   O2288084   3.292   4.515  14.536
11885POPC   C2288085   3.209   4.619  14.332
11885POPC   H2R88086   3.106   4.626  14.290
11885POPC   H2S88087   3.274   4.577  14.253
11885POPC    C388088   2.953   4.261  14.465
11885POPC    HX88089   2.909   4.200  14.546
11885POPC    HY88090   2.984   4.190  14.385
11885POPC   O3188091   2.853   4.353  14.415
11885POPC   C3188092   2.865   4.390  14.288
11885POPC   O3288093   2.946   4.344  14.210
11885POPC   C3288094   2.758   4.493  14.255
11885POPC   H2X88095   2.807   4.592  14.241
11885POPC   H2Y88096   2.688   4.499  14.341
11885POPC   C2388097   3.260   4.759  14.372
11885POPC   H3R88098   3.370   4.754  14.389
11885POPC   H3S88099   3.213   4.794  14.467
11885POPC   C2488100   3.231   4.863  14.263
11885POPC   H4R88101   3.268   4.825  14.166
11885POPC   H4S88102   3.289   4.955  14.286
11885POPC   C2588103   3.081   4.899  14.253
11885POPC   H5R88104   3.062   4.989  14.314
11885POPC   H5S88105   3.020   4.817  14.295
11885POPC   C2688106   3.034   4.923  14.108
11885POPC   H6R88107   3.103   4.994  14.059
11885POPC   H6S88108   2.933   4.969  14.111
11885POPC   C2788109   3.026   4.795  14.023
11885POPC   H7R88110   2.985   4.711  14.085
11885POPC   H7S88111   3.128   4.765  13.990
11885POPC   C2888112   2.935   4.810  13.899
11885POPC   H8R88113   2.829   4.817  13.933
11885POPC   H8S88114   2.944   4.717  13.838
11885POPC   C2988115   2.968   4.933  13.818
11885POPC   H9188116   2.972   5.026  13.877
11885POPC  C21088117   2.985   4.944  13.685
11885POPC  H10188118   3.011   5.042  13.643
11885POPC  C21188119   2.977   4.836  13.581
11885POPC  H11R88120   2.986   4.734  13.625
11885POPC  H11S88121   3.059   4.849  13.509
11885POPC  C21288122   2.848   4.845  13.498
11885POPC  H12R88123   2.759   4.827  13.563
11885POPC  H12S88124   2.852   4.763  13.423
11885POPC  C21388125   2.832   4.978  13.423
11885POPC  H13R88126   2.926   5.004  13.370
11885POPC  H13S88127   2.810   5.059  13.496
11885POPC  C21488128   2.716   4.969  13.322
11885POPC  H14R88129   2.676   5.068  13.296
11885POPC  H14S88130   2.633   4.916  13.373
11885POPC  C21588131   2.756   4.895  13.194
11885POPC  H15R88132   2.840   4.826  13.219
11885POPC  H15S88133   2.797   4.965  13.118
11885POPC  C21688134   2.642   4.812  13.137
11885POPC  H16R88135   2.594   4.865  13.052
11885POPC  H16S88136   2.564   4.796  13.215
11885POPC  C21788137   2.694   4.674  13.096
11885POPC  H17R88138   2.744   4.633  13.187
11885POPC  H17S88139   2.771   4.685  13.018
11885POPC  C21888140   2.588   4.574  13.052
11885POPC  H18R88141   2.518   4.555  13.136
11885POPC  H18S88142   2.637   4.479  13.023
11885POPC  H18T88143   2.528   4.609  12.966
11885POPC   C3388144   2.677   4.453  14.130
11885POPC   H3X88145   2.573   4.490  14.144
11885POPC   H3Y88146   2.671   4.342  14.120
11885POPC   C3488147   2.728   4.513  13.999
11885POPC   H4X88148   2.817   4.456  13.964
11885POPC   H4Y88149   2.760   4.618  14.016
11885POPC   C3588150   2.617   4.511  13.894
11885POPC   H5X88151   2.533   4.575  13.930
11885POPC   H5Y88152   2.579   4.407  13.886
11885POPC   C3688153   2.661   4.561  13.756
11885POPC   H6X88154   2.721   4.653  13.765
11885POPC   H6Y88155   2.569   4.587  13.700
11885POPC   C3788156   2.736   4.453  13.678
11885POPC   H7X88157   2.688   4.354  13.697
11885POPC   H7Y88158   2.841   4.446  13.715
11885POPC   C3888159   2.735   4.479  13.527
11885POPC   H8X88160   2.789   4.574  13.506
11885POPC   H8Y88161   2.630   4.490  13.492
11885POPC   C3988162   2.802   4.365  13.450
11885POPC   H9X88163   2.743   4.272  13.469
11885POPC   H9Y88164   2.904   4.348  13.492
11885POPC  C31088165   2.812   4.388  13.299
11885POPC  H10X88166   2.721   4.441  13.263
11885POPC  H10Y88167   2.811   4.289  13.248
11885POPC  C31188168   2.941   4.461  13.257
11885POPC  H11X88169   3.026   4.418  13.314
11885POPC  H11Y88170   2.935   4.568  13.284
11885POPC  C31288171   2.971   4.446  13.107
11885POPC  H12X88172   2.896   4.503  13.049
11885POPC  H12Y88173   2.961   4.339  13.076
11885POPC  C31388174   3.111   4.495  13.066
11885POPC  H13X88175   3.190   4.422  13.096
11885POPC  H13Y88176   3.134   4.589  13.120
11885POPC  C31488177   3.121   4.521  12.915
11885POPC  H14X88178   3.025   4.492  12.865
11885POPC  H14Y88179   3.200   4.455  12.874
11885POPC  C31588180   3.155   4.666  12.882
11885POPC  H15X88181   3.161   4.679  12.772
11885POPC  H15Y88182   3.257   4.683  12.922
11885POPC  C31688183   3.063   4.774  12.940
11885POPC  H16X88184   2.998   4.815  12.861
11885POPC  H16Y88185   3.121   4.860  12.980
11885POPC  H16Z88186   2.999   4.735  13.022
11886POPC     N88187   5.541   2.943  14.760
11886POPC   C1288188   5.462   3.073  14.742
11886POPC  H12A88189   5.529   3.154  14.766
11886POPC  H12B88190   5.385   3.075  14.820
11886POPC   C1388191   5.612   2.899  14.637
11886POPC  H13A88192   5.545   2.899  14.552
11886POPC  H13B88193   5.699   2.962  14.615
11886POPC  H13C88194   5.655   2.801  14.650
11886POPC   C1488195   5.643   2.958  14.870
11886POPC  H14A88196   5.602   3.008  14.958
11886POPC  H14B88197   5.677   2.860  14.904
11886POPC  H14C88198   5.730   3.012  14.835
11886POPC   C1588199   5.445   2.839  14.805
11886POPC  H15A88200   5.365   2.829  14.732
11886POPC  H15B88201   5.397   2.870  14.897
11886POPC  H15C88202   5.493   2.743  14.818
11886POPC   C1188203   5.391   3.112  14.608
11886POPC  H11A88204   5.470   3.132  14.533
11886POPC  H11B88205   5.338   3.208  14.625
11886POPC     P88206   5.167   2.962  14.620
11886POPC   O1388207   5.052   2.973  14.529
11886POPC   O1488208   5.159   3.019  14.757
11886POPC   O1288209   5.301   3.016  14.553
11886POPC   O1188210   5.199   2.806  14.628
11886POPC    C188211   5.296   2.747  14.539
11886POPC    HA88212   5.369   2.697  14.603
11886POPC    HB88213   5.353   2.820  14.477
11886POPC    C288214   5.235   2.646  14.437
11886POPC    HS88215   5.161   2.584  14.492
11886POPC   O2188216   5.336   2.560  14.379
11886POPC   C2188217   5.427   2.506  14.458
11886POPC   O2288218   5.412   2.476  14.575
11886POPC   C2288219   5.559   2.492  14.384
11886POPC   H2R88220   5.567   2.386  14.352
11886POPC   H2S88221   5.638   2.518  14.459
11886POPC    C388222   5.157   2.720  14.322
11886POPC    HX88223   5.097   2.800  14.369
11886POPC    HY88224   5.083   2.651  14.282
11886POPC   O3188225   5.234   2.777  14.213
11886POPC   C3188226   5.233   2.704  14.100
11886POPC   O3288227   5.213   2.584  14.094
11886POPC   C3288228   5.255   2.791  13.975
11886POPC   H2X88229   5.227   2.728  13.889
11886POPC   H2Y88230   5.362   2.807  13.964
11886POPC   C2388231   5.576   2.585  14.262
11886POPC   H3R88232   5.490   2.570  14.193
11886POPC   H3S88233   5.669   2.557  14.206
11886POPC   C2488234   5.587   2.734  14.298
11886POPC   H4R88235   5.681   2.756  14.353
11886POPC   H4S88236   5.503   2.762  14.364
11886POPC   C2588237   5.574   2.817  14.170
11886POPC   H5R88238   5.489   2.773  14.116
11886POPC   H5S88239   5.663   2.802  14.106
11886POPC   C2688240   5.543   2.967  14.190
11886POPC   H6R88241   5.628   3.019  14.240
11886POPC   H6S88242   5.454   2.975  14.257
11886POPC   C2788243   5.514   3.037  14.057
11886POPC   H7R88244   5.464   3.135  14.074
11886POPC   H7S88245   5.441   2.975  14.002
11886POPC   C2888246   5.636   3.054  13.966
11886POPC   H8R88247   5.692   2.958  13.965
11886POPC   H8S88248   5.702   3.131  14.013
11886POPC   C2988249   5.602   3.096  13.825
11886POPC   H9188250   5.530   3.179  13.817
11886POPC  C21088251   5.649   3.040  13.713
11886POPC  H10188252   5.615   3.078  13.615
11886POPC  C21188253   5.746   2.923  13.706
11886POPC  H11R88254   5.692   2.828  13.725
11886POPC  H11S88255   5.823   2.931  13.785
11886POPC  C21288256   5.820   2.913  13.572
11886POPC  H12R88257   5.892   2.829  13.578
11886POPC  H12S88258   5.882   3.003  13.556
11886POPC  C21388259   5.734   2.896  13.446
11886POPC  H13R88260   5.796   2.854  13.363
11886POPC  H13S88261   5.700   2.997  13.414
11886POPC  C21488262   5.610   2.810  13.465
11886POPC  H14R88263   5.551   2.842  13.554
11886POPC  H14S88264   5.635   2.702  13.480
11886POPC  C21588265   5.522   2.826  13.343
11886POPC  H15R88266   5.518   2.932  13.309
11886POPC  H15S88267   5.422   2.803  13.380
11886POPC  C21688268   5.562   2.733  13.229
11886POPC  H16R88269   5.576   2.630  13.268
11886POPC  H16S88270   5.658   2.770  13.187
11886POPC  C21788271   5.454   2.725  13.121
11886POPC  H17R88272   5.416   2.828  13.100
11886POPC  H17S88273   5.374   2.661  13.163
11886POPC  C21888274   5.491   2.657  12.990
11886POPC  H18R88275   5.577   2.709  12.946
11886POPC  H18S88276   5.406   2.662  12.919
11886POPC  H18T88277   5.515   2.550  13.008
11886POPC   C3388278   5.173   2.924  13.971
11886POPC   H3X88279   5.174   2.975  14.070
11886POPC   H3Y88280   5.069   2.895  13.949
11886POPC   C3488281   5.215   3.027  13.864
11886POPC   H4X88282   5.296   3.093  13.903
11886POPC   H4Y88283   5.128   3.094  13.843
11886POPC   C3588284   5.263   2.968  13.731
11886POPC   H5X88285   5.352   2.903  13.748
11886POPC   H5Y88286   5.293   3.050  13.663
11886POPC   C3688287   5.152   2.887  13.664
11886POPC   H6X88288   5.062   2.951  13.654
11886POPC   H6Y88289   5.127   2.799  13.727
11886POPC   C3788290   5.192   2.839  13.526
11886POPC   H7X88291   5.275   2.900  13.487
11886POPC   H7Y88292   5.104   2.858  13.460
11886POPC   C3888293   5.227   2.690  13.523
11886POPC   H8X88294   5.154   2.632  13.583
11886POPC   H8Y88295   5.327   2.674  13.568
11886POPC   C3988296   5.226   2.639  13.378
11886POPC   H9X88297   5.286   2.547  13.365
11886POPC   H9Y88298   5.270   2.719  13.317
11886POPC  C31088299   5.088   2.626  13.316
11886POPC  H10X88300   5.040   2.725  13.328
11886POPC  H10Y88301   5.024   2.554  13.370
11886POPC  C31188302   5.097   2.598  13.165
11886POPC  H11X88303   5.001   2.556  13.129
11886POPC  H11Y88304   5.176   2.522  13.146
11886POPC  C31288305   5.126   2.730  13.092
11886POPC  H12X88306   5.219   2.775  13.128
11886POPC  H12Y88307   5.055   2.805  13.129
11886POPC  C31388308   5.132   2.730  12.939
11886POPC  H13X88309   5.036   2.702  12.893
11886POPC  H13Y88310   5.207   2.656  12.904
11886POPC  C31488311   5.172   2.871  12.894
11886POPC  H14X88312   5.272   2.893  12.937
11886POPC  H14Y88313   5.100   2.945  12.936
11886POPC  C31588314   5.181   2.891  12.743
11886POPC  H15X88315   5.080   2.906  12.701
11886POPC  H15Y88316   5.222   2.799  12.699
11886POPC  C31688317   5.271   3.010  12.708
11886POPC  H16X88318   5.361   3.011  12.774
11886POPC  H16Y88319   5.217   3.106  12.721
11886POPC  H16Z88320   5.307   3.002  12.604
11887POPC     N88321   3.707   3.285  14.739
11887POPC   C1288322   3.671   3.144  14.784
11887POPC  H12A88323   3.706   3.127  14.885
11887POPC  H12B88324   3.720   3.072  14.719
11887POPC   C1388325   3.674   3.300  14.594
11887POPC  H13A88326   3.691   3.400  14.557
11887POPC  H13B88327   3.728   3.230  14.532
11887POPC  H13C88328   3.569   3.274  14.578
11887POPC   C1488329   3.622   3.380  14.819
11887POPC  H14A88330   3.639   3.482  14.790
11887POPC  H14B88331   3.516   3.356  14.801
11887POPC  H14C88332   3.639   3.368  14.925
11887POPC   C1588333   3.850   3.319  14.761
11887POPC  H15A88334   3.878   3.307  14.865
11887POPC  H15B88335   3.869   3.422  14.732
11887POPC  H15C88336   3.915   3.256  14.702
11887POPC   C1188337   3.521   3.109  14.782
11887POPC  H11A88338   3.460   3.183  14.838
11887POPC  H11B88339   3.509   3.015  14.841
11887POPC     P88340   3.437   2.955  14.594
11887POPC   O1388341   3.349   2.891  14.695
11887POPC   O1488342   3.569   2.890  14.580
11887POPC   O1288343   3.469   3.101  14.648
11887POPC   O1188344   3.366   2.975  14.455
11887POPC    C188345   3.248   3.050  14.426
11887POPC    HA88346   3.221   3.116  14.512
11887POPC    HB88347   3.162   2.981  14.410
11887POPC    C288348   3.259   3.141  14.298
11887POPC    HS88349   3.173   3.211  14.303
11887POPC   O2188350   3.251   3.062  14.176
11887POPC   C2188351   3.232   3.131  14.065
11887POPC   O2288352   3.202   3.249  14.057
11887POPC   C2288353   3.264   3.043  13.944
11887POPC   H2R88354   3.218   3.090  13.855
11887POPC   H2S88355   3.219   2.943  13.959
11887POPC    C388356   3.390   3.225  14.298
11887POPC    HX88357   3.405   3.264  14.401
11887POPC    HY88358   3.375   3.312  14.229
11887POPC   O3188359   3.503   3.145  14.256
11887POPC   C3188360   3.613   3.213  14.233
11887POPC   O3288361   3.629   3.333  14.250
11887POPC   C3288362   3.721   3.119  14.181
11887POPC   H2X88363   3.671   3.031  14.134
11887POPC   H2Y88364   3.781   3.084  14.266
11887POPC   C2388365   3.418   3.032  13.925
11887POPC   H3R88366   3.461   2.968  14.006
11887POPC   H3S88367   3.463   3.133  13.936
11887POPC   C2488368   3.462   2.978  13.789
11887POPC   H4R88369   3.571   2.999  13.779
11887POPC   H4S88370   3.411   3.034  13.707
11887POPC   C2588371   3.440   2.827  13.769
11887POPC   H5R88372   3.330   2.808  13.759
11887POPC   H5S88373   3.476   2.771  13.858
11887POPC   C2688374   3.511   2.773  13.644
11887POPC   H6R88375   3.491   2.841  13.559
11887POPC   H6S88376   3.469   2.674  13.619
11887POPC   C2788377   3.663   2.756  13.661
11887POPC   H7R88378   3.684   2.671  13.730
11887POPC   H7S88379   3.705   2.848  13.708
11887POPC   C2888380   3.737   2.735  13.527
11887POPC   H8R88381   3.845   2.740  13.550
11887POPC   H8S88382   3.714   2.822  13.462
11887POPC   C2988383   3.710   2.604  13.457
11887POPC   H9188384   3.747   2.515  13.511
11887POPC  C21088385   3.649   2.586  13.339
11887POPC  H10188386   3.633   2.484  13.302
11887POPC  C21188387   3.592   2.694  13.249
11887POPC  H11R88388   3.653   2.788  13.253
11887POPC  H11S88389   3.491   2.722  13.287
11887POPC  C21288390   3.577   2.652  13.101
11887POPC  H12R88391   3.539   2.548  13.093
11887POPC  H12S88392   3.678   2.656  13.053
11887POPC  C21388393   3.480   2.745  13.027
11887POPC  H13R88394   3.491   2.847  13.069
11887POPC  H13S88395   3.375   2.713  13.047
11887POPC  C21488396   3.503   2.755  12.876
11887POPC  H14R88397   3.481   2.657  12.828
11887POPC  H14S88398   3.611   2.777  12.858
11887POPC  C21588399   3.420   2.866  12.809
11887POPC  H15R88400   3.454   2.878  12.704
11887POPC  H15S88401   3.438   2.962  12.861
11887POPC  C21688402   3.269   2.836  12.808
11887POPC  H16R88403   3.229   2.846  12.911
11887POPC  H16S88404   3.256   2.730  12.780
11887POPC  C21788405   3.189   2.924  12.709
11887POPC  H17R88406   3.083   2.889  12.709
11887POPC  H17S88407   3.228   2.906  12.606
11887POPC  C21888408   3.190   3.074  12.738
11887POPC  H18R88409   3.134   3.129  12.659
11887POPC  H18S88410   3.294   3.113  12.739
11887POPC  H18T88411   3.144   3.096  12.836
11887POPC   C3388412   3.809   3.190  14.076
11887POPC   H3X88413   3.867   3.273  14.123
11887POPC   H3Y88414   3.743   3.235  13.999
11887POPC   C3488415   3.906   3.093  14.009
11887POPC   H4X88416   3.848   3.007  13.968
11887POPC   H4Y88417   3.976   3.054  14.085
11887POPC   C3588418   3.984   3.157  13.893
11887POPC   H5X88419   4.056   3.083  13.852
11887POPC   H5Y88420   4.043   3.244  13.929
11887POPC   C3688421   3.890   3.198  13.780
11887POPC   H6X88422   3.836   3.292  13.807
11887POPC   H6Y88423   3.814   3.117  13.771
11887POPC   C3788424   3.961   3.217  13.646
11887POPC   H7X88425   4.018   3.125  13.621
11887POPC   H7Y88426   4.036   3.297  13.657
11887POPC   C3888427   3.864   3.246  13.530
11887POPC   H8X88428   3.920   3.235  13.434
11887POPC   H8Y88429   3.829   3.351  13.538
11887POPC   C3988430   3.740   3.155  13.529
11887POPC   H9X88431   3.675   3.180  13.615
11887POPC   H9Y88432   3.768   3.049  13.539
11887POPC  C31088433   3.659   3.173  13.401
11887POPC  H10X88434   3.721   3.142  13.314
11887POPC  H10Y88435   3.634   3.280  13.389
11887POPC  C31188436   3.529   3.091  13.403
11887POPC  H11X88437   3.479   3.102  13.502
11887POPC  H11Y88438   3.553   2.983  13.389
11887POPC  C31288439   3.432   3.137  13.293
11887POPC  H12X88440   3.400   3.241  13.315
11887POPC  H12Y88441   3.342   3.072  13.294
11887POPC  C31388442   3.499   3.132  13.155
11887POPC  H13X88443   3.539   3.030  13.139
11887POPC  H13Y88444   3.586   3.201  13.152
11887POPC  C31488445   3.406   3.171  13.040
11887POPC  H14X88446   3.314   3.108  13.041
11887POPC  H14Y88447   3.459   3.153  12.944
11887POPC  C31588448   3.369   3.319  13.044
11887POPC  H15X88449   3.462   3.378  13.059
11887POPC  H15Y88450   3.303   3.339  13.132
11887POPC  C31688451   3.300   3.366  12.916
11887POPC  H16X88452   3.359   3.336  12.827
11887POPC  H16Y88453   3.291   3.476  12.917
11887POPC  H16Z88454   3.199   3.322  12.908
11888POPC     N88455   3.144   6.090  14.741
11888POPC   C1288456   3.193   6.217  14.675
11888POPC  H12A88457   3.274   6.197  14.605
11888POPC  H12B88458   3.233   6.283  14.750
11888POPC   C1388459   3.065   6.011  14.643
11888POPC  H13A88460   3.128   5.974  14.563
11888POPC  H13B88461   3.020   5.923  14.687
11888POPC  H13C88462   2.987   6.074  14.600
11888POPC   C1488463   3.254   6.006  14.796
11888POPC  H14A88464   3.213   5.919  14.847
11888POPC  H14B88465   3.320   5.967  14.718
11888POPC  H14C88466   3.314   6.063  14.866
11888POPC   C1588467   3.055   6.134  14.855
11888POPC  H15A88468   3.109   6.198  14.925
11888POPC  H15B88469   3.015   6.051  14.910
11888POPC  H15C88470   2.975   6.199  14.817
11888POPC   C1188471   3.085   6.296  14.596
11888POPC  H11A88472   3.044   6.237  14.511
11888POPC  H11B88473   3.146   6.377  14.553
11888POPC     P88474   2.882   6.457  14.612
11888POPC   O1388475   2.858   6.567  14.710
11888POPC   O1488476   2.762   6.385  14.564
11888POPC   O1288477   2.980   6.349  14.677
11888POPC   O1188478   2.964   6.509  14.486
11888POPC    C188479   3.073   6.602  14.492
11888POPC    HA88480   3.153   6.570  14.561
11888POPC    HB88481   3.037   6.699  14.532
11888POPC    C288482   3.138   6.630  14.351
11888POPC    HS88483   3.191   6.728  14.361
11888POPC   O2188484   3.046   6.639  14.241
11888POPC   C2188485   2.925   6.685  14.264
11888POPC   O2288486   2.887   6.756  14.355
11888POPC   C2288487   2.835   6.640  14.148
11888POPC   H2R88488   2.892   6.578  14.076
11888POPC   H2S88489   2.804   6.734  14.097
11888POPC    C388490   3.246   6.526  14.306
11888POPC    HX88491   3.316   6.512  14.391
11888POPC    HY88492   3.303   6.574  14.224
11888POPC   O3188493   3.192   6.401  14.253
11888POPC   C3188494   3.233   6.287  14.307
11888POPC   O3288495   3.305   6.275  14.404
11888POPC   C3288496   3.182   6.169  14.228
11888POPC   H2X88497   3.073   6.179  14.211
11888POPC   H2Y88498   3.203   6.079  14.288
11888POPC   C2388499   2.712   6.565  14.201
11888POPC   H3R88500   2.640   6.552  14.117
11888POPC   H3S88501   2.663   6.626  14.281
11888POPC   C2488502   2.738   6.426  14.256
11888POPC   H4R88503   2.651   6.397  14.319
11888POPC   H4S88504   2.828   6.425  14.321
11888POPC   C2588505   2.756   6.322  14.146
11888POPC   H5R88506   2.856   6.334  14.101
11888POPC   H5S88507   2.680   6.338  14.067
11888POPC   C2688508   2.740   6.182  14.204
11888POPC   H6R88509   2.635   6.167  14.237
11888POPC   H6S88510   2.805   6.172  14.294
11888POPC   C2788511   2.775   6.074  14.102
11888POPC   H7R88512   2.760   5.974  14.150
11888POPC   H7S88513   2.882   6.085  14.076
11888POPC   C2888514   2.693   6.085  13.972
11888POPC   H8R88515   2.734   6.167  13.910
11888POPC   H8S88516   2.588   6.114  13.998
11888POPC   C2988517   2.691   5.954  13.898
11888POPC   H9188518   2.617   5.882  13.932
11888POPC  C21088519   2.779   5.912  13.806
11888POPC  H10188520   2.764   5.814  13.760
11888POPC  C21188521   2.900   5.987  13.758
11888POPC  H11R88522   2.989   5.924  13.776
11888POPC  H11S88523   2.917   6.083  13.813
11888POPC  C21288524   2.897   6.013  13.607
11888POPC  H12R88525   2.868   5.922  13.551
11888POPC  H12S88526   3.001   6.039  13.576
11888POPC  C21388527   2.806   6.129  13.567
11888POPC  H13R88528   2.834   6.218  13.628
11888POPC  H13S88529   2.699   6.106  13.588
11888POPC  C21488530   2.827   6.161  13.419
11888POPC  H14R88531   2.780   6.083  13.355
11888POPC  H14S88532   2.937   6.158  13.399
11888POPC  C21588533   2.777   6.300  13.381
11888POPC  H15R88534   2.794   6.367  13.468
11888POPC  H15S88535   2.668   6.295  13.362
11888POPC  C21688536   2.852   6.358  13.260
11888POPC  H16R88537   2.961   6.357  13.282
11888POPC  H16S88538   2.822   6.464  13.245
11888POPC  C21788539   2.826   6.281  13.131
11888POPC  H17R88540   2.716   6.281  13.111
11888POPC  H17S88541   2.858   6.175  13.146
11888POPC  C21888542   2.900   6.337  13.010
11888POPC  H18R88543   2.869   6.441  12.991
11888POPC  H18S88544   2.880   6.276  12.919
11888POPC  H18T88545   3.010   6.334  13.029
11888POPC   C3388546   3.259   6.162  14.095
11888POPC   H3X88547   3.248   6.061  14.050
11888POPC   H3Y88548   3.368   6.178  14.107
11888POPC   C3488549   3.200   6.259  13.994
11888POPC   H4X88550   3.232   6.363  14.015
11888POPC   H4Y88551   3.088   6.255  13.999
11888POPC   C3588552   3.242   6.219  13.855
11888POPC   H5X88553   3.212   6.113  13.834
11888POPC   H5Y88554   3.353   6.225  13.846
11888POPC   C3688555   3.177   6.309  13.752
11888POPC   H6X88556   3.199   6.416  13.773
11888POPC   H6Y88557   3.066   6.296  13.751
11888POPC   C3788558   3.235   6.268  13.619
11888POPC   H7X88559   3.213   6.160  13.600
11888POPC   H7Y88560   3.346   6.278  13.625
11888POPC   C3888561   3.186   6.350  13.502
11888POPC   H8X88562   3.218   6.456  13.516
11888POPC   H8Y88563   3.075   6.348  13.494
11888POPC   C3988564   3.251   6.289  13.380
11888POPC   H9X88565   3.195   6.198  13.348
11888POPC   H9Y88566   3.354   6.257  13.406
11888POPC  C31088567   3.263   6.388  13.267
11888POPC  H10X88568   3.321   6.477  13.302
11888POPC  H10Y88569   3.162   6.423  13.237
11888POPC  C31188570   3.336   6.321  13.153
11888POPC  H11X88571   3.267   6.247  13.106
11888POPC  H11Y88572   3.425   6.267  13.191
11888POPC  C31288573   3.381   6.422  13.050
11888POPC  H12X88574   3.429   6.365  12.968
11888POPC  H12Y88575   3.458   6.491  13.091
11888POPC  C31388576   3.260   6.501  13.002
11888POPC  H13X88577   3.220   6.565  13.084
11888POPC  H13Y88578   3.180   6.428  12.975
11888POPC  C31488579   3.283   6.588  12.881
11888POPC  H14X88580   3.347   6.675  12.906
11888POPC  H14Y88581   3.181   6.622  12.858
11888POPC  C31588582   3.333   6.513  12.758
11888POPC  H15X88583   3.247   6.461  12.709
11888POPC  H15Y88584   3.405   6.434  12.787
11888POPC  C31688585   3.408   6.599  12.659
11888POPC  H16X88586   3.349   6.674  12.604
11888POPC  H16Y88587   3.446   6.528  12.584
11888POPC  H16Z88588   3.490   6.654  12.709
11889POPC     N88589   5.039   6.822  14.712
11889POPC   C1288590   5.147   6.734  14.650
11889POPC  H12A88591   5.100   6.653  14.596
11889POPC  H12B88592   5.205   6.691  14.730
11889POPC   C1388593   4.955   6.888  14.605
11889POPC  H13A88594   4.875   6.947  14.648
11889POPC  H13B88595   5.019   6.953  14.545
11889POPC  H13C88596   4.911   6.814  14.538
11889POPC   C1488597   4.948   6.744  14.802
11889POPC  H14A88598   4.891   6.816  14.862
11889POPC  H14B88599   4.875   6.687  14.744
11889POPC  H14C88600   4.998   6.681  14.874
11889POPC   C1588601   5.103   6.927  14.798
11889POPC  H15A88602   5.156   6.883  14.882
11889POPC  H15B88603   5.028   6.994  14.839
11889POPC  H15C88604   5.178   6.981  14.740
11889POPC   C1188605   5.252   6.799  14.555
11889POPC  H11A88606   5.203   6.834  14.462
11889POPC  H11B88607   5.322   6.717  14.525
11889POPC     P88608   5.472   6.891  14.667
11889POPC   O1388609   5.486   6.755  14.725
11889POPC   O1488610   5.508   7.007  14.751
11889POPC   O1288611   5.321   6.908  14.617
11889POPC   O1188612   5.559   6.900  14.531
11889POPC    C188613   5.693   6.955  14.536
11889POPC    HA88614   5.761   6.889  14.596
11889POPC    HB88615   5.693   7.054  14.588
11889POPC    C288616   5.761   6.978  14.395
11889POPC    HS88617   5.845   7.050  14.410
11889POPC   O2188618   5.672   7.030  14.296
11889POPC   C2188619   5.597   7.131  14.333
11889POPC   O2288620   5.620   7.212  14.420
11889POPC   C2288621   5.471   7.128  14.245
11889POPC   H2R88622   5.389   7.090  14.309
11889POPC   H2S88623   5.487   7.056  14.162
11889POPC    C388624   5.822   6.852  14.327
11889POPC    HX88625   5.916   6.820  14.377
11889POPC    HY88626   5.851   6.880  14.223
11889POPC   O3188627   5.725   6.747  14.318
11889POPC   C3188628   5.716   6.669  14.425
11889POPC   O3288629   5.805   6.655  14.506
11889POPC   C3288630   5.581   6.596  14.428
11889POPC   H2X88631   5.538   6.615  14.528
11889POPC   H2Y88632   5.601   6.487  14.420
11889POPC   C2388633   5.437   7.266  14.187
11889POPC   H3R88634   5.516   7.295  14.114
11889POPC   H3S88635   5.437   7.341  14.269
11889POPC   C2488636   5.300   7.272  14.117
11889POPC   H4R88637   5.294   7.371  14.067
11889POPC   H4S88638   5.220   7.266  14.194
11889POPC   C2588639   5.273   7.166  14.009
11889POPC   H5R88640   5.263   7.066  14.058
11889POPC   H5S88641   5.358   7.161  13.938
11889POPC   C2688642   5.144   7.199  13.932
11889POPC   H6R88643   5.159   7.290  13.870
11889POPC   H6S88644   5.064   7.222  14.007
11889POPC   C2788645   5.092   7.084  13.843
11889POPC   H7R88646   4.989   7.110  13.809
11889POPC   H7S88647   5.084   6.993  13.906
11889POPC   C2888648   5.179   7.056  13.719
11889POPC   H8R88649   5.285   7.046  13.750
11889POPC   H8S88650   5.173   7.144  13.650
11889POPC   C2988651   5.133   6.930  13.650
11889POPC   H9188652   5.196   6.841  13.670
11889POPC  C21088653   5.027   6.918  13.567
11889POPC  H10188654   5.007   6.820  13.520
11889POPC  C21188655   4.933   7.029  13.528
11889POPC  H11R88656   4.958   7.124  13.581
11889POPC  H11S88657   4.828   7.003  13.556
11889POPC  C21288658   4.938   7.060  13.377
11889POPC  H12R88659   4.883   7.155  13.359
11889POPC  H12S88660   4.886   6.980  13.319
11889POPC  C21388661   5.081   7.074  13.323
11889POPC  H13R88662   5.124   6.973  13.303
11889POPC  H13S88663   5.144   7.121  13.402
11889POPC  C21488664   5.094   7.160  13.197
11889POPC  H14R88665   5.202   7.169  13.173
11889POPC  H14S88666   5.056   7.262  13.221
11889POPC  C21588667   5.019   7.110  13.073
11889POPC  H15R88668   4.910   7.107  13.096
11889POPC  H15S88669   5.051   7.006  13.048
11889POPC  C21688670   5.042   7.201  12.951
11889POPC  H16R88671   5.022   7.306  12.983
11889POPC  H16S88672   4.967   7.175  12.873
11889POPC  C21788673   5.183   7.193  12.891
11889POPC  H17R88674   5.256   7.162  12.969
11889POPC  H17S88675   5.213   7.294  12.856
11889POPC  C21888676   5.193   7.096  12.772
11889POPC  H18R88677   5.134   7.132  12.686
11889POPC  H18S88678   5.156   6.995  12.801
11889POPC  H18T88679   5.299   7.086  12.741
11889POPC   C3388680   5.483   6.639  14.317
11889POPC   H3X88681   5.481   6.750  14.307
11889POPC   H3Y88682   5.381   6.607  14.344
11889POPC   C3488683   5.520   6.572  14.185
11889POPC   H4X88684   5.506   6.462  14.198
11889POPC   H4Y88685   5.628   6.587  14.163
11889POPC   C3588686   5.437   6.619  14.066
11889POPC   H5X88687   5.329   6.619  14.090
11889POPC   H5Y88688   5.455   6.545  13.986
11889POPC   C3688689   5.482   6.753  14.006
11889POPC   H6X88690   5.485   6.832  14.083
11889POPC   H6Y88691   5.404   6.782  13.931
11889POPC   C3788692   5.618   6.740  13.936
11889POPC   H7X88693   5.626   6.638  13.892
11889POPC   H7Y88694   5.699   6.748  14.012
11889POPC   C3888695   5.641   6.839  13.822
11889POPC   H8X88696   5.748   6.830  13.789
11889POPC   H8Y88697   5.626   6.943  13.858
11889POPC   C3988698   5.552   6.810  13.701
11889POPC   H9X88699   5.444   6.824  13.728
11889POPC   H9Y88700   5.566   6.704  13.670
11889POPC  C31088701   5.583   6.902  13.583
11889POPC  H10X88702   5.691   6.892  13.557
11889POPC  H10Y88703   5.563   7.007  13.611
11889POPC  C31188704   5.499   6.865  13.462
11889POPC  H11X88705   5.391   6.883  13.485
11889POPC  H11Y88706   5.511   6.755  13.445
11889POPC  C31288707   5.537   6.942  13.335
11889POPC  H12X88708   5.641   6.916  13.307
11889POPC  H12Y88709   5.532   7.051  13.355
11889POPC  C31388710   5.443   6.909  13.219
11889POPC  H13X88711   5.488   6.948  13.124
11889POPC  H13Y88712   5.345   6.961  13.234
11889POPC  C31488713   5.418   6.759  13.207
11889POPC  H14X88714   5.344   6.726  13.283
11889POPC  H14Y88715   5.513   6.704  13.225
11889POPC  C31588716   5.368   6.721  13.069
11889POPC  H15X88717   5.361   6.610  13.066
11889POPC  H15Y88718   5.446   6.751  12.997
11889POPC  C31688719   5.234   6.784  13.031
11889POPC  H16X88720   5.199   6.745  12.932
11889POPC  H16Y88721   5.244   6.894  13.023
11889POPC  H16Z88722   5.156   6.760  13.106
11890POPC     N88723   6.367   5.856  14.842
11890POPC   C1288724   6.387   5.936  14.715
11890POPC  H12A88725   6.323   6.024  14.715
11890POPC  H12B88726   6.354   5.876  14.630
11890POPC   C1388727   6.426   5.721  14.820
11890POPC  H13A88728   6.430   5.666  14.914
11890POPC  H13B88729   6.369   5.668  14.745
11890POPC  H13C88730   6.527   5.735  14.782
11890POPC   C1488731   6.442   5.922  14.954
11890POPC  H14A88732   6.544   5.944  14.922
11890POPC  H14B88733   6.399   6.018  14.982
11890POPC  H14C88734   6.446   5.859  15.041
11890POPC   C1588735   6.225   5.837  14.879
11890POPC  H15A88736   6.217   5.777  14.969
11890POPC  H15B88737   6.170   5.788  14.799
11890POPC  H15C88738   6.178   5.932  14.904
11890POPC   C1188739   6.530   5.985  14.682
11890POPC  H11A88740   6.565   6.056  14.760
11890POPC  H11B88741   6.519   6.043  14.586
11890POPC     P88742   6.754   5.907  14.583
11890POPC   O1388743   6.865   5.933  14.678
11890POPC   O1488744   6.729   6.015  14.485
11890POPC   O1288745   6.623   5.877  14.669
11890POPC   O1188746   6.773   5.767  14.510
11890POPC    C188747   6.743   5.638  14.567
11890POPC    HA88748   6.701   5.644  14.669
11890POPC    HB88749   6.839   5.581  14.573
11890POPC    C288750   6.650   5.546  14.480
11890POPC    HS88751   6.646   5.446  14.528
11890POPC   O2188752   6.710   5.534  14.351
11890POPC   C2188753   6.651   5.454  14.263
11890POPC   O2288754   6.582   5.358  14.291
11890POPC   C2288755   6.674   5.511  14.123
11890POPC   H2R88756   6.576   5.508  14.070
11890POPC   H2S88757   6.746   5.445  14.071
11890POPC    C388758   6.502   5.597  14.469
11890POPC    HX88759   6.474   5.620  14.574
11890POPC    HY88760   6.437   5.513  14.434
11890POPC   O3188761   6.479   5.711  14.381
11890POPC   C3188762   6.362   5.771  14.407
11890POPC   O3288763   6.296   5.752  14.508
11890POPC   C3288764   6.314   5.858  14.289
11890POPC   H2X88765   6.282   5.956  14.330
11890POPC   H2Y88766   6.225   5.807  14.247
11890POPC   C2388767   6.726   5.657  14.129
11890POPC   H3R88768   6.821   5.660  14.187
11890POPC   H3S88769   6.654   5.720  14.185
11890POPC   C2488770   6.746   5.717  13.990
11890POPC   H4R88771   6.680   5.806  13.983
11890POPC   H4S88772   6.712   5.643  13.914
11890POPC   C2588773   6.891   5.762  13.962
11890POPC   H5R88774   6.951   5.746  14.055
11890POPC   H5S88775   6.892   5.871  13.944
11890POPC   C2688776   6.959   5.685  13.847
11890POPC   H6R88777   6.902   5.593  13.826
11890POPC   H6S88778   7.060   5.658  13.885
11890POPC   C2788779   6.983   5.765  13.718
11890POPC   H7R88780   7.064   5.836  13.747
11890POPC   H7S88781   6.893   5.824  13.694
11890POPC   C2888782   7.035   5.693  13.590
11890POPC   H8R88783   7.122   5.628  13.614
11890POPC   H8S88784   7.079   5.772  13.526
11890POPC   C2988785   6.927   5.620  13.515
11890POPC   H9188786   6.884   5.535  13.571
11890POPC  C21088787   6.880   5.646  13.390
11890POPC  H10188788   6.793   5.588  13.355
11890POPC  C21188789   6.924   5.756  13.296
11890POPC  H11R88790   6.970   5.706  13.208
11890POPC  H11S88791   7.006   5.813  13.340
11890POPC  C21288792   6.823   5.860  13.239
11890POPC  H12R88793   6.731   5.811  13.202
11890POPC  H12S88794   6.873   5.907  13.151
11890POPC  C21388795   6.791   5.976  13.335
11890POPC  H13R88796   6.888   6.013  13.375
11890POPC  H13S88797   6.731   5.937  13.420
11890POPC  C21488798   6.717   6.096  13.272
11890POPC  H14R88799   6.780   6.141  13.192
11890POPC  H14S88800   6.703   6.173  13.351
11890POPC  C21588801   6.579   6.062  13.213
11890POPC  H15R88802   6.524   6.000  13.289
11890POPC  H15S88803   6.592   5.998  13.124
11890POPC  C21688804   6.491   6.184  13.179
11890POPC  H16R88805   6.489   6.249  13.269
11890POPC  H16S88806   6.387   6.149  13.161
11890POPC  C21788807   6.535   6.270  13.059
11890POPC  H17R88808   6.641   6.301  13.074
11890POPC  H17S88809   6.474   6.364  13.061
11890POPC  C21888810   6.519   6.207  12.920
11890POPC  H18R88811   6.415   6.171  12.904
11890POPC  H18S88812   6.587   6.121  12.909
11890POPC  H18T88813   6.543   6.281  12.840
11890POPC   C3388814   6.417   5.878  14.175
11890POPC   H3X88815   6.444   5.779  14.132
11890POPC   H3Y88816   6.510   5.923  14.218
11890POPC   C3488817   6.366   5.970  14.063
11890POPC   H4X88818   6.335   6.067  14.106
11890POPC   H4Y88819   6.278   5.922  14.014
11890POPC   C3588820   6.476   5.993  13.959
11890POPC   H5X88821   6.507   5.892  13.924
11890POPC   H5Y88822   6.564   6.040  14.008
11890POPC   C3688823   6.436   6.075  13.835
11890POPC   H6X88824   6.392   6.172  13.867
11890POPC   H6Y88825   6.356   6.019  13.781
11890POPC   C3788826   6.554   6.101  13.739
11890POPC   H7X88827   6.623   6.176  13.783
11890POPC   H7Y88828   6.514   6.141  13.643
11890POPC   C3888829   6.642   5.979  13.709
11890POPC   H8X88830   6.698   5.949  13.800
11890POPC   H8Y88831   6.718   6.008  13.633
11890POPC   C3988832   6.559   5.862  13.657
11890POPC   H9X88833   6.509   5.895  13.563
11890POPC   H9Y88834   6.480   5.833  13.729
11890POPC  C31088835   6.644   5.739  13.630
11890POPC  H10X88836   6.699   5.710  13.722
11890POPC  H10Y88837   6.719   5.770  13.555
11890POPC  C31188838   6.565   5.619  13.578
11890POPC  H11X88839   6.489   5.590  13.654
11890POPC  H11Y88840   6.635   5.534  13.565
11890POPC  C31288841   6.498   5.649  13.444
11890POPC  H12X88842   6.577   5.686  13.375
11890POPC  H12Y88843   6.423   5.730  13.454
11890POPC  C31388844   6.432   5.525  13.385
11890POPC  H13X88845   6.339   5.502  13.443
11890POPC  H13Y88846   6.501   5.439  13.398
11890POPC  C31488847   6.399   5.537  13.236
11890POPC  H14X88848   6.320   5.613  13.219
11890POPC  H14Y88849   6.359   5.437  13.207
11890POPC  C31588850   6.521   5.569  13.148
11890POPC  H15X88851   6.611   5.524  13.197
11890POPC  H15Y88852   6.538   5.679  13.145
11890POPC  C31688853   6.510   5.515  13.005
11890POPC  H16X88854   6.465   5.415  13.002
11890POPC  H16Y88855   6.610   5.507  12.958
11890POPC  H16Z88856   6.444   5.579  12.943
11891POPC     N88857   4.434   6.730  14.611
11891POPC   C1288858   4.375   6.753  14.750
11891POPC  H12A88859   4.441   6.711  14.825
11891POPC  H12B88860   4.282   6.698  14.759
11891POPC   C1388861   4.574   6.780  14.609
11891POPC  H13A88862   4.619   6.768  14.512
11891POPC  H13B88863   4.573   6.886  14.633
11891POPC  H13C88864   4.633   6.733  14.686
11891POPC   C1488865   4.428   6.585  14.579
11891POPC  H14A88866   4.487   6.557  14.492
11891POPC  H14B88867   4.464   6.523  14.661
11891POPC  H14C88868   4.325   6.553  14.562
11891POPC   C1588869   4.355   6.811  14.512
11891POPC  H15A88870   4.375   6.779  14.410
11891POPC  H15B88871   4.378   6.917  14.523
11891POPC  H15C88872   4.248   6.804  14.530
11891POPC   C1188873   4.346   6.898  14.793
11891POPC  H11A88874   4.320   6.900  14.901
11891POPC  H11B88875   4.257   6.934  14.735
11891POPC     P88876   4.449   7.131  14.748
11891POPC   O1388877   4.576   7.169  14.684
11891POPC   O1488878   4.414   7.196  14.877
11891POPC   O1288879   4.462   6.977  14.772
11891POPC   O1188880   4.325   7.144  14.649
11891POPC    C188881   4.214   7.217  14.706
11891POPC    HA88882   4.246   7.306  14.766
11891POPC    HB88883   4.156   7.151  14.774
11891POPC    C288884   4.124   7.278  14.598
11891POPC    HS88885   4.033   7.320  14.647
11891POPC   O2188886   4.084   7.188  14.493
11891POPC   C2188887   4.063   7.061  14.518
11891POPC   O2288888   4.043   7.010  14.627
11891POPC   C2288889   4.040   6.983  14.387
11891POPC   H2R88890   3.937   7.002  14.352
11891POPC   H2S88891   4.047   6.875  14.415
11891POPC    C388892   4.203   7.401  14.540
11891POPC    HX88893   4.219   7.466  14.628
11891POPC    HY88894   4.143   7.456  14.465
11891POPC   O3188895   4.336   7.371  14.493
11891POPC   C3188896   4.337   7.304  14.380
11891POPC   O3288897   4.240   7.285  14.310
11891POPC   C3288898   4.478   7.259  14.343
11891POPC   H2X88899   4.519   7.198  14.426
11891POPC   H2Y88900   4.540   7.350  14.333
11891POPC   C2388901   4.135   7.012  14.269
11891POPC   H3R88902   4.241   7.017  14.304
11891POPC   H3S88903   4.108   7.112  14.227
11891POPC   C2488904   4.126   6.909  14.155
11891POPC   H4R88905   4.186   6.947  14.070
11891POPC   H4S88906   4.021   6.901  14.120
11891POPC   C2588907   4.178   6.772  14.198
11891POPC   H5R88908   4.113   6.731  14.278
11891POPC   H5S88909   4.281   6.783  14.239
11891POPC   C2688910   4.181   6.668  14.085
11891POPC   H6R88911   4.081   6.664  14.038
11891POPC   H6S88912   4.202   6.568  14.129
11891POPC   C2788913   4.289   6.695  13.978
11891POPC   H7R88914   4.388   6.707  14.027
11891POPC   H7S88915   4.267   6.792  13.928
11891POPC   C2888916   4.298   6.582  13.874
11891POPC   H8R88917   4.335   6.490  13.925
11891POPC   H8S88918   4.376   6.609  13.799
11891POPC   C2988919   4.167   6.551  13.804
11891POPC   H9188920   4.123   6.453  13.828
11891POPC  C21088921   4.102   6.636  13.723
11891POPC  H10188922   4.005   6.607  13.680
11891POPC  C21188923   4.152   6.774  13.690
11891POPC  H11R88924   4.263   6.774  13.689
11891POPC  H11S88925   4.120   6.846  13.769
11891POPC  C21288926   4.108   6.831  13.555
11891POPC  H12R88927   4.134   6.759  13.474
11891POPC  H12S88928   4.166   6.924  13.537
11891POPC  C21388929   3.959   6.867  13.548
11891POPC  H13R88930   3.929   6.924  13.639
11891POPC  H13S88931   3.899   6.773  13.547
11891POPC  C21488932   3.923   6.950  13.424
11891POPC  H14R88933   3.945   7.057  13.442
11891POPC  H14S88934   3.815   6.938  13.406
11891POPC  C21588935   3.998   6.903  13.299
11891POPC  H15R88936   3.976   6.794  13.287
11891POPC  H15S88937   4.108   6.915  13.315
11891POPC  C21688938   3.965   6.976  13.169
11891POPC  H16R88939   3.969   7.086  13.184
11891POPC  H16S88940   3.862   6.949  13.136
11891POPC  C21788941   4.066   6.937  13.060
11891POPC  H17R88942   4.163   6.987  13.082
11891POPC  H17S88943   4.030   6.977  12.963
11891POPC  C21888944   4.090   6.786  13.048
11891POPC  H18R88945   4.167   6.763  12.972
11891POPC  H18S88946   3.996   6.736  13.019
11891POPC  H18T88947   4.126   6.743  13.144
11891POPC   C3388948   4.482   7.180  14.209
11891POPC   H3X88949   4.409   7.222  14.136
11891POPC   H3Y88950   4.454   7.074  14.227
11891POPC   C3488951   4.621   7.188  14.145
11891POPC   H4X88952   4.696   7.154  14.220
11891POPC   H4Y88953   4.644   7.294  14.122
11891POPC   C3588954   4.641   7.104  14.017
11891POPC   H5X88955   4.626   6.996  14.040
11891POPC   H5Y88956   4.748   7.116  13.986
11891POPC   C3688957   4.553   7.144  13.897
11891POPC   H6X88958   4.617   7.148  13.806
11891POPC   H6Y88959   4.510   7.245  13.911
11891POPC   C3788960   4.438   7.046  13.871
11891POPC   H7X88961   4.361   7.058  13.951
11891POPC   H7Y88962   4.476   6.942  13.875
11891POPC   C3888963   4.372   7.068  13.734
11891POPC   H8X88964   4.288   6.997  13.724
11891POPC   H8Y88965   4.446   7.044  13.654
11891POPC   C3988966   4.317   7.210  13.712
11891POPC   H9X88967   4.402   7.282  13.708
11891POPC   H9Y88968   4.253   7.237  13.798
11891POPC  C31088969   4.236   7.223  13.582
11891POPC  H10X88970   4.184   7.321  13.582
11891POPC  H10Y88971   4.158   7.143  13.580
11891POPC  C31188972   4.323   7.214  13.456
11891POPC  H11X88973   4.377   7.117  13.454
11891POPC  H11Y88974   4.398   7.295  13.459
11891POPC  C31288975   4.242   7.229  13.326
11891POPC  H12X88976   4.180   7.321  13.333
11891POPC  H12Y88977   4.173   7.142  13.317
11891POPC  C31388978   4.330   7.238  13.200
11891POPC  H13X88979   4.395   7.328  13.207
11891POPC  H13Y88980   4.264   7.251  13.112
11891POPC  C31488981   4.418   7.113  13.179
11891POPC  H14X88982   4.353   7.023  13.191
11891POPC  H14Y88983   4.496   7.109  13.258
11891POPC  C31588984   4.484   7.107  13.041
11891POPC  H15X88985   4.405   7.118  12.963
11891POPC  H15Y88986   4.529   7.005  13.028
11891POPC  C31688987   4.594   7.211  13.019
11891POPC  H16X88988   4.674   7.200  13.094
11891POPC  H16Y88989   4.552   7.314  13.026
11891POPC  H16Z88990   4.639   7.199  12.918
11892POPC     N88991   6.760   5.103  14.826
11892POPC   C1288992   6.877   5.007  14.810
11892POPC  H12A88993   6.872   4.931  14.888
11892POPC  H12B88994   6.969   5.063  14.821
11892POPC   C1388995   6.633   5.033  14.792
11892POPC  H13A88996   6.623   4.944  14.853
11892POPC  H13B88997   6.548   5.097  14.807
11892POPC  H13C88998   6.640   5.003  14.688
11892POPC   C1488999   6.752   5.154  14.966
11892POPC  H14A89000   6.836   5.218  14.989
11892POPC  H14B89001   6.662   5.214  14.979
11892POPC  H14C89002   6.748   5.072  15.037
11892POPC   C1589003   6.780   5.220  14.735
11892POPC  H15A89004   6.885   5.252  14.732
11892POPC  H15B89005   6.719   5.304  14.759
11892POPC  H15C89006   6.765   5.189  14.631
11892POPC   C1189007   6.891   4.930  14.677
11892POPC  H11A89008   6.803   4.862  14.664
11892POPC  H11B89009   6.981   4.865  14.680
11892POPC     P89010   7.026   5.098  14.525
11892POPC   O1389011   7.138   5.059  14.614
11892POPC   O1489012   6.987   5.241  14.526
11892POPC   O1289013   6.896   5.017  14.566
11892POPC   O1189014   7.050   5.039  14.380
11892POPC    C189015   7.078   4.898  14.370
11892POPC    HA89016   7.009   4.836  14.433
11892POPC    HB89017   7.182   4.879  14.406
11892POPC    C289018   7.068   4.844  14.224
11892POPC    HS89019   7.131   4.752  14.215
11892POPC   O2189020   7.108   4.944  14.129
11892POPC   C2189021   7.235   4.973  14.145
11892POPC   O2289022   7.319   4.902  14.197
11892POPC   C2289023   7.265   5.109  14.088
11892POPC   H2R89024   7.312   5.168  14.170
11892POPC   H2S89025   7.170   5.157  14.059
11892POPC    C389026   6.926   4.802  14.186
11892POPC    HX89027   6.857   4.887  14.211
11892POPC    HY89028   6.901   4.716  14.251
11892POPC   O3189029   6.924   4.763  14.046
11892POPC   C3189030   6.848   4.836  13.966
11892POPC   O3289031   6.753   4.904  13.999
11892POPC   C3289032   6.895   4.823  13.821
11892POPC   H2X89033   6.845   4.736  13.774
11892POPC   H2Y89034   7.004   4.804  13.822
11892POPC   C2389035   7.365   5.097  13.971
11892POPC   H3R89036   7.458   5.046  14.006
11892POPC   H3S89037   7.394   5.200  13.940
11892POPC   C2489038   7.307   5.022  13.852
11892POPC   H4R89039   7.208   5.065  13.826
11892POPC   H4S89040   7.290   4.916  13.880
11892POPC   C2589041   7.401   5.029  13.731
11892POPC   H5R89042   7.492   4.968  13.751
11892POPC   H5S89043   7.435   5.134  13.716
11892POPC   C2689044   7.335   4.981  13.602
11892POPC   H6R89045   7.411   4.989  13.522
11892POPC   H6S89046   7.251   5.049  13.574
11892POPC   C2789047   7.282   4.837  13.610
11892POPC   H7R89048   7.203   4.831  13.688
11892POPC   H7S89049   7.364   4.770  13.646
11892POPC   C2889050   7.226   4.785  13.477
11892POPC   H8R89051   7.141   4.848  13.442
11892POPC   H8S89052   7.187   4.682  13.491
11892POPC   C2989053   7.339   4.784  13.379
11892POPC   H9189054   7.429   4.734  13.417
11892POPC  C21089055   7.345   4.837  13.255
11892POPC  H10189056   7.439   4.828  13.199
11892POPC  C21189057   7.237   4.911  13.184
11892POPC  H11R89058   7.141   4.854  13.182
11892POPC  H11S89059   7.267   4.927  13.078
11892POPC  C21289060   7.212   5.047  13.251
11892POPC  H12R89061   7.304   5.091  13.295
11892POPC  H12S89062   7.140   5.031  13.333
11892POPC  C21389063   7.156   5.147  13.152
11892POPC  H13R89064   7.107   5.230  13.206
11892POPC  H13S89065   7.080   5.096  13.089
11892POPC  C21489066   7.265   5.210  13.067
11892POPC  H14R89067   7.328   5.133  13.016
11892POPC  H14S89068   7.333   5.269  13.132
11892POPC  C21589069   7.200   5.302  12.966
11892POPC  H15R89070   7.275   5.369  12.920
11892POPC  H15S89071   7.129   5.363  13.026
11892POPC  C21689072   7.122   5.231  12.857
11892POPC  H16R89073   7.088   5.305  12.781
11892POPC  H16S89074   7.030   5.184  12.898
11892POPC  C21789075   7.204   5.122  12.788
11892POPC  H17R89076   7.206   5.031  12.852
11892POPC  H17S89077   7.309   5.154  12.773
11892POPC  C21889078   7.142   5.089  12.654
11892POPC  H18R89079   7.184   4.995  12.616
11892POPC  H18S89080   7.161   5.170  12.579
11892POPC  H18T89081   7.033   5.078  12.667
11892POPC   C3389082   6.863   4.951  13.741
11892POPC   H3X89083   6.902   5.039  13.797
11892POPC   H3Y89084   6.753   4.964  13.730
11892POPC   C3489085   6.928   4.949  13.603
11892POPC   H4X89086   6.884   4.872  13.537
11892POPC   H4Y89087   7.034   4.921  13.620
11892POPC   C3589088   6.931   5.087  13.536
11892POPC   H5X89089   7.025   5.095  13.478
11892POPC   H5Y89090   6.935   5.167  13.613
11892POPC   C3689091   6.816   5.109  13.439
11892POPC   H6X89092   6.720   5.116  13.494
11892POPC   H6Y89093   6.810   5.022  13.370
11892POPC   C3789094   6.840   5.237  13.357
11892POPC   H7X89095   6.933   5.225  13.299
11892POPC   H7Y89096   6.855   5.322  13.428
11892POPC   C3889097   6.727   5.272  13.260
11892POPC   H8X89098   6.748   5.373  13.219
11892POPC   H8Y89099   6.631   5.278  13.317
11892POPC   C3989100   6.712   5.175  13.142
11892POPC   H9X89101   6.735   5.070  13.172
11892POPC   H9Y89102   6.787   5.205  13.065
11892POPC  C31089103   6.571   5.177  13.081
11892POPC  H10X89104   6.533   5.277  13.106
11892POPC  H10Y89105   6.503   5.107  13.133
11892POPC  C31189106   6.569   5.153  12.929
11892POPC  H11X89107   6.656   5.205  12.883
11892POPC  H11Y89108   6.476   5.197  12.885
11892POPC  C31289109   6.574   5.004  12.895
11892POPC  H12X89110   6.479   4.957  12.931
11892POPC  H12Y89111   6.658   4.958  12.950
11892POPC  C31389112   6.591   4.974  12.745
11892POPC  H13X89113   6.515   5.029  12.686
11892POPC  H13Y89114   6.571   4.865  12.730
11892POPC  C31489115   6.733   5.003  12.693
11892POPC  H14X89116   6.807   4.949  12.756
11892POPC  H14Y89117   6.755   5.111  12.699
11892POPC  C31589118   6.749   4.957  12.548
11892POPC  H15X89119   6.679   5.014  12.487
11892POPC  H15Y89120   6.710   4.854  12.539
11892POPC  C31689121   6.886   4.976  12.483
11892POPC  H16X89122   6.918   5.082  12.492
11892POPC  H16Y89123   6.883   4.953  12.375
11892POPC  H16Z89124   6.963   4.912  12.531
11893POPC     N89125   2.549   5.514  14.645
11893POPC   C1289126   2.429   5.588  14.583
11893POPC  H12A89127   2.385   5.522  14.509
11893POPC  H12B89128   2.464   5.675  14.529
11893POPC   C1389129   2.603   5.598  14.756
11893POPC  H13A89130   2.683   5.548  14.809
11893POPC  H13B89131   2.638   5.694  14.719
11893POPC  H13C89132   2.523   5.617  14.827
11893POPC   C1489133   2.508   5.384  14.707
11893POPC  H14A89134   2.428   5.403  14.780
11893POPC  H14B89135   2.463   5.317  14.634
11893POPC  H14C89136   2.587   5.335  14.762
11893POPC   C1589137   2.647   5.490  14.535
11893POPC  H15A89138   2.592   5.473  14.442
11893POPC  H15B89139   2.713   5.574  14.512
11893POPC  H15C89140   2.710   5.405  14.556
11893POPC   C1189141   2.312   5.632  14.673
11893POPC  H11A89142   2.233   5.683  14.613
11893POPC  H11B89143   2.346   5.707  14.748
11893POPC     P89144   2.170   5.412  14.673
11893POPC   O1389145   2.037   5.467  14.646
11893POPC   O1489146   2.179   5.287  14.754
11893POPC   O1289147   2.260   5.521  14.743
11893POPC   O1189148   2.249   5.391  14.538
11893POPC    C189149   2.271   5.274  14.462
11893POPC    HA89150   2.182   5.255  14.399
11893POPC    HB89151   2.287   5.184  14.527
11893POPC    C289152   2.394   5.293  14.368
11893POPC    HS89153   2.486   5.294  14.430
11893POPC   O2189154   2.379   5.420  14.301
11893POPC   C2189155   2.454   5.455  14.197
11893POPC   O2289156   2.561   5.405  14.166
11893POPC   C2289157   2.375   5.563  14.122
11893POPC   H2R89158   2.304   5.610  14.194
11893POPC   H2S89159   2.313   5.513  14.045
11893POPC    C389160   2.405   5.176  14.267
11893POPC    HX89161   2.399   5.080  14.323
11893POPC    HY89162   2.504   5.178  14.216
11893POPC   O3189163   2.292   5.184  14.179
11893POPC   C3189164   2.316   5.155  14.051
11893POPC   O3289165   2.423   5.125  14.003
11893POPC   C3289166   2.181   5.168  13.979
11893POPC   H2X89167   2.101   5.183  14.054
11893POPC   H2Y89168   2.162   5.071  13.929
11893POPC   C2389169   2.460   5.674  14.058
11893POPC   H3R89170   2.515   5.634  13.970
11893POPC   H3S89171   2.535   5.711  14.131
11893POPC   C2489172   2.371   5.792  14.017
11893POPC   H4R89173   2.431   5.879  13.982
11893POPC   H4S89174   2.315   5.829  14.106
11893POPC   C2589175   2.269   5.758  13.907
11893POPC   H5R89176   2.212   5.851  13.885
11893POPC   H5S89177   2.195   5.684  13.944
11893POPC   C2689178   2.326   5.713  13.772
11893POPC   H6R89179   2.358   5.607  13.778
11893POPC   H6S89180   2.413   5.775  13.742
11893POPC   C2789181   2.213   5.730  13.669
11893POPC   H7R89182   2.195   5.837  13.649
11893POPC   H7S89183   2.122   5.692  13.720
11893POPC   C2889184   2.229   5.653  13.537
11893POPC   H8R89185   2.136   5.666  13.478
11893POPC   H8S89186   2.236   5.545  13.562
11893POPC   C2989187   2.345   5.702  13.454
11893POPC   H9189188   2.351   5.811  13.438
11893POPC  C21089189   2.437   5.621  13.399
11893POPC  H10189190   2.517   5.664  13.337
11893POPC  C21189191   2.435   5.472  13.412
11893POPC  H11R89192   2.331   5.433  13.401
11893POPC  H11S89193   2.470   5.441  13.514
11893POPC  C21289194   2.522   5.401  13.307
11893POPC  H12R89195   2.493   5.434  13.205
11893POPC  H12S89196   2.502   5.292  13.313
11893POPC  C21389197   2.671   5.425  13.333
11893POPC  H13R89198   2.692   5.392  13.438
11893POPC  H13S89199   2.696   5.533  13.327
11893POPC  C21489200   2.760   5.346  13.239
11893POPC  H14R89201   2.726   5.241  13.236
11893POPC  H14S89202   2.863   5.345  13.280
11893POPC  C21589203   2.762   5.394  13.093
11893POPC  H15R89204   2.668   5.362  13.044
11893POPC  H15S89205   2.846   5.340  13.042
11893POPC  C21689206   2.779   5.545  13.069
11893POPC  H16R89207   2.855   5.588  13.137
11893POPC  H16S89208   2.682   5.596  13.089
11893POPC  C21789209   2.822   5.569  12.924
11893POPC  H17R89210   2.757   5.503  12.864
11893POPC  H17S89211   2.926   5.533  12.911
11893POPC  C21889212   2.808   5.710  12.868
11893POPC  H18R89213   2.860   5.718  12.770
11893POPC  H18S89214   2.854   5.784  12.937
11893POPC  H18T89215   2.701   5.735  12.851
11893POPC   C3389216   2.174   5.285  13.880
11893POPC   H3X89217   2.186   5.382  13.933
11893POPC   H3Y89218   2.071   5.284  13.836
11893POPC   C3489219   2.274   5.277  13.764
11893POPC   H4X89220   2.378   5.273  13.803
11893POPC   H4Y89221   2.265   5.368  13.701
11893POPC   C3589222   2.247   5.154  13.677
11893POPC   H5X89223   2.144   5.165  13.638
11893POPC   H5Y89224   2.252   5.063  13.740
11893POPC   C3689225   2.347   5.138  13.562
11893POPC   H6X89226   2.447   5.115  13.606
11893POPC   H6Y89227   2.355   5.235  13.509
11893POPC   C3789228   2.310   5.028  13.460
11893POPC   H7X89229   2.307   4.930  13.512
11893POPC   H7Y89230   2.391   5.023  13.384
11893POPC   C3889231   2.176   5.050  13.387
11893POPC   H8X89232   2.093   5.072  13.457
11893POPC   H8Y89233   2.150   4.956  13.334
11893POPC   C3989234   2.188   5.162  13.284
11893POPC   H9X89235   2.272   5.132  13.217
11893POPC   H9Y89236   2.216   5.258  13.334
11893POPC  C31089237   2.063   5.186  13.199
11893POPC  H10X89238   2.003   5.267  13.244
11893POPC  H10Y89239   2.001   5.094  13.201
11893POPC  C31189240   2.100   5.222  13.053
11893POPC  H11X89241   2.007   5.254  13.000
11893POPC  H11Y89242   2.140   5.133  13.001
11893POPC  C31289243   2.203   5.336  13.050
11893POPC  H12X89244   2.297   5.307  13.101
11893POPC  H12Y89245   2.158   5.419  13.108
11893POPC  C31389246   2.244   5.386  12.910
11893POPC  H13X89247   2.154   5.391  12.844
11893POPC  H13Y89248   2.314   5.312  12.865
11893POPC  C31489249   2.312   5.523  12.915
11893POPC  H14X89250   2.337   5.552  12.811
11893POPC  H14Y89251   2.409   5.515  12.970
11893POPC  C31589252   2.229   5.636  12.980
11893POPC  H15X89253   2.280   5.733  12.961
11893POPC  H15Y89254   2.227   5.621  13.090
11893POPC  C31689255   2.085   5.644  12.929
11893POPC  H16X89256   2.028   5.553  12.956
11893POPC  H16Y89257   2.085   5.653  12.818
11893POPC  H16Z89258   2.032   5.732  12.972
11894POPC     N89259   6.898   3.601  14.742
11894POPC   C1289260   6.837   3.705  14.650
11894POPC  H12A89261   6.908   3.736  14.574
11894POPC  H12B89262   6.816   3.792  14.712
11894POPC   C1389263   6.842   3.616  14.879
11894POPC  H13A89264   6.869   3.709  14.927
11894POPC  H13B89265   6.732   3.618  14.876
11894POPC  H13C89266   6.870   3.536  14.947
11894POPC   C1489267   6.859   3.463  14.700
11894POPC  H14A89268   6.750   3.457  14.701
11894POPC  H14B89269   6.891   3.442  14.600
11894POPC  H14C89270   6.898   3.388  14.767
11894POPC   C1589271   7.046   3.615  14.746
11894POPC  H15A89272   7.090   3.544  14.815
11894POPC  H15B89273   7.079   3.714  14.780
11894POPC  H15C89274   7.090   3.599  14.649
11894POPC   C1189275   6.706   3.666  14.580
11894POPC  H11A89276   6.724   3.583  14.508
11894POPC  H11B89277   6.671   3.755  14.522
11894POPC     P89278   6.460   3.610  14.633
11894POPC   O1389279   6.415   3.725  14.551
11894POPC   O1489280   6.379   3.570  14.749
11894POPC   O1289281   6.611   3.627  14.677
11894POPC   O1189282   6.480   3.480  14.545
11894POPC    C189283   6.372   3.420  14.474
11894POPC    HA89284   6.273   3.465  14.502
11894POPC    HB89285   6.368   3.312  14.498
11894POPC    C289286   6.389   3.435  14.321
11894POPC    HS89287   6.433   3.340  14.283
11894POPC   O2189288   6.471   3.551  14.294
11894POPC   C2189289   6.584   3.529  14.230
11894POPC   O2289290   6.618   3.422  14.181
11894POPC   C2289291   6.668   3.657  14.228
11894POPC   H2R89292   6.749   3.640  14.302
11894POPC   H2S89293   6.607   3.743  14.261
11894POPC    C389294   6.251   3.451  14.253
11894POPC    HX89295   6.203   3.545  14.289
11894POPC    HY89296   6.186   3.367  14.286
11894POPC   O3189297   6.264   3.444  14.109
11894POPC   C3189298   6.301   3.560  14.057
11894POPC   O3289299   6.299   3.667  14.115
11894POPC   C3289300   6.356   3.541  13.918
11894POPC   H2X89301   6.280   3.484  13.860
11894POPC   H2Y89302   6.450   3.482  13.923
11894POPC   C2389303   6.734   3.683  14.090
11894POPC   H3R89304   6.668   3.749  14.030
11894POPC   H3S89305   6.745   3.587  14.034
11894POPC   C2489306   6.874   3.743  14.104
11894POPC   H4R89307   6.928   3.694  14.187
11894POPC   H4S89308   6.864   3.851  14.129
11894POPC   C2589309   6.958   3.730  13.977
11894POPC   H5R89310   6.960   3.623  13.946
11894POPC   H5S89311   7.063   3.761  13.998
11894POPC   C2689312   6.903   3.815  13.863
11894POPC   H6R89313   6.914   3.923  13.891
11894POPC   H6S89314   6.795   3.796  13.848
11894POPC   C2789315   6.975   3.791  13.730
11894POPC   H7R89316   6.932   3.702  13.678
11894POPC   H7S89317   7.082   3.769  13.751
11894POPC   C2889318   6.969   3.914  13.638
11894POPC   H8R89319   7.030   3.895  13.548
11894POPC   H8S89320   7.018   3.998  13.694
11894POPC   C2989321   6.828   3.955  13.605
11894POPC   H9189322   6.768   3.986  13.691
11894POPC  C21089323   6.771   3.956  13.484
11894POPC  H10189324   6.665   3.981  13.474
11894POPC  C21189325   6.837   3.916  13.355
11894POPC  H11R89326   6.944   3.945  13.354
11894POPC  H11S89327   6.789   3.968  13.270
11894POPC  C21289328   6.825   3.764  13.339
11894POPC  H12R89329   6.718   3.736  13.328
11894POPC  H12S89330   6.864   3.714  13.431
11894POPC  C21389331   6.903   3.708  13.221
11894POPC  H13R89332   6.882   3.599  13.212
11894POPC  H13S89333   7.011   3.718  13.244
11894POPC  C21489334   6.872   3.776  13.086
11894POPC  H14R89335   6.926   3.718  13.007
11894POPC  H14S89336   6.914   3.878  13.087
11894POPC  C21589337   6.723   3.783  13.050
11894POPC  H15R89338   6.672   3.858  13.115
11894POPC  H15S89339   6.677   3.684  13.069
11894POPC  C21689340   6.705   3.822  12.903
11894POPC  H16R89341   6.765   3.754  12.839
11894POPC  H16S89342   6.749   3.923  12.890
11894POPC  C21789343   6.562   3.832  12.847
11894POPC  H17R89344   6.578   3.831  12.738
11894POPC  H17S89345   6.522   3.932  12.875
11894POPC  C21889346   6.457   3.725  12.877
11894POPC  H18R89347   6.356   3.762  12.847
11894POPC  H18S89348   6.455   3.698  12.984
11894POPC  H18T89349   6.477   3.636  12.815
11894POPC   C3389350   6.382   3.680  13.860
11894POPC   H3X89351   6.461   3.734  13.918
11894POPC   H3Y89352   6.289   3.740  13.869
11894POPC   C3489353   6.423   3.677  13.713
11894POPC   H4X89354   6.527   3.638  13.707
11894POPC   H4Y89355   6.423   3.782  13.674
11894POPC   C3589356   6.331   3.591  13.627
11894POPC   H5X89357   6.225   3.608  13.654
11894POPC   H5Y89358   6.349   3.484  13.650
11894POPC   C3689359   6.350   3.618  13.478
11894POPC   H6X89360   6.313   3.720  13.455
11894POPC   H6Y89361   6.290   3.546  13.418
11894POPC   C3789362   6.496   3.606  13.435
11894POPC   H7X89363   6.559   3.675  13.495
11894POPC   H7Y89364   6.507   3.637  13.329
11894POPC   C3889365   6.545   3.461  13.451
11894POPC   H8X89366   6.529   3.413  13.353
11894POPC   H8Y89367   6.483   3.403  13.522
11894POPC   C3989368   6.690   3.451  13.498
11894POPC   H9X89369   6.693   3.434  13.608
11894POPC   H9Y89370   6.742   3.547  13.480
11894POPC  C31089371   6.768   3.341  13.425
11894POPC  H10X89372   6.727   3.241  13.453
11894POPC  H10Y89373   6.873   3.344  13.459
11894POPC  C31189374   6.766   3.358  13.272
11894POPC  H11X89375   6.870   3.355  13.234
11894POPC  H11Y89376   6.725   3.458  13.247
11894POPC  C31289377   6.685   3.249  13.201
11894POPC  H12X89378   6.580   3.246  13.237
11894POPC  H12Y89379   6.731   3.151  13.225
11894POPC  C31389380   6.686   3.269  13.049
11894POPC  H13X89381   6.661   3.172  13.000
11894POPC  H13Y89382   6.790   3.296  13.019
11894POPC  C31489383   6.588   3.374  12.997
11894POPC  H14X89384   6.606   3.472  13.047
11894POPC  H14Y89385   6.484   3.344  13.022
11894POPC  C31589386   6.602   3.391  12.845
11894POPC  H15X89387   6.515   3.448  12.807
11894POPC  H15Y89388   6.596   3.291  12.797
11894POPC  C31689389   6.733   3.459  12.805
11894POPC  H16X89390   6.748   3.551  12.865
11894POPC  H16Y89391   6.732   3.487  12.697
11894POPC  H16Z89392   6.820   3.393  12.823
11895POPC     N89393   2.443   3.926  14.840
11895POPC   C1289394   2.329   4.025  14.858
11895POPC  H12A89395   2.374   4.120  14.882
11895POPC  H12B89396   2.264   3.991  14.938
11895POPC   C1389397   2.543   3.998  14.756
11895POPC  H13A89398   2.489   4.037  14.670
11895POPC  H13B89399   2.585   4.084  14.808
11895POPC  H13C89400   2.620   3.932  14.722
11895POPC   C1489401   2.509   3.886  14.967
11895POPC  H14A89402   2.582   3.806  14.955
11895POPC  H14B89403   2.560   3.971  15.010
11895POPC  H14C89404   2.438   3.851  15.041
11895POPC   C1589405   2.389   3.805  14.772
11895POPC  H15A89406   2.466   3.735  14.745
11895POPC  H15B89407   2.340   3.836  14.680
11895POPC  H15C89408   2.313   3.758  14.832
11895POPC   C1189409   2.234   4.053  14.736
11895POPC  H11A89410   2.185   4.151  14.754
11895POPC  H11B89411   2.154   3.976  14.737
11895POPC     P89412   2.250   3.976  14.486
11895POPC   O1389413   2.135   4.047  14.427
11895POPC   O1489414   2.229   3.837  14.534
11895POPC   O1289415   2.302   4.058  14.610
11895POPC   O1189416   2.375   3.980  14.389
11895POPC    C189417   2.507   4.014  14.435
11895POPC    HA89418   2.552   3.929  14.489
11895POPC    HB89419   2.504   4.103  14.502
11895POPC    C289420   2.602   4.057  14.319
11895POPC    HS89421   2.682   4.123  14.360
11895POPC   O2189422   2.529   4.128  14.219
11895POPC   C2189423   2.466   4.237  14.260
11895POPC   O2289424   2.491   4.302  14.361
11895POPC   C2289425   2.363   4.276  14.154
11895POPC   H2R89426   2.362   4.387  14.148
11895POPC   H2S89427   2.265   4.240  14.189
11895POPC    C389428   2.673   3.936  14.250
11895POPC    HX89429   2.753   3.901  14.319
11895POPC    HY89430   2.724   3.971  14.157
11895POPC   O3189431   2.584   3.825  14.226
11895POPC   C3189432   2.515   3.832  14.111
11895POPC   O3289433   2.543   3.904  14.017
11895POPC   C3289434   2.396   3.735  14.114
11895POPC   H2X89435   2.309   3.797  14.143
11895POPC   H2Y89436   2.411   3.659  14.193
11895POPC   C2389437   2.398   4.214  14.017
11895POPC   H3R89438   2.384   4.104  14.020
11895POPC   H3S89439   2.506   4.232  13.995
11895POPC   C2489440   2.316   4.272  13.902
11895POPC   H4R89441   2.311   4.382  13.914
11895POPC   H4S89442   2.213   4.231  13.908
11895POPC   C2589443   2.377   4.241  13.765
11895POPC   H5R89444   2.466   4.306  13.747
11895POPC   H5S89445   2.304   4.265  13.685
11895POPC   C2689446   2.422   4.097  13.744
11895POPC   H6R89447   2.333   4.030  13.753
11895POPC   H6S89448   2.496   4.065  13.821
11895POPC   C2789449   2.485   4.081  13.605
11895POPC   H7R89450   2.591   4.114  13.607
11895POPC   H7S89451   2.431   4.147  13.534
11895POPC   C2889452   2.473   3.938  13.552
11895POPC   H8R89453   2.516   3.941  13.450
11895POPC   H8S89454   2.366   3.911  13.541
11895POPC   C2989455   2.543   3.837  13.640
11895POPC   H9189456   2.491   3.812  13.734
11895POPC  C21089457   2.662   3.780  13.614
11895POPC  H10189458   2.702   3.707  13.686
11895POPC  C21189459   2.748   3.807  13.493
11895POPC  H11R89460   2.853   3.791  13.523
11895POPC  H11S89461   2.738   3.914  13.462
11895POPC  C21289462   2.725   3.720  13.368
11895POPC  H12R89463   2.752   3.615  13.393
11895POPC  H12S89464   2.793   3.755  13.288
11895POPC  C21389465   2.581   3.726  13.316
11895POPC  H13R89466   2.558   3.829  13.282
11895POPC  H13S89467   2.513   3.702  13.401
11895POPC  C21489468   2.546   3.628  13.203
11895POPC  H14R89469   2.583   3.527  13.232
11895POPC  H14S89470   2.599   3.655  13.110
11895POPC  C21589471   2.394   3.622  13.184
11895POPC  H15R89472   2.348   3.605  13.285
11895POPC  H15S89473   2.367   3.534  13.123
11895POPC  C21689474   2.327   3.747  13.123
11895POPC  H16R89475   2.398   3.833  13.125
11895POPC  H16S89476   2.239   3.773  13.186
11895POPC  C21789477   2.277   3.727  12.979
11895POPC  H17R89478   2.231   3.626  12.969
11895POPC  H17S89479   2.366   3.729  12.913
11895POPC  C21889480   2.175   3.831  12.932
11895POPC  H18R89481   2.191   3.855  12.824
11895POPC  H18S89482   2.184   3.925  12.990
11895POPC  H18T89483   2.071   3.792  12.943
11895POPC   C3389484   2.370   3.668  13.976
11895POPC   H3X89485   2.457   3.604  13.949
11895POPC   H3Y89486   2.362   3.748  13.899
11895POPC   C3489487   2.242   3.583  13.969
11895POPC   H4X89488   2.255   3.492  14.032
11895POPC   H4Y89489   2.228   3.548  13.864
11895POPC   C3589490   2.113   3.653  14.014
11895POPC   H5X89491   2.113   3.663  14.125
11895POPC   H5Y89492   2.029   3.585  13.988
11895POPC   C3689493   2.085   3.790  13.951
11895POPC   H6X89494   2.160   3.864  13.987
11895POPC   H6Y89495   1.985   3.825  13.987
11895POPC   C3789496   2.084   3.788  13.798
11895POPC   H7X89497   2.015   3.709  13.762
11895POPC   H7Y89498   2.185   3.764  13.760
11895POPC   C3889499   2.039   3.922  13.739
11895POPC   H8X89500   2.117   3.998  13.762
11895POPC   H8Y89501   1.945   3.957  13.788
11895POPC   C3989502   2.018   3.915  13.587
11895POPC   H9X89503   1.926   3.858  13.563
11895POPC   H9Y89504   2.104   3.856  13.547
11895POPC  C31089505   2.015   4.054  13.523
11895POPC  H10X89506   2.065   4.124  13.594
11895POPC  H10Y89507   1.911   4.089  13.509
11895POPC  C31189508   2.094   4.060  13.391
11895POPC  H11X89509   2.029   4.031  13.305
11895POPC  H11Y89510   2.176   3.985  13.397
11895POPC  C31289511   2.157   4.198  13.369
11895POPC  H12X89512   2.218   4.223  13.458
11895POPC  H12Y89513   2.076   4.275  13.362
11895POPC  C31389514   2.248   4.211  13.245
11895POPC  H13X89515   2.298   4.309  13.251
11895POPC  H13Y89516   2.185   4.211  13.153
11895POPC  C31489517   2.353   4.099  13.231
11895POPC  H14X89518   2.320   4.030  13.151
11895POPC  H14Y89519   2.359   4.041  13.325
11895POPC  C31589520   2.497   4.146  13.202
11895POPC  H15X89521   2.556   4.057  13.169
11895POPC  H15Y89522   2.543   4.181  13.297
11895POPC  C31689523   2.511   4.257  13.099
11895POPC  H16X89524   2.423   4.263  13.031
11895POPC  H16Y89525   2.603   4.247  13.039
11895POPC  H16Z89526   2.516   4.352  13.156
11896POPC     N89527   6.401   2.823  14.810
11896POPC   C1289528   6.392   2.908  14.685
11896POPC  H12A89529   6.391   2.842  14.599
11896POPC  H12B89530   6.480   2.970  14.675
11896POPC   C1389531   6.356   2.901  14.930
11896POPC  H13A89532   6.255   2.938  14.909
11896POPC  H13B89533   6.351   2.839  15.018
11896POPC  H13C89534   6.417   2.987  14.952
11896POPC   C1489535   6.304   2.709  14.799
11896POPC  H14A89536   6.321   2.651  14.709
11896POPC  H14B89537   6.306   2.647  14.888
11896POPC  H14C89538   6.204   2.752  14.789
11896POPC   C1589539   6.542   2.774  14.826
11896POPC  H15A89540   6.550   2.717  14.918
11896POPC  H15B89541   6.611   2.858  14.834
11896POPC  H15C89542   6.575   2.712  14.743
11896POPC   C1189543   6.268   3.000  14.670
11896POPC  H11A89544   6.279   3.052  14.571
11896POPC  H11B89545   6.270   3.080  14.747
11896POPC     P89546   6.037   2.938  14.571
11896POPC   O1389547   6.033   3.079  14.526
11896POPC   O1489548   5.910   2.884  14.627
11896POPC   O1289549   6.148   2.924  14.682
11896POPC   O1189550   6.090   2.847  14.451
11896POPC    C189551   6.184   2.740  14.457
11896POPC    HA89552   6.172   2.684  14.552
11896POPC    HB89553   6.287   2.781  14.451
11896POPC    C289554   6.170   2.635  14.340
11896POPC    HS89555   6.238   2.550  14.366
11896POPC   O2189556   6.209   2.691  14.212
11896POPC   C2189557   6.233   2.602  14.114
11896POPC   O2289558   6.232   2.482  14.129
11896POPC   C2289559   6.277   2.679  13.987
11896POPC   H2R89560   6.368   2.630  13.947
11896POPC   H2S89561   6.306   2.781  14.019
11896POPC    C389562   6.024   2.580  14.333
11896POPC    HX89563   6.010   2.529  14.431
11896POPC    HY89564   6.014   2.503  14.253
11896POPC   O3189565   5.926   2.685  14.323
11896POPC   C3189566   5.924   2.739  14.200
11896POPC   O3289567   5.933   2.672  14.098
11896POPC   C3289568   5.911   2.891  14.206
11896POPC   H2X89569   5.978   2.931  14.283
11896POPC   H2Y89570   5.809   2.915  14.238
11896POPC   C2389571   6.171   2.694  13.875
11896POPC   H3R89572   6.189   2.793  13.825
11896POPC   H3S89573   6.068   2.698  13.914
11896POPC   C2489574   6.178   2.589  13.763
11896POPC   H4R89575   6.145   2.490  13.802
11896POPC   H4S89576   6.285   2.580  13.734
11896POPC   C2589577   6.097   2.630  13.639
11896POPC   H5R89578   6.164   2.661  13.557
11896POPC   H5S89579   6.037   2.719  13.668
11896POPC   C2689580   6.001   2.522  13.588
11896POPC   H6R89581   5.946   2.479  13.674
11896POPC   H6S89582   6.060   2.441  13.541
11896POPC   C2789583   5.896   2.578  13.491
11896POPC   H7R89584   5.945   2.648  13.419
11896POPC   H7S89585   5.824   2.637  13.553
11896POPC   C2889586   5.814   2.475  13.413
11896POPC   H8R89587   5.739   2.532  13.354
11896POPC   H8S89588   5.756   2.413  13.484
11896POPC   C2989589   5.900   2.389  13.324
11896POPC   H9189590   5.985   2.343  13.375
11896POPC  C21089591   5.884   2.369  13.192
11896POPC  H10189592   5.956   2.308  13.136
11896POPC  C21189593   5.773   2.430  13.112
11896POPC  H11R89594   5.680   2.440  13.172
11896POPC  H11S89595   5.747   2.366  13.025
11896POPC  C21289596   5.820   2.570  13.068
11896POPC  H12R89597   5.878   2.622  13.147
11896POPC  H12S89598   5.732   2.633  13.051
11896POPC  C21389599   5.896   2.571  12.935
11896POPC  H13R89600   5.991   2.513  12.945
11896POPC  H13S89601   5.922   2.677  12.913
11896POPC  C21489602   5.811   2.515  12.821
11896POPC  H14R89603   5.704   2.523  12.851
11896POPC  H14S89604   5.832   2.407  12.805
11896POPC  C21589605   5.825   2.594  12.691
11896POPC  H15R89606   5.806   2.701  12.712
11896POPC  H15S89607   5.745   2.560  12.621
11896POPC  C21689608   5.959   2.582  12.620
11896POPC  H16R89609   5.974   2.477  12.586
11896POPC  H16S89610   6.042   2.607  12.689
11896POPC  C21789611   5.963   2.677  12.499
11896POPC  H17R89612   5.951   2.781  12.535
11896POPC  H17S89613   5.876   2.655  12.434
11896POPC  C21889614   6.091   2.665  12.418
11896POPC  H18R89615   6.083   2.722  12.323
11896POPC  H18S89616   6.111   2.558  12.393
11896POPC  H18T89617   6.177   2.705  12.475
11896POPC   C3389618   5.947   2.967  14.075
11896POPC   H3X89619   5.886   3.060  14.076
11896POPC   H3Y89620   5.920   2.910  13.984
11896POPC   C3489621   6.093   3.015  14.071
11896POPC   H4X89622   6.157   2.932  14.035
11896POPC   H4Y89623   6.125   3.041  14.174
11896POPC   C3589624   6.113   3.139  13.981
11896POPC   H5X89625   6.219   3.172  13.989
11896POPC   H5Y89626   6.049   3.222  14.019
11896POPC   C3689627   6.079   3.111  13.834
11896POPC   H6X89628   5.972   3.083  13.825
11896POPC   H6Y89629   6.140   3.023  13.803
11896POPC   C3789630   6.106   3.229  13.738
11896POPC   H7X89631   6.211   3.264  13.750
11896POPC   H7Y89632   6.039   3.313  13.768
11896POPC   C3889633   6.081   3.195  13.590
11896POPC   H8X89634   6.096   3.287  13.528
11896POPC   H8Y89635   5.975   3.169  13.579
11896POPC   C3989636   6.173   3.085  13.532
11896POPC   H9X89637   6.185   3.002  13.605
11896POPC   H9Y89638   6.273   3.129  13.515
11896POPC  C31089639   6.124   3.019  13.401
11896POPC  H10X89640   6.072   3.093  13.337
11896POPC  H10Y89641   6.051   2.939  13.428
11896POPC  C31189642   6.239   2.953  13.322
11896POPC  H11X89643   6.311   2.910  13.395
11896POPC  H11Y89644   6.293   3.032  13.265
11896POPC  C31289645   6.197   2.838  13.228
11896POPC  H12X89646   6.166   2.752  13.290
11896POPC  H12Y89647   6.286   2.806  13.170
11896POPC  C31389648   6.081   2.869  13.131
11896POPC  H13X89649   5.990   2.886  13.192
11896POPC  H13Y89650   6.062   2.779  13.068
11896POPC  C31489651   6.101   2.992  13.040
11896POPC  H14X89652   6.142   3.076  13.100
11896POPC  H14Y89653   6.000   3.023  13.004
11896POPC  C31589654   6.190   2.972  12.916
11896POPC  H15X89655   6.282   2.916  12.944
11896POPC  H15Y89656   6.224   3.072  12.882
11896POPC  C31689657   6.119   2.903  12.798
11896POPC  H16X89658   6.188   2.894  12.711
11896POPC  H16Y89659   6.031   2.963  12.765
11896POPC  H16Z89660   6.083   2.802  12.825
11897POPC     N89661   2.650   3.339  14.674
11897POPC   C1289662   2.647   3.246  14.796
11897POPC  H12A89663   2.550   3.251  14.843
11897POPC  H12B89664   2.721   3.280  14.868
11897POPC   C1389665   2.785   3.343  14.608
11897POPC  H13A89666   2.858   3.395  14.667
11897POPC  H13B89667   2.820   3.240  14.592
11897POPC  H13C89668   2.778   3.388  14.510
11897POPC   C1489669   2.556   3.289  14.569
11897POPC  H14A89670   2.555   3.357  14.484
11897POPC  H14B89671   2.591   3.192  14.534
11897POPC  H14C89672   2.455   3.278  14.608
11897POPC   C1589673   2.613   3.478  14.714
11897POPC  H15A89674   2.681   3.519  14.788
11897POPC  H15B89675   2.512   3.481  14.754
11897POPC  H15C89676   2.617   3.540  14.625
11897POPC   C1189677   2.677   3.096  14.774
11897POPC  H11A89678   2.598   3.052  14.709
11897POPC  H11B89679   2.671   3.040  14.870
11897POPC     P89680   2.838   2.968  14.616
11897POPC   O1389681   2.827   2.836  14.681
11897POPC   O1489682   2.963   3.007  14.549
11897POPC   O1289683   2.809   3.083  14.722
11897POPC   O1189684   2.715   2.988  14.517
11897POPC    C189685   2.697   2.901  14.405
11897POPC    HA89686   2.649   2.806  14.437
11897POPC    HB89687   2.796   2.869  14.364
11897POPC    C289688   2.616   2.967  14.288
11897POPC    HS89689   2.611   2.893  14.205
11897POPC   O2189690   2.681   3.087  14.246
11897POPC   C2189691   2.801   3.072  14.195
11897POPC   O2289692   2.852   2.969  14.155
11897POPC   C2289693   2.864   3.210  14.190
11897POPC   H2R89694   2.971   3.203  14.216
11897POPC   H2S89695   2.815   3.275  14.265
11897POPC    C389696   2.469   3.012  14.318
11897POPC    HX89697   2.477   3.100  14.385
11897POPC    HY89698   2.409   2.940  14.375
11897POPC   O3189699   2.403   3.055  14.197
11897POPC   C3189700   2.324   2.973  14.127
11897POPC   O3289701   2.279   2.867  14.160
11897POPC   C3289702   2.307   3.027  13.987
11897POPC   H2X89703   2.253   3.124  13.996
11897POPC   H2Y89704   2.245   2.956  13.930
11897POPC   C2389705   2.846   3.271  14.050
11897POPC   H3R89706   2.748   3.244  14.005
11897POPC   H3S89707   2.926   3.229  13.985
11897POPC   C2489708   2.854   3.423  14.055
11897POPC   H4R89709   2.952   3.448  14.100
11897POPC   H4S89710   2.775   3.462  14.122
11897POPC   C2589711   2.837   3.490  13.917
11897POPC   H5R89712   2.856   3.599  13.926
11897POPC   H5S89713   2.731   3.477  13.886
11897POPC   C2689714   2.926   3.433  13.806
11897POPC   H6R89715   2.922   3.322  13.805
11897POPC   H6S89716   3.032   3.463  13.823
11897POPC   C2789717   2.880   3.481  13.668
11897POPC   H7R89718   2.883   3.592  13.667
11897POPC   H7S89719   2.775   3.449  13.650
11897POPC   C2889720   2.970   3.430  13.554
11897POPC   H8R89721   3.074   3.460  13.576
11897POPC   H8S89722   2.936   3.489  13.467
11897POPC   C2989723   2.968   3.281  13.528
11897POPC   H9189724   3.007   3.218  13.609
11897POPC  C21089725   2.924   3.222  13.416
11897POPC  H10189726   2.928   3.112  13.406
11897POPC  C21189727   2.869   3.294  13.296
11897POPC  H11R89728   2.892   3.402  13.296
11897POPC  H11S89729   2.759   3.293  13.298
11897POPC  C21289730   2.917   3.241  13.161
11897POPC  H12R89731   2.915   3.131  13.157
11897POPC  H12S89732   3.023   3.271  13.147
11897POPC  C21389733   2.831   3.297  13.049
11897POPC  H13R89734   2.831   3.408  13.059
11897POPC  H13S89735   2.725   3.265  13.058
11897POPC  C21489736   2.887   3.258  12.912
11897POPC  H14R89737   2.839   3.166  12.874
11897POPC  H14S89738   2.996   3.238  12.925
11897POPC  C21589739   2.871   3.371  12.812
11897POPC  H15R89740   2.948   3.365  12.732
11897POPC  H15S89741   2.880   3.468  12.866
11897POPC  C21689742   2.734   3.374  12.750
11897POPC  H16R89743   2.655   3.368  12.827
11897POPC  H16S89744   2.728   3.286  12.684
11897POPC  C21789745   2.715   3.500  12.667
11897POPC  H17R89746   2.673   3.477  12.567
11897POPC  H17S89747   2.811   3.548  12.648
11897POPC  C21889748   2.628   3.601  12.737
11897POPC  H18R89749   2.547   3.554  12.793
11897POPC  H18S89750   2.584   3.663  12.657
11897POPC  H18T89751   2.685   3.664  12.808
11897POPC   C3389752   2.446   3.042  13.922
11897POPC   H3X89753   2.497   2.943  13.917
11897POPC   H3Y89754   2.509   3.110  13.984
11897POPC   C3489755   2.438   3.101  13.782
11897POPC   H4X89756   2.393   3.027  13.712
11897POPC   H4Y89757   2.543   3.119  13.751
11897POPC   C3589758   2.356   3.231  13.776
11897POPC   H5X89759   2.396   3.303  13.851
11897POPC   H5Y89760   2.249   3.211  13.801
11897POPC   C3689761   2.358   3.297  13.638
11897POPC   H6X89762   2.303   3.394  13.642
11897POPC   H6Y89763   2.302   3.230  13.569
11897POPC   C3789764   2.501   3.319  13.586
11897POPC   H7X89765   2.555   3.222  13.581
11897POPC   H7Y89766   2.555   3.384  13.657
11897POPC   C3889767   2.509   3.377  13.444
11897POPC   H8X89768   2.614   3.371  13.412
11897POPC   H8Y89769   2.482   3.485  13.449
11897POPC   C3989770   2.416   3.308  13.341
11897POPC   H9X89771   2.431   3.354  13.242
11897POPC   H9Y89772   2.313   3.331  13.373
11897POPC  C31089773   2.427   3.155  13.327
11897POPC  H10X89774   2.331   3.117  13.287
11897POPC  H10Y89775   2.444   3.109  13.427
11897POPC  C31189776   2.539   3.111  13.232
11897POPC  H11X89777   2.630   3.157  13.273
11897POPC  H11Y89778   2.522   3.154  13.131
11897POPC  C31289779   2.571   2.961  13.219
11897POPC  H12X89780   2.497   2.910  13.154
11897POPC  H12Y89781   2.570   2.913  13.319
11897POPC  C31389782   2.713   2.952  13.160
11897POPC  H13X89783   2.776   3.010  13.230
11897POPC  H13Y89784   2.711   3.003  13.061
11897POPC  C31489785   2.783   2.816  13.147
11897POPC  H14X89786   2.735   2.754  13.068
11897POPC  H14Y89787   2.777   2.762  13.244
11897POPC  C31589788   2.933   2.835  13.114
11897POPC  H15X89789   2.986   2.738  13.115
11897POPC  H15Y89790   2.978   2.897  13.195
11897POPC  C31689791   2.961   2.906  12.981
11897POPC  H16X89792   3.065   2.945  12.979
11897POPC  H16Y89793   2.895   2.993  12.967
11897POPC  H16Z89794   2.945   2.838  12.895
11898POPC     N89795   5.071   2.259  14.700
11898POPC   C1289796   4.991   2.165  14.790
11898POPC  H12A89797   5.039   2.162  14.888
11898POPC  H12B89798   4.998   2.064  14.750
11898POPC   C1389799   5.050   2.212  14.561
11898POPC  H13A89800   5.094   2.281  14.491
11898POPC  H13B89801   5.090   2.113  14.542
11898POPC  H13C89802   4.942   2.206  14.544
11898POPC   C1489803   5.025   2.401  14.720
11898POPC  H14A89804   4.920   2.412  14.694
11898POPC  H14B89805   5.029   2.426  14.826
11898POPC  H14C89806   5.079   2.476  14.664
11898POPC   C1589807   5.216   2.255  14.733
11898POPC  H15A89808   5.260   2.160  14.709
11898POPC  H15B89809   5.227   2.271  14.840
11898POPC  H15C89810   5.270   2.335  14.682
11898POPC   C1189811   4.839   2.191  14.806
11898POPC  H11A89812   4.820   2.293  14.847
11898POPC  H11B89813   4.799   2.117  14.878
11898POPC     P89814   4.613   2.195  14.676
11898POPC   O1389815   4.551   2.177  14.809
11898POPC   O1489816   4.569   2.103  14.569
11898POPC   O1289817   4.772   2.177  14.682
11898POPC   O1189818   4.602   2.348  14.639
11898POPC    C189819   4.704   2.434  14.589
11898POPC    HA89820   4.804   2.387  14.589
11898POPC    HB89821   4.707   2.529  14.649
11898POPC    C289822   4.676   2.469  14.443
11898POPC    HS89823   4.570   2.497  14.443
11898POPC   O2189824   4.703   2.353  14.361
11898POPC   C2189825   4.601   2.273  14.347
11898POPC   O2289826   4.490   2.289  14.392
11898POPC   C2289827   4.638   2.164  14.249
11898POPC   H2R89828   4.679   2.077  14.304
11898POPC   H2S89829   4.710   2.202  14.175
11898POPC    C389830   4.757   2.589  14.387
11898POPC    HX89831   4.747   2.677  14.453
11898POPC    HY89832   4.714   2.619  14.288
11898POPC   O3189833   4.895   2.552  14.379
11898POPC   C3189834   4.923   2.485  14.267
11898POPC   O3289835   4.898   2.520  14.154
11898POPC   C3289836   4.990   2.354  14.309
11898POPC   H2X89837   4.922   2.310  14.384
11898POPC   H2Y89838   5.087   2.383  14.354
11898POPC   C2389839   4.503   2.141  14.182
11898POPC   H3R89840   4.467   2.241  14.145
11898POPC   H3S89841   4.428   2.106  14.257
11898POPC   C2489842   4.490   2.048  14.062
11898POPC   H4R89843   4.412   2.107  14.010
11898POPC   H4S89844   4.442   1.953  14.086
11898POPC   C2589845   4.607   2.017  13.969
11898POPC   H5R89846   4.653   1.918  13.995
11898POPC   H5S89847   4.688   2.091  13.982
11898POPC   C2689848   4.563   2.020  13.822
11898POPC   H6R89849   4.595   1.927  13.770
11898POPC   H6S89850   4.638   2.083  13.775
11898POPC   C2789851   4.411   2.046  13.788
11898POPC   H7R89852   4.348   1.994  13.864
11898POPC   H7S89853   4.389   1.983  13.699
11898POPC   C2889854   4.342   2.192  13.757
11898POPC   H8R89855   4.240   2.152  13.753
11898POPC   H8S89856   4.361   2.213  13.650
11898POPC   C2989857   4.322   2.325  13.840
11898POPC   H9189858   4.247   2.303  13.920
11898POPC  C21089859   4.360   2.463  13.824
11898POPC  H10189860   4.298   2.529  13.884
11898POPC  C21189861   4.460   2.557  13.739
11898POPC  H11R89862   4.514   2.500  13.667
11898POPC  H11S89863   4.532   2.549  13.818
11898POPC  C21289864   4.519   2.714  13.719
11898POPC  H12R89865   4.618   2.711  13.764
11898POPC  H12S89866   4.465   2.773  13.794
11898POPC  C21389867   4.536   2.812  13.584
11898POPC  H13R89868   4.500   2.903  13.639
11898POPC  H13S89869   4.448   2.795  13.520
11898POPC  C21489870   4.667   2.896  13.515
11898POPC  H14R89871   4.751   2.901  13.580
11898POPC  H14S89872   4.625   2.999  13.520
11898POPC  C21589873   4.754   2.919  13.373
11898POPC  H15R89874   4.854   2.951  13.410
11898POPC  H15S89875   4.719   3.011  13.325
11898POPC  C21689876   4.794   2.822  13.253
11898POPC  H16R89877   4.694   2.790  13.229
11898POPC  H16S89878   4.854   2.735  13.284
11898POPC  C21789879   4.807   2.846  13.098
11898POPC  H17R89880   4.899   2.895  13.064
11898POPC  H17S89881   4.728   2.916  13.066
11898POPC  C21889882   4.780   2.716  13.016
11898POPC  H18R89883   4.714   2.646  13.070
11898POPC  H18S89884   4.871   2.658  12.995
11898POPC  H18T89885   4.731   2.740  12.919
11898POPC   C3389886   5.004   2.246  14.200
11898POPC   H3X89887   4.906   2.225  14.154
11898POPC   H3Y89888   5.039   2.151  14.247
11898POPC   C3489889   5.100   2.292  14.092
11898POPC   H4X89890   5.182   2.351  14.137
11898POPC   H4Y89891   5.045   2.359  14.022
11898POPC   C3589892   5.163   2.178  14.014
11898POPC   H5X89893   5.084   2.113  13.968
11898POPC   H5Y89894   5.222   2.115  14.084
11898POPC   C3689895   5.250   2.237  13.904
11898POPC   H6X89896   5.335   2.172  13.876
11898POPC   H6Y89897   5.293   2.334  13.938
11898POPC   C3789898   5.162   2.258  13.782
11898POPC   H7X89899   5.068   2.310  13.811
11898POPC   H7Y89900   5.133   2.159  13.741
11898POPC   C3889901   5.231   2.342  13.677
11898POPC   H8X89902   5.320   2.291  13.637
11898POPC   H8Y89903   5.266   2.438  13.721
11898POPC   C3989904   5.131   2.371  13.567
11898POPC   H9X89905   5.185   2.422  13.486
11898POPC   H9Y89906   5.052   2.437  13.607
11898POPC  C31089907   5.065   2.249  13.505
11898POPC  H10X89908   4.995   2.197  13.574
11898POPC  H10Y89909   5.145   2.177  13.476
11898POPC  C31189910   4.990   2.294  13.380
11898POPC  H11X89911   5.057   2.364  13.326
11898POPC  H11Y89912   4.895   2.346  13.403
11898POPC  C31289913   4.971   2.180  13.284
11898POPC  H12X89914   4.884   2.117  13.312
11898POPC  H12Y89915   5.063   2.117  13.293
11898POPC  C31389916   4.961   2.233  13.142
11898POPC  H13X89917   5.048   2.298  13.116
11898POPC  H13Y89918   4.869   2.295  13.132
11898POPC  C31489919   4.955   2.116  13.047
11898POPC  H14X89920   4.933   2.152  12.944
11898POPC  H14Y89921   4.869   2.056  13.084
11898POPC  C31589922   5.077   2.026  13.045
11898POPC  H15X89923   5.118   2.002  13.146
11898POPC  H15Y89924   5.159   2.074  12.988
11898POPC  C31689925   5.038   1.894  12.983
11898POPC  H16X89926   5.127   1.830  12.965
11898POPC  H16Y89927   4.987   1.913  12.888
11898POPC  H16Z89928   4.966   1.840  13.048
11899POPC     N89929   3.849   2.141  14.797
11899POPC   C1289930   3.920   2.153  14.663
11899POPC  H12A89931   3.906   2.062  14.608
11899POPC  H12B89932   4.025   2.175  14.679
11899POPC   C1389933   3.881   2.017  14.876
11899POPC  H13A89934   3.835   2.022  14.975
11899POPC  H13B89935   3.836   1.928  14.831
11899POPC  H13C89936   3.987   2.004  14.888
11899POPC   C1489937   3.885   2.262  14.876
11899POPC  H14A89938   3.993   2.266  14.893
11899POPC  H14B89939   3.863   2.349  14.815
11899POPC  H14C89940   3.832   2.270  14.969
11899POPC   C1589941   3.702   2.140  14.770
11899POPC  H15A89942   3.676   2.051  14.712
11899POPC  H15B89943   3.676   2.227  14.711
11899POPC  H15C89944   3.645   2.144  14.862
11899POPC   C1189945   3.874   2.268  14.568
11899POPC  H11A89946   3.764   2.268  14.554
11899POPC  H11B89947   3.915   2.251  14.465
11899POPC     P89948   4.066   2.432  14.615
11899POPC   O1389949   4.130   2.346  14.718
11899POPC   O1489950   4.076   2.578  14.635
11899POPC   O1289951   3.912   2.395  14.619
11899POPC   O1189952   4.111   2.388  14.471
11899POPC    C189953   4.245   2.410  14.429
11899POPC    HA89954   4.272   2.323  14.366
11899POPC    HB89955   4.318   2.415  14.514
11899POPC    C289956   4.255   2.537  14.341
11899POPC    HS89957   4.208   2.618  14.402
11899POPC   O2189958   4.188   2.509  14.218
11899POPC   C2189959   4.076   2.573  14.201
11899POPC   O2289960   4.027   2.657  14.273
11899POPC   C2289961   4.030   2.548  14.058
11899POPC   H2R89962   4.122   2.546  13.996
11899POPC   H2S89963   3.968   2.635  14.029
11899POPC    C389964   4.396   2.592  14.303
11899POPC    HX89965   4.443   2.626  14.398
11899POPC    HY89966   4.379   2.688  14.251
11899POPC   O3189967   4.484   2.502  14.225
11899POPC   C3189968   4.501   2.535  14.095
11899POPC   O3289969   4.435   2.621  14.041
11899POPC   C3289970   4.633   2.479  14.030
11899POPC   H2X89971   4.689   2.450  14.120
11899POPC   H2Y89972   4.678   2.570  13.985
11899POPC   C2389973   3.954   2.416  14.036
11899POPC   H3R89974   3.853   2.420  14.083
11899POPC   H3S89975   4.010   2.332  14.082
11899POPC   C2489976   3.941   2.391  13.885
11899POPC   H4R89977   4.036   2.418  13.833
11899POPC   H4S89978   3.860   2.456  13.844
11899POPC   C2589979   3.911   2.245  13.855
11899POPC   H5R89980   3.823   2.216  13.917
11899POPC   H5S89981   3.996   2.180  13.886
11899POPC   C2689982   3.878   2.216  13.708
11899POPC   H6R89983   3.970   2.218  13.645
11899POPC   H6S89984   3.806   2.292  13.669
11899POPC   C2789985   3.813   2.078  13.705
11899POPC   H7R89986   3.736   2.078  13.784
11899POPC   H7S89987   3.892   2.007  13.739
11899POPC   C2889988   3.748   2.028  13.575
11899POPC   H8R89989   3.706   1.927  13.597
11899POPC   H8S89990   3.827   2.012  13.498
11899POPC   C2989991   3.635   2.114  13.526
11899POPC   H9189992   3.542   2.107  13.585
11899POPC  C21089993   3.642   2.196  13.420
11899POPC  H10189994   3.556   2.259  13.394
11899POPC  C21189995   3.767   2.212  13.335
11899POPC  H11R89996   3.856   2.203  13.401
11899POPC  H11S89997   3.772   2.315  13.294
11899POPC  C21289998   3.786   2.111  13.220
11899POPC  H12R89999   3.714   2.133  13.138
11899POPC  H12S90000   3.766   2.008  13.255
11899POPC  C21390001   3.930   2.121  13.166
11899POPC  H13R90002   4.000   2.125  13.253
11899POPC  H13S90003   3.932   2.218  13.114
11899POPC  C21490004   3.987   2.018  13.067
11899POPC  H14R90005   4.007   1.923  13.123
11899POPC  H14S90006   4.086   2.054  13.032
11899POPC  C21590007   3.899   1.990  12.944
11899POPC  H15R90008   3.807   1.941  12.982
11899POPC  H15S90009   3.950   1.916  12.878
11899POPC  C21690010   3.860   2.112  12.860
11899POPC  H16R90011   3.950   2.154  12.810
11899POPC  H16S90012   3.817   2.191  12.926
11899POPC  C21790013   3.757   2.078  12.752
11899POPC  H17R90014   3.680   2.013  12.799
11899POPC  H17S90015   3.806   2.018  12.672
11899POPC  C21890016   3.688   2.200  12.691
11899POPC  H18R90017   3.631   2.255  12.769
11899POPC  H18S90018   3.617   2.169  12.611
11899POPC  H18T90019   3.761   2.272  12.648
11899POPC   C3390020   4.655   2.359  13.923
11899POPC   H3X90021   4.577   2.283  13.937
11899POPC   H3Y90022   4.749   2.313  13.965
11899POPC   C3490023   4.698   2.378  13.769
11899POPC   H4X90024   4.805   2.347  13.766
11899POPC   H4Y90025   4.702   2.481  13.739
11899POPC   C3590026   4.628   2.290  13.654
11899POPC   H5X90027   4.560   2.235  13.714
11899POPC   H5Y90028   4.709   2.222  13.618
11899POPC   C3690029   4.543   2.313  13.519
11899POPC   H6X90030   4.510   2.211  13.488
11899POPC   H6Y90031   4.624   2.334  13.446
11899POPC   C3790032   4.418   2.407  13.478
11899POPC   H7X90033   4.416   2.401  13.368
11899POPC   H7Y90034   4.452   2.510  13.494
11899POPC   C3890035   4.269   2.424  13.531
11899POPC   H8X90036   4.255   2.534  13.549
11899POPC   H8Y90037   4.241   2.376  13.623
11899POPC   C3990038   4.149   2.393  13.440
11899POPC   H9X90039   4.054   2.424  13.490
11899POPC   H9Y90040   4.143   2.283  13.424
11899POPC  C31090041   4.164   2.470  13.311
11899POPC  H10X90042   4.261   2.436  13.270
11899POPC  H10Y90043   4.175   2.579  13.326
11899POPC  C31190044   4.064   2.433  13.205
11899POPC  H11X90045   3.985   2.509  13.190
11899POPC  H11Y90046   4.012   2.343  13.240
11899POPC  C31290047   4.148   2.411  13.079
11899POPC  H12X90048   4.231   2.339  13.097
11899POPC  H12Y90049   4.194   2.510  13.056
11899POPC  C31390050   4.072   2.360  12.959
11899POPC  H13X90051   3.965   2.383  12.975
11899POPC  H13Y90052   4.081   2.250  12.952
11899POPC  C31490053   4.129   2.421  12.832
11899POPC  H14X90054   4.213   2.359  12.795
11899POPC  H14Y90055   4.168   2.523  12.854
11899POPC  C31590056   4.023   2.439  12.725
11899POPC  H15X90057   3.987   2.339  12.695
11899POPC  H15Y90058   4.074   2.487  12.637
11899POPC  C31690059   3.903   2.525  12.765
11899POPC  H16X90060   3.820   2.506  12.695
11899POPC  H16Y90061   3.933   2.631  12.761
11899POPC  H16Z90062   3.864   2.505  12.866
11900POPC     N90063   3.698   6.986  14.646
11900POPC   C1290064   3.571   7.010  14.565
11900POPC  H12A90065   3.533   6.911  14.537
11900POPC  H12B90066   3.594   7.063  14.475
11900POPC   C1390067   3.768   7.113  14.684
11900POPC  H13A90068   3.698   7.180  14.734
11900POPC  H13B90069   3.848   7.092  14.756
11900POPC  H13C90070   3.812   7.162  14.599
11900POPC   C1490071   3.661   6.916  14.772
11900POPC  H14A90072   3.583   6.974  14.822
11900POPC  H14B90073   3.616   6.821  14.749
11900POPC  H14C90074   3.744   6.905  14.840
11900POPC   C1590075   3.787   6.891  14.572
11900POPC  H15A90076   3.815   6.930  14.475
11900POPC  H15B90077   3.736   6.796  14.557
11900POPC  H15C90078   3.879   6.872  14.627
11900POPC   C1190079   3.449   7.077  14.634
11900POPC  H11A90080   3.373   7.106  14.558
11900POPC  H11B90081   3.481   7.171  14.685
11900POPC     P90082   3.324   6.855  14.692
11900POPC   O1390083   3.245   6.818  14.812
11900POPC   O1490084   3.432   6.761  14.655
11900POPC   O1290085   3.392   6.992  14.730
11900POPC   O1190086   3.231   6.886  14.565
11900POPC    C190087   3.115   6.971  14.578
11900POPC    HA90088   3.139   7.062  14.637
11900POPC    HB90089   3.035   6.916  14.634
11900POPC    C290090   3.044   7.022  14.444
11900POPC    HS90091   2.946   6.969  14.437
11900POPC   O2190092   3.125   6.997  14.327
11900POPC   C2190093   3.061   6.995  14.208
11900POPC   O2290094   2.944   7.020  14.190
11900POPC   C2290095   3.156   6.948  14.098
11900POPC   H2R90096   3.224   6.872  14.141
11900POPC   H2S90097   3.215   7.035  14.064
11900POPC    C390098   3.010   7.174  14.454
11900POPC    HX90099   2.944   7.189  14.542
11900POPC    HY90100   2.947   7.202  14.366
11900POPC   O3190101   3.129   7.255  14.471
11900POPC   C3190102   3.157   7.339  14.373
11900POPC   O3290103   3.092   7.359  14.273
11900POPC   C3290104   3.288   7.413  14.402
11900POPC   H2X90105   3.339   7.367  14.489
11900POPC   H2Y90106   3.260   7.517  14.426
11900POPC   C2390107   3.075   6.886  13.981
11900POPC   H3R90108   3.006   6.963  13.938
11900POPC   H3S90109   3.011   6.805  14.021
11900POPC   C2490110   3.160   6.824  13.869
11900POPC   H4R90111   3.090   6.782  13.793
11900POPC   H4S90112   3.220   6.740  13.910
11900POPC   C2590113   3.253   6.923  13.796
11900POPC   H5R90114   3.296   6.874  13.707
11900POPC   H5S90115   3.336   6.952  13.863
11900POPC   C2690116   3.176   7.049  13.754
11900POPC   H6R90117   3.152   7.108  13.846
11900POPC   H6S90118   3.081   7.019  13.706
11900POPC   C2790119   3.252   7.142  13.659
11900POPC   H7R90120   3.254   7.098  13.556
11900POPC   H7S90121   3.357   7.153  13.694
11900POPC   C2890122   3.188   7.282  13.655
11900POPC   H8R90123   3.252   7.346  13.590
11900POPC   H8S90124   3.195   7.324  13.758
11900POPC   C2990125   3.044   7.282  13.612
11900POPC   H9190126   2.976   7.221  13.674
11900POPC  C21090127   2.992   7.347  13.506
11900POPC  H10190128   2.885   7.336  13.484
11900POPC  C21190129   3.070   7.433  13.411
11900POPC  H11R90130   3.144   7.493  13.466
11900POPC  H11S90131   3.002   7.504  13.358
11900POPC  C21290132   3.148   7.352  13.306
11900POPC  H12R90133   3.228   7.292  13.356
11900POPC  H12S90134   3.199   7.423  13.237
11900POPC  C21390135   3.056   7.259  13.228
11900POPC  H13R90136   2.967   7.317  13.196
11900POPC  H13S90137   3.021   7.176  13.294
11900POPC  C21490138   3.125   7.200  13.107
11900POPC  H14R90139   3.215   7.144  13.138
11900POPC  H14S90140   3.157   7.282  13.039
11900POPC  C21590141   3.041   7.099  13.030
11900POPC  H15R90142   2.937   7.138  13.026
11900POPC  H15S90143   3.040   7.002  13.085
11900POPC  C21690144   3.101   7.083  12.890
11900POPC  H16R90145   3.118   6.978  12.862
11900POPC  H16S90146   3.203   7.127  12.893
11900POPC  C21790147   3.022   7.161  12.784
11900POPC  H17R90148   3.100   7.226  12.740
11900POPC  H17S90149   2.945   7.223  12.836
11900POPC  C21890150   2.948   7.093  12.668
11900POPC  H18R90151   2.840   7.086  12.686
11900POPC  H18S90152   2.982   6.992  12.653
11900POPC  H18T90153   2.970   7.143  12.571
11900POPC   C3390154   3.377   7.411  14.276
11900POPC   H3X90155   3.468   7.471  14.295
11900POPC   H3Y90156   3.324   7.458  14.190
11900POPC   C3490157   3.418   7.269  14.236
11900POPC   H4X90158   3.328   7.209  14.207
11900POPC   H4Y90159   3.466   7.218  14.322
11900POPC   C3590160   3.515   7.269  14.117
11900POPC   H5X90161   3.600   7.336  14.142
11900POPC   H5Y90162   3.464   7.312  14.028
11900POPC   C3690163   3.569   7.130  14.082
11900POPC   H6X90164   3.492   7.072  14.027
11900POPC   H6Y90165   3.590   7.075  14.177
11900POPC   C3790166   3.699   7.137  14.000
11900POPC   H7X90167   3.747   7.037  13.996
11900POPC   H7Y90168   3.769   7.206  14.054
11900POPC   C3890169   3.680   7.191  13.857
11900POPC   H8X90170   3.777   7.234  13.823
11900POPC   H8Y90171   3.605   7.273  13.856
11900POPC   C3990172   3.639   7.082  13.758
11900POPC   H9X90173   3.540   7.040  13.787
11900POPC   H9Y90174   3.713   6.998  13.762
11900POPC  C31090175   3.632   7.133  13.613
11900POPC  H10X90176   3.734   7.163  13.581
11900POPC  H10Y90177   3.567   7.224  13.609
11900POPC  C31190178   3.577   7.027  13.517
11900POPC  H11X90179   3.471   7.005  13.541
11900POPC  H11Y90180   3.634   6.932  13.535
11900POPC  C31290181   3.590   7.064  13.369
11900POPC  H12X90182   3.561   6.974  13.310
11900POPC  H12Y90183   3.694   7.090  13.342
11900POPC  C31390184   3.501   7.181  13.327
11900POPC  H13X90185   3.552   7.278  13.344
11900POPC  H13Y90186   3.409   7.180  13.391
11900POPC  C31490187   3.456   7.168  13.181
11900POPC  H14X90188   3.390   7.254  13.157
11900POPC  H14Y90189   3.397   7.073  13.175
11900POPC  C31590190   3.565   7.158  13.075
11900POPC  H15X90191   3.628   7.069  13.094
11900POPC  H15Y90192   3.630   7.248  13.082
11900POPC  C31690193   3.506   7.148  12.933
11900POPC  H16X90194   3.586   7.140  12.857
11900POPC  H16Y90195   3.445   7.238  12.911
11900POPC  H16Z90196   3.440   7.059  12.925
11901POPC     N90197   6.164   6.816  14.568
11901POPC   C1290198   6.061   6.707  14.587
11901POPC  H12A90199   5.988   6.707  14.507
11901POPC  H12B90200   6.002   6.729  14.677
11901POPC   C1390201   6.255   6.807  14.687
11901POPC  H13A90202   6.197   6.825  14.777
11901POPC  H13B90203   6.290   6.704  14.696
11901POPC  H13C90204   6.339   6.875  14.684
11901POPC   C1490205   6.240   6.798  14.441
11901POPC  H14A90206   6.282   6.698  14.438
11901POPC  H14B90207   6.177   6.810  14.354
11901POPC  H14C90208   6.322   6.869  14.433
11901POPC   C1590209   6.097   6.950  14.569
11901POPC  H15A90210   6.170   7.031  14.566
11901POPC  H15B90211   6.041   6.963  14.660
11901POPC  H15C90212   6.031   6.963  14.484
11901POPC   C1190213   6.111   6.561  14.604
11901POPC  H11A90214   6.188   6.538  14.528
11901POPC  H11B90215   6.026   6.490  14.587
11901POPC     P90216   6.065   6.535  14.857
11901POPC   O1390217   5.987   6.662  14.856
11901POPC   O1490218   6.147   6.508  14.977
11901POPC   O1290219   6.165   6.543  14.734
11901POPC   O1190220   5.983   6.403  14.819
11901POPC    C190221   6.016   6.276  14.881
11901POPC    HA90222   5.927   6.236  14.933
11901POPC    HB90223   6.090   6.285  14.962
11901POPC    C290224   6.074   6.160  14.790
11901POPC    HS90225   6.087   6.073  14.859
11901POPC   O2190226   6.199   6.189  14.729
11901POPC   C2190227   6.300   6.241  14.794
11901POPC   O2290228   6.317   6.235  14.915
11901POPC   C2290229   6.390   6.308  14.690
11901POPC   H2R90230   6.493   6.270  14.703
11901POPC   H2S90231   6.389   6.416  14.713
11901POPC    C390232   5.985   6.110  14.673
11901POPC    HX90233   5.899   6.054  14.711
11901POPC    HY90234   6.049   6.035  14.619
11901POPC   O3190235   5.939   6.218  14.589
11901POPC   C3190236   5.951   6.198  14.458
11901POPC   O3290237   6.009   6.104  14.406
11901POPC   C3290238   5.885   6.317  14.387
11901POPC   H2X90239   5.938   6.410  14.412
11901POPC   H2Y90240   5.781   6.323  14.428
11901POPC   C2390241   6.337   6.286  14.545
11901POPC   H3R90242   6.229   6.315  14.543
11901POPC   H3S90243   6.342   6.178  14.517
11901POPC   C2490244   6.406   6.373  14.438
11901POPC   H4R90245   6.502   6.327  14.409
11901POPC   H4S90246   6.426   6.472  14.485
11901POPC   C2590247   6.318   6.397  14.313
11901POPC   H5R90248   6.213   6.416  14.345
11901POPC   H5S90249   6.317   6.304  14.251
11901POPC   C2690250   6.366   6.517  14.229
11901POPC   H6R90251   6.471   6.501  14.201
11901POPC   H6S90252   6.363   6.608  14.292
11901POPC   C2790253   6.280   6.541  14.103
11901POPC   H7R90254   6.175   6.563  14.132
11901POPC   H7S90255   6.279   6.447  14.044
11901POPC   C2890256   6.329   6.653  14.008
11901POPC   H8R90257   6.295   6.624  13.906
11901POPC   H8S90258   6.440   6.653  14.003
11901POPC   C2990259   6.277   6.792  14.040
11901POPC   H9190260   6.329   6.842  14.122
11901POPC  C21090261   6.176   6.856  13.977
11901POPC  H10190262   6.145   6.955  14.013
11901POPC  C21190263   6.093   6.804  13.861
11901POPC  H11R90264   5.988   6.836  13.877
11901POPC  H11S90265   6.092   6.693  13.859
11901POPC  C21290266   6.134   6.852  13.720
11901POPC  H12R90267   6.150   6.962  13.718
11901POPC  H12S90268   6.048   6.830  13.653
11901POPC  C21390269   6.257   6.782  13.659
11901POPC  H13R90270   6.255   6.673  13.684
11901POPC  H13S90271   6.350   6.824  13.702
11901POPC  C21490272   6.255   6.796  13.506
11901POPC  H14R90273   6.243   6.905  13.482
11901POPC  H14S90274   6.165   6.743  13.468
11901POPC  C21590275   6.378   6.743  13.433
11901POPC  H15R90276   6.411   6.646  13.477
11901POPC  H15S90277   6.460   6.817  13.448
11901POPC  C21690278   6.354   6.726  13.282
11901POPC  H16R90279   6.287   6.639  13.265
11901POPC  H16S90280   6.451   6.704  13.231
11901POPC  C21790281   6.288   6.849  13.219
11901POPC  H17R90282   6.349   6.937  13.247
11901POPC  H17S90283   6.187   6.864  13.264
11901POPC  C21890284   6.273   6.842  13.067
11901POPC  H18R90285   6.199   6.918  13.032
11901POPC  H18S90286   6.238   6.742  13.035
11901POPC  H18T90287   6.370   6.865  13.020
11901POPC   C3390288   5.878   6.299  14.234
11901POPC   H3X90289   5.786   6.350  14.198
11901POPC   H3Y90290   5.867   6.190  14.212
11901POPC   C3490291   5.999   6.356  14.159
11901POPC   H4X90292   6.089   6.308  14.206
11901POPC   H4Y90293   6.003   6.465  14.176
11901POPC   C3590294   6.006   6.325  14.007
11901POPC   H5X90295   5.971   6.221  13.993
11901POPC   H5Y90296   6.112   6.324  13.975
11901POPC   C3690297   5.932   6.427  13.917
11901POPC   H6X90298   5.999   6.515  13.905
11901POPC   H6Y90299   5.840   6.463  13.969
11901POPC   C3790300   5.892   6.375  13.777
11901POPC   H7X90301   5.790   6.332  13.788
11901POPC   H7Y90302   5.960   6.293  13.747
11901POPC   C3890303   5.882   6.478  13.663
11901POPC   H8X90304   5.836   6.571  13.700
11901POPC   H8Y90305   5.813   6.435  13.586
11901POPC   C3990306   6.015   6.508  13.591
11901POPC   H9X90307   6.079   6.566  13.659
11901POPC   H9Y90308   5.992   6.574  13.503
11901POPC  C31090309   6.093   6.385  13.542
11901POPC  H10X90310   6.022   6.304  13.515
11901POPC  H10Y90311   6.154   6.347  13.627
11901POPC  C31190312   6.186   6.412  13.423
11901POPC  H11X90313   6.261   6.330  13.415
11901POPC  H11Y90314   6.243   6.505  13.445
11901POPC  C31290315   6.116   6.428  13.287
11901POPC  H12X90316   6.194   6.451  13.211
11901POPC  H12Y90317   6.046   6.514  13.291
11901POPC  C31390318   6.041   6.303  13.240
11901POPC  H13X90319   5.964   6.275  13.315
11901POPC  H13Y90320   6.111   6.217  13.233
11901POPC  C31490321   5.968   6.324  13.106
11901POPC  H14X90322   5.903   6.414  13.117
11901POPC  H14Y90323   5.902   6.237  13.086
11901POPC  C31590324   6.061   6.345  12.986
11901POPC  H15X90325   6.122   6.437  13.002
11901POPC  H15Y90326   5.999   6.364  12.895
11901POPC  C31690327   6.154   6.228  12.955
11901POPC  H16X90328   6.210   6.195  13.045
11901POPC  H16Y90329   6.228   6.262  12.881
11901POPC  H16Z90330   6.098   6.142  12.914
11902POPC     N90331   7.363   4.279  14.870
11902POPC   C1290332   7.369   4.175  14.759
11902POPC  H12A90333   7.288   4.105  14.775
11902POPC  H12B90334   7.463   4.121  14.764
11902POPC   C1390335   7.437   4.402  14.829
11902POPC  H13A90336   7.395   4.436  14.734
11902POPC  H13B90337   7.425   4.479  14.904
11902POPC  H13C90338   7.543   4.382  14.816
11902POPC   C1490339   7.220   4.321  14.896
11902POPC  H14A90340   7.173   4.348  14.801
11902POPC  H14B90341   7.163   4.241  14.939
11902POPC  H14C90342   7.216   4.408  14.960
11902POPC   C1590343   7.420   4.224  14.995
11902POPC  H15A90344   7.523   4.193  14.981
11902POPC  H15B90345   7.361   4.141  15.032
11902POPC  H15C90346   7.423   4.304  15.069
11902POPC   C1190347   7.352   4.227  14.617
11902POPC  H11A90348   7.345   4.140  14.547
11902POPC  H11B90349   7.439   4.289  14.584
11902POPC     P90350   7.155   4.333  14.488
11902POPC   O1390351   7.250   4.396  14.394
11902POPC   O1490352   7.034   4.410  14.525
11902POPC   O1290353   7.233   4.304  14.619
11902POPC   O1190354   7.116   4.188  14.434
11902POPC    C190355   7.025   4.103  14.501
11902POPC    HA90356   6.957   4.160  14.568
11902POPC    HB90357   7.082   4.034  14.567
11902POPC    C290358   6.937   4.019  14.402
11902POPC    HS90359   6.860   3.970  14.465
11902POPC   O2190360   7.005   3.914  14.332
11902POPC   C2190361   7.137   3.915  14.335
11902POPC   O2290362   7.204   3.871  14.427
11902POPC   C2290363   7.193   3.960  14.200
11902POPC   H2R90364   7.112   3.964  14.124
11902POPC   H2S90365   7.265   3.884  14.166
11902POPC    C390366   6.862   4.098  14.289
11902POPC    HX90367   6.755   4.101  14.315
11902POPC    HY90368   6.866   4.034  14.198
11902POPC   O3190369   6.911   4.231  14.262
11902POPC   C3190370   6.970   4.251  14.144
11902POPC   O3290371   6.973   4.168  14.054
11902POPC   C3290372   7.033   4.390  14.133
11902POPC   H2X90373   7.073   4.419  14.232
11902POPC   H2Y90374   6.956   4.464  14.107
11902POPC   C2390375   7.271   4.093  14.205
11902POPC   H3R90376   7.323   4.107  14.303
11902POPC   H3S90377   7.203   4.179  14.194
11902POPC   C2490378   7.376   4.098  14.095
11902POPC   H4R90379   7.328   4.069  13.999
11902POPC   H4S90380   7.455   4.023  14.119
11902POPC   C2590381   7.444   4.234  14.079
11902POPC   H5R90382   7.458   4.283  14.178
11902POPC   H5S90383   7.380   4.301  14.018
11902POPC   C2690384   7.577   4.219  14.005
11902POPC   H6R90385   7.649   4.169  14.074
11902POPC   H6S90386   7.617   4.319  13.980
11902POPC   C2790387   7.560   4.135  13.877
11902POPC   H7R90388   7.518   4.034  13.900
11902POPC   H7S90389   7.660   4.114  13.839
11902POPC   C2890390   7.476   4.205  13.769
11902POPC   H8R90391   7.518   4.307  13.754
11902POPC   H8S90392   7.374   4.221  13.810
11902POPC   C2990393   7.464   4.128  13.640
11902POPC   H9190394   7.407   4.034  13.648
11902POPC  C21090395   7.518   4.161  13.521
11902POPC  H10190396   7.501   4.095  13.435
11902POPC  C21190397   7.603   4.281  13.491
11902POPC  H11R90398   7.688   4.241  13.432
11902POPC  H11S90399   7.644   4.327  13.585
11902POPC  C21290400   7.561   4.396  13.398
11902POPC  H12R90401   7.608   4.377  13.299
11902POPC  H12S90402   7.602   4.493  13.436
11902POPC  C21390403   7.412   4.412  13.377
11902POPC  H13R90404   7.366   4.457  13.468
11902POPC  H13S90405   7.365   4.315  13.357
11902POPC  C21490406   7.386   4.502  13.259
11902POPC  H14R90407   7.452   4.590  13.273
11902POPC  H14S90408   7.279   4.534  13.261
11902POPC  C21590409   7.421   4.450  13.121
11902POPC  H15R90410   7.360   4.362  13.094
11902POPC  H15S90411   7.528   4.421  13.113
11902POPC  C21690412   7.394   4.567  13.027
11902POPC  H16R90413   7.475   4.642  13.040
11902POPC  H16S90414   7.298   4.616  13.058
11902POPC  C21790415   7.381   4.529  12.882
11902POPC  H17R90416   7.294   4.460  12.868
11902POPC  H17S90417   7.473   4.477  12.847
11902POPC  C21890418   7.358   4.658  12.805
11902POPC  H18R90419   7.260   4.702  12.835
11902POPC  H18S90420   7.361   4.638  12.696
11902POPC  H18T90421   7.437   4.733  12.829
11902POPC   C3390422   7.144   4.404  14.025
11902POPC   H3X90423   7.170   4.304  13.985
11902POPC   H3Y90424   7.235   4.444  14.074
11902POPC   C3490425   7.105   4.498  13.910
11902POPC   H4X90426   7.129   4.602  13.939
11902POPC   H4Y90427   6.995   4.493  13.893
11902POPC   C3590428   7.170   4.463  13.776
11902POPC   H5X90429   7.281   4.457  13.787
11902POPC   H5Y90430   7.149   4.544  13.703
11902POPC   C3690431   7.117   4.331  13.717
11902POPC   H6X90432   7.006   4.331  13.717
11902POPC   H6Y90433   7.150   4.245  13.779
11902POPC   C3790434   7.166   4.309  13.573
11902POPC   H7X90435   7.276   4.313  13.577
11902POPC   H7Y90436   7.128   4.392  13.510
11902POPC   C3890437   7.125   4.173  13.515
11902POPC   H8X90438   7.015   4.162  13.526
11902POPC   H8Y90439   7.175   4.094  13.575
11902POPC   C3990440   7.161   4.150  13.367
11902POPC   H9X90441   7.126   4.050  13.335
11902POPC   H9Y90442   7.271   4.146  13.356
11902POPC  C31090443   7.100   4.256  13.274
11902POPC  H10X90444   7.136   4.357  13.304
11902POPC  H10Y90445   6.990   4.256  13.284
11902POPC  C31190446   7.138   4.235  13.127
11902POPC  H11X90447   7.241   4.194  13.121
11902POPC  H11Y90448   7.137   4.334  13.075
11902POPC  C31290449   7.042   4.142  13.054
11902POPC  H12X90450   6.938   4.181  13.065
11902POPC  H12Y90451   7.046   4.042  13.102
11902POPC  C31390452   7.075   4.130  12.905
11902POPC  H13X90453   7.176   4.084  12.893
11902POPC  H13Y90454   7.079   4.232  12.860
11902POPC  C31490455   6.971   4.046  12.833
11902POPC  H14X90456   6.871   4.093  12.847
11902POPC  H14Y90457   6.968   3.945  12.881
11902POPC  C31590458   6.998   4.029  12.684
11902POPC  H15X90459   7.100   3.988  12.670
11902POPC  H15Y90460   6.993   4.130  12.638
11902POPC  C31690461   6.896   3.939  12.614
11902POPC  H16X90462   6.794   3.981  12.627
11902POPC  H16Y90463   6.897   3.837  12.657
11902POPC  H16Z90464   6.917   3.933  12.505
11903POPC     N90465   2.121   4.695  14.765
11903POPC   C1290466   1.972   4.685  14.796
11903POPC  H12A90467   1.957   4.640  14.893
11903POPC  H12B90468   1.925   4.621  14.721
11903POPC   C1390469   2.182   4.793  14.862
11903POPC  H13A90470   2.130   4.889  14.853
11903POPC  H13B90471   2.168   4.764  14.965
11903POPC  H13C90472   2.287   4.810  14.842
11903POPC   C1490473   2.185   4.562  14.783
11903POPC  H14A90474   2.289   4.570  14.757
11903POPC  H14B90475   2.177   4.526  14.885
11903POPC  H14C90476   2.139   4.489  14.717
11903POPC   C1590477   2.142   4.741  14.624
11903POPC  H15A90478   2.099   4.669  14.554
11903POPC  H15B90479   2.246   4.758  14.600
11903POPC  H15C90480   2.084   4.831  14.606
11903POPC   C1190481   1.891   4.816  14.795
11903POPC  H11A90482   1.937   4.894  14.860
11903POPC  H11B90483   1.790   4.798  14.840
11903POPC     P90484   1.770   4.804  14.569
11903POPC   O1390485   1.639   4.850  14.620
11903POPC   O1490486   1.793   4.659  14.560
11903POPC   O1290487   1.882   4.865  14.662
11903POPC   O1190488   1.809   4.875  14.434
11903POPC    C190489   1.851   5.012  14.438
11903POPC    HA90490   1.922   5.034  14.521
11903POPC    HB90491   1.761   5.074  14.453
11903POPC    C290492   1.927   5.059  14.310
11903POPC    HS90493   1.941   5.169  14.318
11903POPC   O2190494   1.857   5.027  14.187
11903POPC   C2190495   1.734   5.078  14.182
11903POPC   O2290496   1.691   5.165  14.255
11903POPC   C2290497   1.653   5.021  14.064
11903POPC   H2R90498   1.589   5.103  14.026
11903POPC   H2S90499   1.587   4.942  14.105
11903POPC    C390500   2.070   4.997  14.305
11903POPC    HX90501   2.125   5.030  14.396
11903POPC    HY90502   2.119   5.040  14.215
11903POPC   O3190503   2.068   4.853  14.301
11903POPC   C3190504   2.151   4.795  14.217
11903POPC   O3290505   2.245   4.849  14.162
11903POPC   C3290506   2.117   4.646  14.207
11903POPC   H2X90507   2.108   4.605  14.310
11903POPC   H2Y90508   2.201   4.596  14.155
11903POPC   C2390509   1.735   4.962  13.946
11903POPC   H3R90510   1.666   4.903  13.882
11903POPC   H3S90511   1.810   4.891  13.986
11903POPC   C2490512   1.801   5.069  13.857
11903POPC   H4R90513   1.874   5.127  13.918
11903POPC   H4S90514   1.725   5.140  13.819
11903POPC   C2590515   1.876   5.007  13.738
11903POPC   H5R90516   1.937   5.086  13.688
11903POPC   H5S90517   1.802   4.972  13.663
11903POPC   C2690518   1.966   4.890  13.781
11903POPC   H6R90519   1.905   4.800  13.802
11903POPC   H6S90520   2.016   4.920  13.876
11903POPC   C2790521   2.075   4.854  13.679
11903POPC   H7R90522   2.107   4.947  13.630
11903POPC   H7S90523   2.034   4.790  13.598
11903POPC   C2890524   2.201   4.792  13.744
11903POPC   H8R90525   2.223   4.845  13.839
11903POPC   H8S90526   2.288   4.810  13.678
11903POPC   C2990527   2.184   4.645  13.770
11903POPC   H9190528   2.120   4.620  13.856
11903POPC  C21090529   2.235   4.546  13.694
11903POPC  H10190530   2.208   4.443  13.720
11903POPC  C21190531   2.320   4.561  13.570
11903POPC  H11R90532   2.385   4.472  13.556
11903POPC  H11S90533   2.388   4.649  13.576
11903POPC  C21290534   2.229   4.578  13.446
11903POPC  H12R90535   2.164   4.667  13.461
11903POPC  H12S90536   2.164   4.489  13.436
11903POPC  C21390537   2.304   4.599  13.314
11903POPC  H13R90538   2.367   4.511  13.292
11903POPC  H13S90539   2.371   4.687  13.322
11903POPC  C21490540   2.203   4.622  13.200
11903POPC  H14R90541   2.141   4.711  13.227
11903POPC  H14S90542   2.136   4.534  13.193
11903POPC  C21590543   2.266   4.648  13.062
11903POPC  H15R90544   2.319   4.556  13.029
11903POPC  H15S90545   2.342   4.730  13.072
11903POPC  C21690546   2.166   4.688  12.953
11903POPC  H16R90547   2.223   4.711  12.860
11903POPC  H16S90548   2.111   4.779  12.983
11903POPC  C21790549   2.066   4.575  12.922
11903POPC  H17R90550   1.991   4.569  13.003
11903POPC  H17S90551   2.122   4.479  12.922
11903POPC  C21890552   1.996   4.593  12.787
11903POPC  H18R90553   2.069   4.584  12.703
11903POPC  H18S90554   1.948   4.692  12.782
11903POPC  H18T90555   1.918   4.516  12.773
11903POPC   C3390556   1.985   4.622  14.130
11903POPC   H3X90557   1.991   4.674  14.032
11903POPC   H3Y90558   1.900   4.665  14.187
11903POPC   C3490559   1.958   4.473  14.104
11903POPC   H4X90560   1.960   4.419  14.202
11903POPC   H4Y90561   2.038   4.430  14.040
11903POPC   C3590562   1.820   4.446  14.041
11903POPC   H5X90563   1.742   4.480  14.113
11903POPC   H5Y90564   1.807   4.337  14.026
11903POPC   C3690565   1.795   4.517  13.908
11903POPC   H6X90566   1.825   4.623  13.914
11903POPC   H6Y90567   1.685   4.517  13.891
11903POPC   C3790568   1.860   4.449  13.787
11903POPC   H7X90569   1.808   4.352  13.767
11903POPC   H7Y90570   1.966   4.426  13.810
11903POPC   C3890571   1.854   4.537  13.661
11903POPC   H8X90572   1.886   4.477  13.573
11903POPC   H8Y90573   1.928   4.619  13.674
11903POPC   C3990574   1.717   4.602  13.635
11903POPC   H9X90575   1.676   4.649  13.726
11903POPC   H9Y90576   1.646   4.522  13.604
11903POPC  C31090577   1.720   4.712  13.528
11903POPC  H10X90578   1.781   4.798  13.564
11903POPC  H10Y90579   1.616   4.748  13.512
11903POPC  C31190580   1.779   4.663  13.396
11903POPC  H11X90581   1.738   4.562  13.384
11903POPC  H11Y90582   1.889   4.652  13.403
11903POPC  C31290583   1.740   4.748  13.275
11903POPC  H12X90584   1.640   4.794  13.290
11903POPC  H12Y90585   1.733   4.681  13.186
11903POPC  C31390586   1.845   4.854  13.242
11903POPC  H13X90587   1.945   4.805  13.245
11903POPC  H13Y90588   1.845   4.934  13.320
11903POPC  C31490589   1.826   4.913  13.102
11903POPC  H14X90590   1.809   4.831  13.029
11903POPC  H14Y90591   1.919   4.964  13.070
11903POPC  C31590592   1.710   5.013  13.096
11903POPC  H15X90593   1.719   5.086  13.180
11903POPC  H15Y90594   1.615   4.959  13.111
11903POPC  C31690595   1.707   5.090  12.963
11903POPC  H16X90596   1.799   5.152  12.953
11903POPC  H16Y90597   1.619   5.157  12.960
11903POPC  H16Z90598   1.702   5.020  12.878
11904POPC     N90599   5.786   2.201  14.474
11904POPC   C1290600   5.660   2.193  14.559
11904POPC  H12A90601   5.650   2.090  14.594
11904POPC  H12B90602   5.573   2.213  14.498
11904POPC   C1390603   5.771   2.110  14.356
11904POPC  H13A90604   5.689   2.140  14.292
11904POPC  H13B90605   5.860   2.112  14.294
11904POPC  H13C90606   5.757   2.007  14.386
11904POPC   C1490607   5.819   2.337  14.424
11904POPC  H14A90608   5.815   2.406  14.507
11904POPC  H14B90609   5.921   2.341  14.385
11904POPC  H14C90610   5.753   2.370  14.346
11904POPC   C1590611   5.902   2.172  14.566
11904POPC  H15A90612   5.899   2.073  14.610
11904POPC  H15B90613   5.896   2.238  14.654
11904POPC  H15C90614   5.998   2.185  14.518
11904POPC   C1190615   5.652   2.281  14.686
11904POPC  H11A90616   5.549   2.276  14.729
11904POPC  H11B90617   5.668   2.388  14.658
11904POPC     P90618   5.733   2.111  14.872
11904POPC   O1390619   5.610   2.122  14.953
11904POPC   O1490620   5.857   2.087  14.948
11904POPC   O1290621   5.749   2.244  14.784
11904POPC   O1190622   5.712   1.997  14.759
11904POPC    C190623   5.649   1.876  14.804
11904POPC    HA90624   5.552   1.898  14.856
11904POPC    HB90625   5.715   1.826  14.878
11904POPC    C290626   5.618   1.771  14.692
11904POPC    HS90627   5.605   1.673  14.743
11904POPC   O2190628   5.717   1.757  14.590
11904POPC   C2190629   5.842   1.767  14.626
11904POPC   O2290630   5.893   1.728  14.730
11904POPC   C2290631   5.910   1.848  14.517
11904POPC   H2R90632   5.851   1.940  14.516
11904POPC   H2S90633   5.895   1.802  14.418
11904POPC    C390634   5.485   1.794  14.616
11904POPC    HX90635   5.402   1.804  14.690
11904POPC    HY90636   5.468   1.698  14.563
11904POPC   O3190637   5.481   1.908  14.525
11904POPC   C3190638   5.491   1.875  14.395
11904POPC   O3290639   5.540   1.774  14.351
11904POPC   C3290640   5.417   1.979  14.312
11904POPC   H2X90641   5.448   2.079  14.345
11904POPC   H2Y90642   5.308   1.967  14.332
11904POPC   C2390643   6.057   1.879  14.550
11904POPC   H3R90644   6.111   1.782  14.568
11904POPC   H3S90645   6.062   1.935  14.647
11904POPC   C2490646   6.141   1.957  14.446
11904POPC   H4R90647   6.220   1.887  14.410
11904POPC   H4S90648   6.193   2.039  14.503
11904POPC   C2590649   6.081   2.026  14.325
11904POPC   H5R90650   6.020   2.113  14.355
11904POPC   H5S90651   6.020   1.954  14.267
11904POPC   C2690652   6.193   2.088  14.240
11904POPC   H6R90653   6.287   2.034  14.267
11904POPC   H6S90654   6.209   2.195  14.262
11904POPC   C2790655   6.172   2.065  14.091
11904POPC   H7R90656   6.117   1.969  14.076
11904POPC   H7S90657   6.275   2.050  14.049
11904POPC   C2890658   6.107   2.179  14.011
11904POPC   H8R90659   6.121   2.157  13.903
11904POPC   H8S90660   6.164   2.273  14.031
11904POPC   C2990661   5.962   2.200  14.043
11904POPC   H9190662   5.936   2.185  14.148
11904POPC  C21090663   5.866   2.235  13.956
11904POPC  H10190664   5.763   2.249  13.991
11904POPC  C21190665   5.889   2.260  13.809
11904POPC  H11R90666   5.990   2.305  13.792
11904POPC  H11S90667   5.815   2.334  13.770
11904POPC  C21290668   5.879   2.132  13.726
11904POPC  H12R90669   5.778   2.087  13.737
11904POPC  H12S90670   5.955   2.059  13.764
11904POPC  C21390671   5.904   2.153  13.575
11904POPC  H13R90672   6.002   2.203  13.560
11904POPC  H13S90673   5.824   2.219  13.536
11904POPC  C21490674   5.901   2.020  13.498
11904POPC  H14R90675   5.808   1.966  13.524
11904POPC  H14S90676   5.983   1.956  13.533
11904POPC  C21590677   5.914   2.031  13.346
11904POPC  H15R90678   5.840   2.103  13.304
11904POPC  H15S90679   5.889   1.931  13.306
11904POPC  C21690680   6.057   2.070  13.305
11904POPC  H16R90681   6.128   2.027  13.378
11904POPC  H16S90682   6.072   2.179  13.316
11904POPC  C21790683   6.101   2.031  13.163
11904POPC  H17R90684   6.211   2.011  13.166
11904POPC  H17S90685   6.086   2.123  13.103
11904POPC  C21890686   6.031   1.913  13.095
11904POPC  H18R90687   6.077   1.894  12.995
11904POPC  H18S90688   5.923   1.935  13.078
11904POPC  H18T90689   6.039   1.820  13.155
11904POPC   C3390690   5.443   1.959  14.161
11904POPC   H3X90691   5.551   1.938  14.142
11904POPC   H3Y90692   5.423   2.057  14.111
11904POPC   C3490693   5.356   1.851  14.093
11904POPC   H4X90694   5.266   1.833  14.156
11904POPC   H4Y90695   5.411   1.755  14.086
11904POPC   C3590696   5.302   1.896  13.956
11904POPC   H5X90697   5.359   1.985  13.923
11904POPC   H5Y90698   5.196   1.926  13.973
11904POPC   C3690699   5.297   1.797  13.839
11904POPC   H6X90700   5.210   1.828  13.776
11904POPC   H6Y90701   5.274   1.696  13.878
11904POPC   C3790702   5.419   1.794  13.745
11904POPC   H7X90703   5.389   1.743  13.650
11904POPC   H7Y90704   5.499   1.732  13.791
11904POPC   C3890705   5.480   1.929  13.702
11904POPC   H8X90706   5.570   1.905  13.640
11904POPC   H8Y90707   5.517   1.985  13.790
11904POPC   C3990708   5.383   2.013  13.619
11904POPC   H9X90709   5.319   2.070  13.690
11904POPC   H9Y90710   5.314   1.947  13.562
11904POPC  C31090711   5.450   2.110  13.520
11904POPC  H10X90712   5.513   2.183  13.576
11904POPC  H10Y90713   5.370   2.168  13.468
11904POPC  C31190714   5.534   2.042  13.411
11904POPC  H11X90715   5.626   2.002  13.457
11904POPC  H11Y90716   5.566   2.120  13.337
11904POPC  C31290717   5.461   1.927  13.340
11904POPC  H12X90718   5.355   1.957  13.325
11904POPC  H12Y90719   5.462   1.837  13.405
11904POPC  C31390720   5.521   1.894  13.203
11904POPC  H13X90721   5.625   1.857  13.214
11904POPC  H13Y90722   5.525   1.988  13.144
11904POPC  C31490723   5.436   1.789  13.128
11904POPC  H14X90724   5.330   1.822  13.132
11904POPC  H14Y90725   5.444   1.691  13.181
11904POPC  C31590726   5.473   1.772  12.980
11904POPC  H15X90727   5.405   1.696  12.936
11904POPC  H15Y90728   5.576   1.734  12.968
11904POPC  C31690729   5.459   1.899  12.897
11904POPC  H16X90730   5.559   1.933  12.862
11904POPC  H16Y90731   5.410   1.981  12.953
11904POPC  H16Z90732   5.397   1.876  12.807
11905POPC     N90733   3.122   2.544  14.726
11905POPC   C1290734   3.185   2.411  14.689
11905POPC  H12A90735   3.291   2.413  14.714
11905POPC  H12B90736   3.180   2.400  14.580
11905POPC   C1390737   3.073   2.549  14.867
11905POPC  H13A90738   3.015   2.639  14.881
11905POPC  H13B90739   3.008   2.464  14.885
11905POPC  H13C90740   3.155   2.549  14.937
11905POPC   C1490741   3.224   2.650  14.704
11905POPC  H14A90742   3.262   2.652  14.602
11905POPC  H14B90743   3.185   2.751  14.722
11905POPC  H14C90744   3.309   2.642  14.771
11905POPC   C1590745   3.007   2.570  14.635
11905POPC  H15A90746   3.036   2.578  14.531
11905POPC  H15B90747   2.952   2.661  14.661
11905POPC  H15C90748   2.937   2.487  14.640
11905POPC   C1190749   3.128   2.282  14.754
11905POPC  H11A90750   3.143   2.293  14.863
11905POPC  H11B90751   3.189   2.194  14.722
11905POPC     P90752   2.934   2.221  14.588
11905POPC   O1390753   2.838   2.324  14.546
11905POPC   O1490754   2.896   2.079  14.581
11905POPC   O1290755   2.989   2.261  14.732
11905POPC   O1190756   3.064   2.239  14.500
11905POPC    C190757   3.101   2.134  14.410
11905POPC    HA90758   3.011   2.092  14.358
11905POPC    HB90759   3.150   2.051  14.465
11905POPC    C290760   3.194   2.185  14.297
11905POPC    HS90761   3.292   2.218  14.340
11905POPC   O2190762   3.128   2.291  14.226
11905POPC   C2190763   3.138   2.409  14.283
11905POPC   O2290764   3.218   2.442  14.369
11905POPC   C2290765   3.035   2.504  14.224
11905POPC   H2R90766   3.083   2.564  14.144
11905POPC   H2S90767   3.005   2.573  14.306
11905POPC    C390768   3.222   2.071  14.196
11905POPC    HX90769   3.122   2.023  14.178
11905POPC    HY90770   3.290   1.996  14.241
11905POPC   O3190771   3.281   2.126  14.076
11905POPC   C3190772   3.233   2.073  13.965
11905POPC   O3290773   3.167   1.972  13.957
11905POPC   C3290774   3.272   2.157  13.846
11905POPC   H2X90775   3.267   2.092  13.757
11905POPC   H2Y90776   3.377   2.192  13.860
11905POPC   C2390777   2.909   2.431  14.171
11905POPC   H3R90778   2.877   2.355  14.247
11905POPC   H3S90779   2.933   2.376  14.077
11905POPC   C2490780   2.790   2.524  14.149
11905POPC   H4R90781   2.763   2.569  14.248
11905POPC   H4S90782   2.703   2.464  14.114
11905POPC   C2590783   2.812   2.641  14.052
11905POPC   H5R90784   2.895   2.704  14.090
11905POPC   H5S90785   2.721   2.705  14.052
11905POPC   C2690786   2.843   2.599  13.908
11905POPC   H6R90787   2.757   2.543  13.865
11905POPC   H6S90788   2.931   2.531  13.908
11905POPC   C2790789   2.876   2.721  13.820
11905POPC   H7R90790   2.958   2.775  13.871
11905POPC   H7S90791   2.789   2.790  13.817
11905POPC   C2890792   2.924   2.683  13.679
11905POPC   H8R90793   2.976   2.585  13.687
11905POPC   H8S90794   3.000   2.757  13.647
11905POPC   C2990795   2.813   2.680  13.576
11905POPC   H9190796   2.738   2.760  13.585
11905POPC  C21090797   2.798   2.589  13.478
11905POPC  H10190798   2.715   2.601  13.407
11905POPC  C21190799   2.888   2.471  13.450
11905POPC  H11R90800   2.982   2.474  13.509
11905POPC  H11S90801   2.919   2.475  13.344
11905POPC  C21290802   2.817   2.338  13.481
11905POPC  H12R90803   2.717   2.335  13.431
11905POPC  H12S90804   2.801   2.330  13.591
11905POPC  C21390805   2.894   2.214  13.433
11905POPC  H13R90806   2.842   2.123  13.470
11905POPC  H13S90807   2.995   2.214  13.478
11905POPC  C21490808   2.906   2.206  13.280
11905POPC  H14R90809   2.948   2.301  13.241
11905POPC  H14S90810   2.806   2.191  13.235
11905POPC  C21590811   3.002   2.095  13.236
11905POPC  H15R90812   2.967   1.998  13.274
11905POPC  H15S90813   3.102   2.113  13.282
11905POPC  C21690814   3.018   2.089  13.084
11905POPC  H16R90815   3.111   2.032  13.061
11905POPC  H16S90816   3.029   2.193  13.047
11905POPC  C21790817   2.902   2.026  13.007
11905POPC  H17R90818   2.810   2.088  13.017
11905POPC  H17S90819   2.880   1.927  13.051
11905POPC  C21890820   2.939   2.010  12.860
11905POPC  H18R90821   2.936   2.109  12.809
11905POPC  H18S90822   2.871   1.940  12.807
11905POPC  H18T90823   3.043   1.972  12.850
11905POPC   C3390824   3.174   2.274  13.829
11905POPC   H3X90825   3.194   2.352  13.906
11905POPC   H3Y90826   3.068   2.240  13.842
11905POPC   C3490827   3.188   2.333  13.690
11905POPC   H4X90828   3.122   2.423  13.683
11905POPC   H4Y90829   3.152   2.259  13.616
11905POPC   C3590830   3.332   2.372  13.657
11905POPC   H5X90831   3.393   2.281  13.637
11905POPC   H5Y90832   3.377   2.425  13.744
11905POPC   C3690833   3.337   2.464  13.536
11905POPC   H6X90834   3.443   2.490  13.514
11905POPC   H6Y90835   3.282   2.558  13.559
11905POPC   C3790836   3.276   2.402  13.410
11905POPC   H7X90837   3.170   2.372  13.427
11905POPC   H7Y90838   3.333   2.310  13.387
11905POPC   C3890839   3.280   2.501  13.295
11905POPC   H8X90840   3.384   2.538  13.284
11905POPC   H8Y90841   3.215   2.588  13.318
11905POPC   C3990842   3.238   2.440  13.162
11905POPC   H9X90843   3.251   2.517  13.082
11905POPC   H9Y90844   3.130   2.415  13.166
11905POPC  C31090845   3.317   2.315  13.124
11905POPC  H10X90846   3.289   2.232  13.192
11905POPC  H10Y90847   3.427   2.330  13.133
11905POPC  C31190848   3.279   2.275  12.983
11905POPC  H11X90849   3.172   2.301  12.974
11905POPC  H11Y90850   3.281   2.166  12.967
11905POPC  C31290851   3.355   2.347  12.872
11905POPC  H12X90852   3.460   2.311  12.871
11905POPC  H12Y90853   3.360   2.456  12.896
11905POPC  C31390854   3.289   2.328  12.735
11905POPC  H13X90855   3.313   2.227  12.695
11905POPC  H13Y90856   3.334   2.400  12.666
11905POPC  C31490857   3.135   2.346  12.728
11905POPC  H14X90858   3.089   2.250  12.758
11905POPC  H14Y90859   3.109   2.362  12.621
11905POPC  C31590860   3.075   2.460  12.813
11905POPC  H15X90861   3.158   2.524  12.851
11905POPC  H15Y90862   3.026   2.414  12.902
11905POPC  C31690863   2.971   2.551  12.749
11905POPC  H16X90864   3.007   2.593  12.653
11905POPC  H16Y90865   2.950   2.637  12.817
11905POPC  H16Z90866   2.875   2.498  12.731
11906POPC     N90867   2.331   6.307  14.580
11906POPC   C1290868   2.275   6.324  14.721
11906POPC  H12A90869   2.334   6.398  14.773
11906POPC  H12B90870   2.291   6.231  14.775
11906POPC   C1390871   2.279   6.416  14.491
11906POPC  H13A90872   2.322   6.512  14.515
11906POPC  H13B90873   2.301   6.394  14.387
11906POPC  H13C90874   2.171   6.423  14.503
11906POPC   C1490875   2.481   6.308  14.575
11906POPC  H14A90876   2.526   6.398  14.618
11906POPC  H14B90877   2.525   6.224  14.626
11906POPC  H14C90878   2.518   6.306  14.472
11906POPC   C1590879   2.282   6.176  14.528
11906POPC  H15A90880   2.322   6.095  14.587
11906POPC  H15B90881   2.308   6.162  14.424
11906POPC  H15C90882   2.173   6.175  14.538
11906POPC   C1190883   2.125   6.363  14.745
11906POPC  H11A90884   2.103   6.457  14.688
11906POPC  H11B90885   2.117   6.386  14.854
11906POPC     P90886   1.874   6.297  14.733
11906POPC   O1390887   1.844   6.420  14.657
11906POPC   O1490888   1.833   6.295  14.876
11906POPC   O1290889   2.031   6.260  14.715
11906POPC   O1190890   1.801   6.178  14.660
11906POPC    C190891   1.868   6.105  14.557
11906POPC    HA90892   1.800   6.023  14.527
11906POPC    HB90893   1.960   6.056  14.596
11906POPC    C290894   1.903   6.187  14.428
11906POPC    HS90895   1.997   6.243  14.449
11906POPC   O2190896   1.795   6.275  14.392
11906POPC   C2190897   1.830   6.400  14.358
11906POPC   O2290898   1.944   6.441  14.343
11906POPC   C2290899   1.702   6.477  14.322
11906POPC   H2R90900   1.728   6.584  14.312
11906POPC   H2S90901   1.631   6.466  14.407
11906POPC    C390902   1.930   6.085  14.316
11906POPC    HX90903   1.843   6.017  14.313
11906POPC    HY90904   2.019   6.022  14.339
11906POPC   O3190905   1.935   6.145  14.187
11906POPC   C3190906   2.053   6.164  14.134
11906POPC   O3290907   2.162   6.147  14.187
11906POPC   C3290908   2.029   6.194  13.988
11906POPC   H2X90909   2.104   6.268  13.954
11906POPC   H2Y90910   1.928   6.236  13.979
11906POPC   C2390911   1.639   6.425  14.191
11906POPC   H3R90912   1.537   6.467  14.177
11906POPC   H3S90913   1.630   6.314  14.196
11906POPC   C2490914   1.726   6.463  14.071
11906POPC   H4R90915   1.834   6.451  14.095
11906POPC   H4S90916   1.708   6.571  14.048
11906POPC   C2590917   1.695   6.376  13.949
11906POPC   H5R90918   1.588   6.388  13.922
11906POPC   H5S90919   1.711   6.269  13.974
11906POPC   C2690920   1.783   6.410  13.828
11906POPC   H6R90921   1.736   6.365  13.739
11906POPC   H6S90922   1.883   6.363  13.838
11906POPC   C2790923   1.809   6.560  13.805
11906POPC   H7R90924   1.881   6.596  13.883
11906POPC   H7S90925   1.715   6.617  13.818
11906POPC   C2890926   1.868   6.591  13.666
11906POPC   H8R90927   1.941   6.674  13.677
11906POPC   H8S90928   1.787   6.631  13.601
11906POPC   C2990929   1.937   6.472  13.605
11906POPC   H9190930   2.025   6.439  13.662
11906POPC  C21090931   1.907   6.405  13.492
11906POPC  H10190932   1.968   6.318  13.465
11906POPC  C21190933   1.793   6.435  13.399
11906POPC  H11R90934   1.757   6.540  13.410
11906POPC  H11S90935   1.710   6.367  13.426
11906POPC  C21290936   1.815   6.408  13.251
11906POPC  H12R90937   1.882   6.482  13.204
11906POPC  H12S90938   1.714   6.419  13.207
11906POPC  C21390939   1.854   6.264  13.217
11906POPC  H13R90940   1.799   6.194  13.283
11906POPC  H13S90941   1.962   6.249  13.235
11906POPC  C21490942   1.822   6.230  13.071
11906POPC  H14R90943   1.713   6.247  13.053
11906POPC  H14S90944   1.845   6.122  13.057
11906POPC  C21590945   1.906   6.311  12.972
11906POPC  H15R90946   2.009   6.271  12.983
11906POPC  H15S90947   1.905   6.418  13.003
11906POPC  C21690948   1.873   6.303  12.822
11906POPC  H16R90949   1.784   6.241  12.803
11906POPC  H16S90950   1.956   6.249  12.772
11906POPC  C21790951   1.857   6.441  12.754
11906POPC  H17R90952   1.764   6.491  12.789
11906POPC  H17S90953   1.841   6.422  12.646
11906POPC  C21890954   1.974   6.538  12.771
11906POPC  H18R90955   1.946   6.641  12.742
11906POPC  H18S90956   2.056   6.506  12.703
11906POPC  H18T90957   2.011   6.541  12.875
11906POPC   C3390958   2.036   6.062  13.909
11906POPC   H3X90959   1.956   5.991  13.943
11906POPC   H3Y90960   2.135   6.018  13.932
11906POPC   C3490961   2.027   6.081  13.758
11906POPC   H4X90962   1.934   6.136  13.730
11906POPC   H4Y90963   2.022   5.981  13.710
11906POPC   C3590964   2.150   6.155  13.707
11906POPC   H5X90965   2.240   6.123  13.764
11906POPC   H5Y90966   2.138   6.264  13.725
11906POPC   C3690967   2.177   6.129  13.559
11906POPC   H6X90968   2.084   6.146  13.500
11906POPC   H6Y90969   2.205   6.022  13.545
11906POPC   C3790970   2.290   6.217  13.508
11906POPC   H7X90971   2.379   6.206  13.575
11906POPC   H7Y90972   2.257   6.323  13.515
11906POPC   C3890973   2.334   6.185  13.365
11906POPC   H8X90974   2.380   6.084  13.362
11906POPC   H8Y90975   2.413   6.258  13.336
11906POPC   C3990976   2.219   6.191  13.263
11906POPC   H9X90977   2.161   6.284  13.280
11906POPC   H9Y90978   2.151   6.104  13.279
11906POPC  C31090979   2.269   6.191  13.118
11906POPC  H10X90980   2.186   6.164  13.049
11906POPC  H10Y90981   2.348   6.113  13.108
11906POPC  C31190982   2.327   6.327  13.080
11906POPC  H11X90983   2.425   6.313  13.030
11906POPC  H11Y90984   2.347   6.386  13.172
11906POPC  C31290985   2.237   6.414  12.990
11906POPC  H12X90986   2.271   6.519  13.006
11906POPC  H12Y90987   2.132   6.415  13.023
11906POPC  C31390988   2.259   6.390  12.840
11906POPC  H13X90989   2.369   6.382  12.840
11906POPC  H13Y90990   2.237   6.480  12.780
11906POPC  C31490991   2.227   6.260  12.764
11906POPC  H14X90992   2.137   6.273  12.700
11906POPC  H14Y90993   2.213   6.174  12.831
11906POPC  C31590994   2.346   6.238  12.669
11906POPC  H15X90995   2.438   6.237  12.730
11906POPC  H15Y90996   2.351   6.327  12.604
11906POPC  C31690997   2.348   6.117  12.580
11906POPC  H16X90998   2.440   6.116  12.518
11906POPC  H16Y90999   2.261   6.120  12.512
11906POPC  H16Z91000   2.347   6.024  12.641
11907POPC     N91001   7.230   5.986  14.704
11907POPC   C1291002   7.379   6.006  14.684
11907POPC  H12A91003   7.425   6.019  14.782
11907POPC  H12B91004   7.396   6.099  14.631
11907POPC   C1391005   7.209   5.861  14.782
11907POPC  H13A91006   7.260   5.780  14.729
11907POPC  H13B91007   7.262   5.866  14.877
11907POPC  H13C91008   7.104   5.838  14.793
11907POPC   C1491009   7.174   6.101  14.781
11907POPC  H14A91010   7.204   6.195  14.735
11907POPC  H14B91011   7.065   6.092  14.782
11907POPC  H14C91012   7.213   6.099  14.883
11907POPC   C1591013   7.152   5.973  14.576
11907POPC  H15A91014   7.188   5.888  14.519
11907POPC  H15B91015   7.155   6.061  14.515
11907POPC  H15C91016   7.046   5.955  14.597
11907POPC   C1191017   7.458   5.890  14.618
11907POPC  H11A91018   7.562   5.928  14.599
11907POPC  H11B91019   7.410   5.868  14.520
11907POPC     P91020   7.543   5.647  14.644
11907POPC   O1391021   7.520   5.529  14.730
11907POPC   O1491022   7.681   5.685  14.614
11907POPC   O1291023   7.463   5.773  14.702
11907POPC   O1191024   7.460   5.622  14.512
11907POPC    C191025   7.322   5.581  14.518
11907POPC    HA91026   7.263   5.650  14.582
11907POPC    HB91027   7.312   5.478  14.558
11907POPC    C291028   7.260   5.586  14.376
11907POPC    HS91029   7.308   5.502  14.319
11907POPC   O2191030   7.291   5.716  14.321
11907POPC   C2191031   7.400   5.718  14.247
11907POPC   O2291032   7.448   5.623  14.187
11907POPC   C2291033   7.454   5.861  14.244
11907POPC   H2R91034   7.524   5.871  14.330
11907POPC   H2S91035   7.370   5.932  14.259
11907POPC    C391036   7.106   5.561  14.373
11907POPC    HX91037   7.056   5.649  14.419
11907POPC    HY91038   7.081   5.473  14.435
11907POPC   O3191039   7.055   5.546  14.238
11907POPC   C3191040   7.086   5.427  14.183
11907POPC   O3291041   7.146   5.338  14.239
11907POPC   C3291042   7.036   5.416  14.039
11907POPC   H2X91043   6.965   5.498  14.021
11907POPC   H2Y91044   6.978   5.321  14.033
11907POPC   C2391045   7.529   5.891  14.113
11907POPC   H3R91046   7.621   5.829  14.108
11907POPC   H3S91047   7.560   5.998  14.114
11907POPC   C2491048   7.445   5.865  13.988
11907POPC   H4R91049   7.429   5.755  13.972
11907POPC   H4S91050   7.503   5.902  13.900
11907POPC   C2591051   7.309   5.933  13.990
11907POPC   H5R91052   7.312   6.023  14.056
11907POPC   H5S91053   7.231   5.865  14.030
11907POPC   C2691054   7.270   5.982  13.850
11907POPC   H6R91055   7.265   5.895  13.781
11907POPC   H6S91056   7.350   6.050  13.812
11907POPC   C2791057   7.139   6.060  13.853
11907POPC   H7R91058   7.147   6.139  13.931
11907POPC   H7S91059   7.056   5.994  13.884
11907POPC   C2891060   7.108   6.129  13.719
11907POPC   H8R91061   7.189   6.203  13.700
11907POPC   H8S91062   7.013   6.184  13.738
11907POPC   C2991063   7.081   6.044  13.599
11907POPC   H9191064   6.984   5.993  13.605
11907POPC  C21091065   7.148   6.028  13.484
11907POPC  H10191066   7.104   5.955  13.415
11907POPC  C21191067   7.275   6.087  13.428
11907POPC  H11R91068   7.363   6.061  13.491
11907POPC  H11S91069   7.267   6.198  13.426
11907POPC  C21291070   7.300   6.038  13.283
11907POPC  H12R91071   7.347   5.937  13.284
11907POPC  H12S91072   7.373   6.107  13.237
11907POPC  C21391073   7.173   6.030  13.194
11907POPC  H13R91074   7.098   6.104  13.231
11907POPC  H13S91075   7.126   5.930  13.206
11907POPC  C21491076   7.198   6.059  13.046
11907POPC  H14R91077   7.302   6.087  13.026
11907POPC  H14S91078   7.138   6.149  13.025
11907POPC  C21591079   7.144   5.959  12.945
11907POPC  H15R91080   7.172   5.986  12.841
11907POPC  H15S91081   7.033   5.972  12.948
11907POPC  C21691082   7.176   5.812  12.972
11907POPC  H16R91083   7.206   5.795  13.078
11907POPC  H16S91084   7.261   5.776  12.909
11907POPC  C21791085   7.047   5.736  12.946
11907POPC  H17R91086   7.021   5.748  12.839
11907POPC  H17S91087   6.966   5.785  13.004
11907POPC  C21891088   7.046   5.589  12.982
11907POPC  H18R91089   7.099   5.531  12.905
11907POPC  H18S91090   6.941   5.552  12.986
11907POPC  H18T91091   7.094   5.573  13.081
11907POPC   C3391092   7.148   5.409  13.930
11907POPC   H3X91093   7.217   5.325  13.952
11907POPC   H3Y91094   7.211   5.502  13.935
11907POPC   C3491095   7.092   5.392  13.787
11907POPC   H4X91096   7.067   5.493  13.751
11907POPC   H4Y91097   6.997   5.335  13.788
11907POPC   C3591098   7.184   5.337  13.677
11907POPC   H5X91099   7.128   5.349  13.581
11907POPC   H5Y91100   7.200   5.229  13.689
11907POPC   C3691101   7.318   5.410  13.662
11907POPC   H6X91102   7.391   5.363  13.732
11907POPC   H6Y91103   7.308   5.517  13.692
11907POPC   C3791104   7.375   5.405  13.519
11907POPC   H7X91105   7.366   5.301  13.480
11907POPC   H7Y91106   7.483   5.431  13.523
11907POPC   C3891107   7.306   5.502  13.421
11907POPC   H8X91108   7.299   5.604  13.465
11907POPC   H8Y91109   7.202   5.466  13.403
11907POPC   C3991110   7.380   5.511  13.286
11907POPC   H9X91111   7.308   5.534  13.205
11907POPC   H9Y91112   7.423   5.411  13.265
11907POPC  C31091113   7.492   5.617  13.283
11907POPC  H10X91114   7.544   5.619  13.381
11907POPC  H10Y91115   7.445   5.717  13.267
11907POPC  C31191116   7.595   5.587  13.173
11907POPC  H11X91117   7.540   5.575  13.077
11907POPC  H11Y91118   7.641   5.489  13.200
11907POPC  C31291119   7.712   5.684  13.153
11907POPC  H12X91120   7.776   5.646  13.070
11907POPC  H12Y91121   7.774   5.683  13.246
11907POPC  C31391122   7.673   5.829  13.121
11907POPC  H13X91123   7.763   5.894  13.128
11907POPC  H13Y91124   7.601   5.863  13.199
11907POPC  C31491125   7.611   5.847  12.982
11907POPC  H14X91126   7.544   5.760  12.962
11907POPC  H14Y91127   7.688   5.848  12.903
11907POPC  C31591128   7.522   5.971  12.975
11907POPC  H15X91129   7.465   5.975  13.071
11907POPC  H15Y91130   7.448   5.956  12.894
11907POPC  C31691131   7.592   6.105  12.953
11907POPC  H16X91132   7.640   6.108  12.853
11907POPC  H16Y91133   7.669   6.124  13.031
11907POPC  H16Z91134   7.518   6.189  12.958
11908POPC     N91135   4.996   7.548  14.808
11908POPC   C1291136   4.994   7.697  14.777
11908POPC  H12A91137   5.064   7.751  14.840
11908POPC  H12B91138   4.895   7.734  14.804
11908POPC   C1391139   4.895   7.482  14.717
11908POPC  H13A91140   4.799   7.534  14.729
11908POPC  H13B91141   4.919   7.502  14.613
11908POPC  H13C91142   4.880   7.377  14.734
11908POPC   C1491143   5.132   7.490  14.790
11908POPC  H14A91144   5.133   7.384  14.811
11908POPC  H14B91145   5.164   7.507  14.687
11908POPC  H14C91146   5.202   7.539  14.857
11908POPC   C1591147   4.944   7.529  14.945
11908POPC  H15A91148   4.840   7.564  14.949
11908POPC  H15B91149   5.001   7.583  15.018
11908POPC  H15C91150   4.940   7.424  14.975
11908POPC   C1191151   5.012   7.738  14.629
11908POPC  H11A91152   5.098   7.686  14.583
11908POPC  H11B91153   5.033   7.848  14.620
11908POPC     P91154   4.767   7.796  14.576
11908POPC   O1391155   4.800   7.927  14.519
11908POPC   O1491156   4.729   7.789  14.719
11908POPC   O1291157   4.894   7.704  14.557
11908POPC   O1191158   4.659   7.722  14.487
11908POPC    C191159   4.689   7.608  14.407
11908POPC    HA91160   4.594   7.552  14.396
11908POPC    HB91161   4.759   7.538  14.457
11908POPC    C291162   4.735   7.646  14.263
11908POPC    HS91163   4.713   7.558  14.198
11908POPC   O2191164   4.874   7.677  14.251
11908POPC   C2191165   4.968   7.601  14.293
11908POPC   O2291166   4.959   7.488  14.338
11908POPC   C2291167   5.101   7.672  14.264
11908POPC   H2R91168   5.141   7.712  14.359
11908POPC   H2S91169   5.081   7.757  14.196
11908POPC    C391170   4.656   7.768  14.208
11908POPC    HX91171   4.684   7.860  14.264
11908POPC    HY91172   4.549   7.747  14.230
11908POPC   O3191173   4.668   7.785  14.064
11908POPC   C3191174   4.779   7.844  14.023
11908POPC   O3291175   4.865   7.894  14.092
11908POPC   C3291176   4.785   7.844  13.870
11908POPC   H2X91177   4.683   7.846  13.828
11908POPC   H2Y91178   4.837   7.752  13.836
11908POPC   C2391179   5.199   7.574  14.198
11908POPC   H3R91180   5.145   7.515  14.119
11908POPC   H3S91181   5.234   7.501  14.274
11908POPC   C2491182   5.319   7.643  14.132
11908POPC   H4R91183   5.410   7.582  14.150
11908POPC   H4S91184   5.335   7.743  14.177
11908POPC   C2591185   5.302   7.656  13.980
11908POPC   H5R91186   5.293   7.555  13.934
11908POPC   H5S91187   5.394   7.703  13.938
11908POPC   C2691188   5.181   7.740  13.939
11908POPC   H6R91189   5.180   7.833  14.000
11908POPC   H6S91190   5.086   7.686  13.961
11908POPC   C2791191   5.188   7.779  13.792
11908POPC   H7R91192   5.284   7.832  13.777
11908POPC   H7S91193   5.107   7.850  13.767
11908POPC   C2891194   5.181   7.663  13.691
11908POPC   H8R91195   5.276   7.606  13.696
11908POPC   H8S91196   5.179   7.711  13.591
11908POPC   C2991197   5.064   7.570  13.708
11908POPC   H9191198   5.061   7.517  13.805
11908POPC  C21091199   4.966   7.545  13.618
11908POPC  H10191200   4.892   7.467  13.641
11908POPC  C21191201   4.953   7.607  13.481
11908POPC  H11R91202   4.998   7.708  13.477
11908POPC  H11S91203   4.845   7.622  13.456
11908POPC  C21291204   5.020   7.525  13.369
11908POPC  H12R91205   4.997   7.577  13.274
11908POPC  H12S91206   4.977   7.423  13.363
11908POPC  C21391207   5.172   7.520  13.389
11908POPC  H13R91208   5.195   7.465  13.483
11908POPC  H13S91209   5.208   7.625  13.401
11908POPC  C21491210   5.253   7.457  13.277
11908POPC  H14R91211   5.248   7.346  13.286
11908POPC  H14S91212   5.360   7.484  13.294
11908POPC  C21591213   5.212   7.500  13.135
11908POPC  H15R91214   5.106   7.475  13.114
11908POPC  H15S91215   5.274   7.441  13.064
11908POPC  C21691216   5.235   7.649  13.110
11908POPC  H16R91217   5.332   7.675  13.156
11908POPC  H16S91218   5.158   7.711  13.161
11908POPC  C21791219   5.241   7.681  12.960
11908POPC  H17R91220   5.138   7.700  12.923
11908POPC  H17S91221   5.276   7.590  12.907
11908POPC  C21891222   5.334   7.796  12.918
11908POPC  H18R91223   5.277   7.886  12.887
11908POPC  H18S91224   5.392   7.766  12.828
11908POPC  H18T91225   5.406   7.824  12.998
11908POPC   C3391226   4.864   7.969  13.828
11908POPC   H3X91227   4.971   7.960  13.855
11908POPC   H3Y91228   4.826   8.055  13.889
11908POPC   C3491229   4.847   8.018  13.684
11908POPC   H4X91230   4.910   8.110  13.683
11908POPC   H4Y91231   4.741   8.045  13.666
11908POPC   C3591232   4.897   7.938  13.565
11908POPC   H5X91233   4.824   7.859  13.538
11908POPC   H5Y91234   4.994   7.890  13.589
11908POPC   C3691235   4.918   8.037  13.448
11908POPC   H6X91236   4.970   7.986  13.364
11908POPC   H6Y91237   4.987   8.118  13.481
11908POPC   C3791238   4.789   8.101  13.395
11908POPC   H7X91239   4.817   8.178  13.319
11908POPC   H7Y91240   4.735   8.154  13.476
11908POPC   C3891241   4.694   8.000  13.329
11908POPC   H8X91242   4.620   8.056  13.267
11908POPC   H8Y91243   4.638   7.943  13.406
11908POPC   C3991244   4.772   7.902  13.241
11908POPC   H9X91245   4.827   7.829  13.304
11908POPC   H9Y91246   4.846   7.959  13.180
11908POPC  C31091247   4.683   7.825  13.146
11908POPC  H10X91248   4.613   7.894  13.094
11908POPC  H10Y91249   4.621   7.752  13.204
11908POPC  C31191250   4.768   7.752  13.043
11908POPC  H11X91251   4.857   7.704  13.090
11908POPC  H11Y91252   4.804   7.826  12.968
11908POPC  C31291253   4.682   7.647  12.975
11908POPC  H12X91254   4.586   7.698  12.955
11908POPC  H12Y91255   4.660   7.563  13.045
11908POPC  C31391256   4.737   7.595  12.843
11908POPC  H13X91257   4.797   7.672  12.790
11908POPC  H13Y91258   4.648   7.577  12.779
11908POPC  C31491259   4.812   7.463  12.853
11908POPC  H14X91260   4.774   7.405  12.940
11908POPC  H14Y91261   4.920   7.483  12.872
11908POPC  C31591262   4.793   7.378  12.726
11908POPC  H15X91263   4.687   7.346  12.721
11908POPC  H15Y91264   4.855   7.286  12.735
11908POPC  C31691265   4.830   7.452  12.597
11908POPC  H16X91266   4.921   7.513  12.612
11908POPC  H16Y91267   4.749   7.521  12.566
11908POPC  H16Z91268   4.848   7.380  12.514
11909POPC     N91269   2.746   6.875  14.846
11909POPC   C1291270   2.723   6.864  14.695
11909POPC  H12A91271   2.741   6.762  14.662
11909POPC  H12B91272   2.796   6.926  14.642
11909POPC   C1391273   2.630   6.815  14.918
11909POPC  H13A91274   2.613   6.713  14.885
11909POPC  H13B91275   2.642   6.815  15.027
11909POPC  H13C91276   2.541   6.873  14.894
11909POPC   C1491277   2.874   6.806  14.882
11909POPC  H14A91278   2.957   6.843  14.823
11909POPC  H14B91279   2.898   6.816  14.987
11909POPC  H14C91280   2.867   6.700  14.858
11909POPC   C1591281   2.752   7.019  14.877
11909POPC  H15A91282   2.835   7.066  14.824
11909POPC  H15B91283   2.760   7.044  14.981
11909POPC  H15C91284   2.663   7.069  14.836
11909POPC   C1191285   2.587   6.914  14.642
11909POPC  H11A91286   2.503   6.855  14.685
11909POPC  H11B91287   2.586   6.893  14.532
11909POPC     P91288   2.621   7.163  14.569
11909POPC   O1391289   2.711   7.096  14.472
11909POPC   O1491290   2.679   7.274  14.648
11909POPC   O1291291   2.566   7.053  14.670
11909POPC   O1191292   2.489   7.207  14.494
11909POPC    C191293   2.365   7.133  14.493
11909POPC    HA91294   2.292   7.192  14.552
11909POPC    HB91295   2.371   7.034  14.542
11909POPC    C291296   2.302   7.117  14.350
11909POPC    HS91297   2.194   7.093  14.363
11909POPC   O2191298   2.359   7.020  14.263
11909POPC   C2191299   2.419   6.915  14.305
11909POPC   O2291300   2.391   6.844  14.401
11909POPC   C2291301   2.531   6.888  14.205
11909POPC   H2R91302   2.623   6.870  14.265
11909POPC   H2S91303   2.549   6.977  14.142
11909POPC    C391304   2.313   7.248  14.272
11909POPC    HX91305   2.417   7.285  14.280
11909POPC    HY91306   2.248   7.318  14.324
11909POPC   O3191307   2.267   7.239  14.135
11909POPC   C3191308   2.361   7.222  14.044
11909POPC   O3291309   2.479   7.201  14.067
11909POPC   C3291310   2.303   7.245  13.905
11909POPC   H2X91311   2.273   7.351  13.899
11909POPC   H2Y91312   2.213   7.181  13.895
11909POPC   C2391313   2.497   6.765  14.119
11909POPC   H3R91314   2.469   6.680  14.184
11909POPC   H3S91315   2.591   6.742  14.064
11909POPC   C2491316   2.394   6.782  14.008
11909POPC   H4R91317   2.441   6.849  13.934
11909POPC   H4S91318   2.299   6.828  14.043
11909POPC   C2591319   2.366   6.647  13.938
11909POPC   H5R91320   2.278   6.597  13.985
11909POPC   H5S91321   2.454   6.581  13.955
11909POPC   C2691322   2.349   6.657  13.786
11909POPC   H6R91323   2.354   6.554  13.743
11909POPC   H6S91324   2.433   6.715  13.742
11909POPC   C2791325   2.216   6.719  13.742
11909POPC   H7R91326   2.204   6.817  13.795
11909POPC   H7S91327   2.132   6.654  13.774
11909POPC   C2891328   2.210   6.745  13.590
11909POPC   H8R91329   2.292   6.815  13.566
11909POPC   H8S91330   2.115   6.799  13.567
11909POPC   C2991331   2.220   6.620  13.508
11909POPC   H9191332   2.139   6.550  13.523
11909POPC  C21091333   2.315   6.577  13.425
11909POPC  H10191334   2.301   6.481  13.374
11909POPC  C21191335   2.442   6.648  13.391
11909POPC  H11R91336   2.450   6.746  13.443
11909POPC  H11S91337   2.442   6.667  13.282
11909POPC  C21291338   2.564   6.561  13.429
11909POPC  H12R91339   2.574   6.483  13.351
11909POPC  H12S91340   2.549   6.511  13.527
11909POPC  C21391341   2.694   6.643  13.436
11909POPC  H13R91342   2.782   6.578  13.455
11909POPC  H13S91343   2.686   6.715  13.520
11909POPC  C21491344   2.713   6.719  13.305
11909POPC  H14R91345   2.616   6.772  13.290
11909POPC  H14S91346   2.726   6.650  13.220
11909POPC  C21591347   2.815   6.832  13.301
11909POPC  H15R91348   2.907   6.797  13.249
11909POPC  H15S91349   2.844   6.864  13.403
11909POPC  C21691350   2.753   6.951  13.226
11909POPC  H16R91351   2.832   7.025  13.200
11909POPC  H16S91352   2.683   7.004  13.295
11909POPC  C21791353   2.671   6.911  13.101
11909POPC  H17R91354   2.563   6.918  13.125
11909POPC  H17S91355   2.692   6.806  13.070
11909POPC  C21891356   2.701   6.999  12.982
11909POPC  H18R91357   2.644   6.971  12.892
11909POPC  H18S91358   2.809   6.997  12.959
11909POPC  H18T91359   2.679   7.103  13.010
11909POPC   C3391360   2.396   7.208  13.787
11909POPC   H3X91361   2.503   7.224  13.814
11909POPC   H3Y91362   2.372   7.274  13.701
11909POPC   C3491363   2.372   7.064  13.744
11909POPC   H4X91364   2.268   7.053  13.706
11909POPC   H4Y91365   2.378   7.001  13.834
11909POPC   C3591366   2.474   7.016  13.640
11909POPC   H5X91367   2.466   6.906  13.627
11909POPC   H5Y91368   2.577   7.035  13.679
11909POPC   C3691369   2.458   7.085  13.505
11909POPC   H6X91370   2.531   7.040  13.433
11909POPC   H6Y91371   2.485   7.192  13.518
11909POPC   C3791372   2.318   7.074  13.444
11909POPC   H7X91373   2.242   7.122  13.510
11909POPC   H7Y91374   2.290   6.967  13.431
11909POPC   C3891375   2.306   7.141  13.307
11909POPC   H8X91376   2.203   7.125  13.270
11909POPC   H8Y91377   2.376   7.091  13.236
11909POPC   C3991378   2.333   7.293  13.313
11909POPC   H9X91379   2.295   7.334  13.408
11909POPC   H9Y91380   2.272   7.340  13.233
11909POPC  C31091381   2.481   7.332  13.294
11909POPC  H10X91382   2.537   7.241  13.262
11909POPC  H10Y91383   2.527   7.358  13.391
11909POPC  C31191384   2.505   7.446  13.193
11909POPC  H11X91385   2.616   7.457  13.183
11909POPC  H11Y91386   2.466   7.542  13.231
11909POPC  C31291387   2.447   7.416  13.054
11909POPC  H12X91388   2.481   7.492  12.981
11909POPC  H12Y91389   2.337   7.420  13.057
11909POPC  C31391390   2.494   7.276  13.014
11909POPC  H13X91391   2.433   7.200  13.067
11909POPC  H13Y91392   2.598   7.269  13.052
11909POPC  C31491393   2.495   7.238  12.867
11909POPC  H14X91394   2.411   7.283  12.812
11909POPC  H14Y91395   2.481   7.127  12.860
11909POPC  C31591396   2.625   7.273  12.797
11909POPC  H15X91397   2.713   7.236  12.853
11909POPC  H15Y91398   2.633   7.384  12.792
11909POPC  C31691399   2.625   7.215  12.657
11909POPC  H16X91400   2.614   7.104  12.660
11909POPC  H16Y91401   2.717   7.240  12.602
11909POPC  H16Z91402   2.540   7.258  12.604
11910POPC     N91403   5.569   7.655  14.750
11910POPC   C1291404   5.625   7.516  14.722
11910POPC  H12A91405   5.551   7.442  14.743
11910POPC  H12B91406   5.709   7.500  14.790
11910POPC   C1391407   5.679   7.755  14.728
11910POPC  H13A91408   5.722   7.741  14.629
11910POPC  H13B91409   5.646   7.858  14.738
11910POPC  H13C91410   5.761   7.735  14.797
11910POPC   C1491411   5.458   7.692  14.657
11910POPC  H14A91412   5.498   7.687  14.555
11910POPC  H14B91413   5.374   7.626  14.665
11910POPC  H14C91414   5.427   7.794  14.674
11910POPC   C1591415   5.522   7.668  14.892
11910POPC  H15A91416   5.481   7.769  14.905
11910POPC  H15B91417   5.603   7.659  14.963
11910POPC  H15C91418   5.442   7.599  14.915
11910POPC   C1191419   5.683   7.488  14.580
11910POPC  H11A91420   5.607   7.505  14.502
11910POPC  H11B91421   5.709   7.379  14.575
11910POPC     P91422   5.931   7.531  14.629
11910POPC   O1391423   5.972   7.395  14.588
11910POPC   O1491424   5.900   7.554  14.773
11910POPC   O1291425   5.798   7.567  14.551
11910POPC   O1191426   6.043   7.632  14.583
11910POPC    C191427   6.035   7.774  14.584
11910POPC    HA91428   6.135   7.815  14.607
11910POPC    HB91429   5.967   7.808  14.665
11910POPC    C291430   5.988   7.834  14.449
11910POPC    HS91431   5.975   7.943  14.464
11910POPC   O2191432   5.861   7.774  14.420
11910POPC   C2191433   5.810   7.804  14.304
11910POPC   O2291434   5.839   7.903  14.238
11910POPC   C2291435   5.710   7.697  14.258
11910POPC   H2R91436   5.608   7.739  14.261
11910POPC   H2S91437   5.715   7.610  14.327
11910POPC    C391438   6.091   7.813  14.331
11910POPC    HX91439   6.193   7.822  14.375
11910POPC    HY91440   6.077   7.900  14.262
11910POPC   O3191441   6.080   7.687  14.261
11910POPC   C3191442   6.141   7.684  14.141
11910POPC   O3291443   6.185   7.782  14.084
11910POPC   C3291444   6.154   7.539  14.092
11910POPC   H2X91445   6.053   7.500  14.070
11910POPC   H2Y91446   6.196   7.479  14.173
11910POPC   C2391447   5.737   7.654  14.113
11910POPC   H3R91448   5.811   7.720  14.063
11910POPC   H3S91449   5.642   7.662  14.055
11910POPC   C2491450   5.786   7.510  14.110
11910POPC   H4R91451   5.714   7.444  14.162
11910POPC   H4S91452   5.881   7.505  14.167
11910POPC   C2591453   5.802   7.464  13.965
11910POPC   H5R91454   5.875   7.380  13.958
11910POPC   H5S91455   5.843   7.549  13.905
11910POPC   C2691456   5.667   7.418  13.909
11910POPC   H6R91457   5.585   7.456  13.975
11910POPC   H6S91458   5.662   7.307  13.913
11910POPC   C2791459   5.635   7.470  13.768
11910POPC   H7R91460   5.627   7.580  13.774
11910POPC   H7S91461   5.535   7.431  13.738
11910POPC   C2891462   5.740   7.433  13.663
11910POPC   H8R91463   5.841   7.468  13.695
11910POPC   H8S91464   5.717   7.490  13.571
11910POPC   C2991465   5.743   7.284  13.641
11910POPC   H9191466   5.766   7.223  13.729
11910POPC  C21091467   5.721   7.224  13.523
11910POPC  H10191468   5.732   7.115  13.515
11910POPC  C21191469   5.692   7.296  13.394
11910POPC  H11R91470   5.625   7.383  13.410
11910POPC  H11S91471   5.641   7.230  13.321
11910POPC  C21291472   5.825   7.343  13.333
11910POPC  H12R91473   5.881   7.408  13.404
11910POPC  H12S91474   5.800   7.406  13.246
11910POPC  C21391475   5.914   7.227  13.286
11910POPC  H13R91476   5.852   7.158  13.225
11910POPC  H13S91477   5.950   7.170  13.375
11910POPC  C21491478   6.034   7.271  13.202
11910POPC  H14R91479   6.094   7.181  13.176
11910POPC  H14S91480   6.098   7.340  13.260
11910POPC  C21591481   5.991   7.340  13.071
11910POPC  H15R91482   5.944   7.438  13.096
11910POPC  H15S91483   5.915   7.277  13.020
11910POPC  C21691484   6.107   7.366  12.974
11910POPC  H16R91485   6.157   7.268  12.953
11910POPC  H16S91486   6.182   7.432  13.023
11910POPC  C21791487   6.062   7.428  12.841
11910POPC  H17R91488   5.988   7.359  12.794
11910POPC  H17S91489   6.150   7.435  12.774
11910POPC  C21891490   6.000   7.568  12.853
11910POPC  H18R91491   5.913   7.568  12.921
11910POPC  H18S91492   5.965   7.603  12.753
11910POPC  H18T91493   6.075   7.640  12.891
11910POPC   C3391494   6.241   7.520  13.965
11910POPC   H3X91495   6.269   7.412  13.957
11910POPC   H3Y91496   6.335   7.579  13.972
11910POPC   C3491497   6.163   7.559  13.840
11910POPC   H4X91498   6.136   7.666  13.849
11910POPC   H4Y91499   6.067   7.501  13.836
11910POPC   C3591500   6.239   7.537  13.709
11910POPC   H5X91501   6.239   7.428  13.684
11910POPC   H5Y91502   6.345   7.570  13.718
11910POPC   C3691503   6.172   7.616  13.596
11910POPC   H6X91504   6.062   7.603  13.601
11910POPC   H6Y91505   6.206   7.573  13.498
11910POPC   C3791506   6.208   7.765  13.601
11910POPC   H7X91507   6.319   7.775  13.597
11910POPC   H7Y91508   6.177   7.811  13.698
11910POPC   C3891509   6.145   7.842  13.485
11910POPC   H8X91510   6.140   7.775  13.397
11910POPC   H8Y91511   6.207   7.928  13.454
11910POPC   C3991512   6.007   7.897  13.519
11910POPC   H9X91513   6.016   7.989  13.580
11910POPC   H9Y91514   5.956   7.820  13.582
11910POPC  C31091515   5.923   7.922  13.393
11910POPC  H10X91516   5.980   7.985  13.322
11910POPC  H10Y91517   5.832   7.979  13.421
11910POPC  C31191518   5.884   7.789  13.330
11910POPC  H11X91519   5.851   7.721  13.412
11910POPC  H11Y91520   5.972   7.741  13.281
11910POPC  C31291521   5.771   7.796  13.228
11910POPC  H12X91522   5.806   7.848  13.135
11910POPC  H12Y91523   5.686   7.855  13.269
11910POPC  C31391524   5.724   7.655  13.194
11910POPC  H13X91525   5.694   7.604  13.289
11910POPC  H13Y91526   5.808   7.598  13.149
11910POPC  C31491527   5.605   7.655  13.099
11910POPC  H14X91528   5.633   7.711  13.008
11910POPC  H14Y91529   5.526   7.713  13.150
11910POPC  C31591530   5.550   7.516  13.060
11910POPC  H15X91531   5.467   7.533  12.988
11910POPC  H15Y91532   5.507   7.468  13.150
11910POPC  C31691533   5.645   7.414  12.996
11910POPC  H16X91534   5.716   7.462  12.925
11910POPC  H16Y91535   5.587   7.337  12.940
11910POPC  H16Z91536   5.705   7.362  13.072
11911POPC     N91537   7.041   6.514  14.809
11911POPC   C1291538   6.896   6.561  14.792
11911POPC  H12A91539   6.845   6.552  14.887
11911POPC  H12B91540   6.845   6.496  14.722
11911POPC   C1391541   7.108   6.499  14.675
11911POPC  H13A91542   7.214   6.475  14.685
11911POPC  H13B91543   7.061   6.423  14.613
11911POPC  H13C91544   7.100   6.593  14.620
11911POPC   C1491545   7.120   6.616  14.885
11911POPC  H14A91546   7.074   6.641  14.980
11911POPC  H14B91547   7.222   6.583  14.903
11911POPC  H14C91548   7.126   6.707  14.826
11911POPC   C1591549   7.042   6.383  14.882
11911POPC  H15A91550   7.143   6.354  14.905
11911POPC  H15B91551   6.997   6.307  14.819
11911POPC  H15C91552   6.984   6.388  14.973
11911POPC   C1191553   6.873   6.707  14.744
11911POPC  H11A91554   6.925   6.778  14.812
11911POPC  H11B91555   6.764   6.729  14.751
11911POPC     P91556   6.924   6.869  14.550
11911POPC   O1391557   7.063   6.915  14.568
11911POPC   O1491558   6.818   6.950  14.614
11911POPC   O1291559   6.916   6.721  14.608
11911POPC   O1191560   6.888   6.853  14.396
11911POPC    C191561   6.816   6.739  14.349
11911POPC    HA91562   6.769   6.762  14.251
11911POPC    HB91563   6.733   6.712  14.419
11911POPC    C291564   6.910   6.617  14.330
11911POPC    HS91565   6.972   6.608  14.422
11911POPC   O2191566   6.993   6.639  14.215
11911POPC   C2191567   7.103   6.566  14.211
11911POPC   O2291568   7.139   6.487  14.296
11911POPC   C2291569   7.171   6.591  14.076
11911POPC   H2R91570   7.274   6.551  14.079
11911POPC   H2S91571   7.175   6.700  14.059
11911POPC    C391572   6.829   6.485  14.317
11911POPC    HX91573   6.751   6.483  14.395
11911POPC    HY91574   6.901   6.403  14.343
11911POPC   O3191575   6.766   6.471  14.186
11911POPC   C3191576   6.797   6.358  14.123
11911POPC   O3291577   6.869   6.270  14.167
11911POPC   C3291578   6.734   6.352  13.982
11911POPC   H2X91579   6.699   6.248  13.969
11911POPC   H2Y91580   6.814   6.372  13.909
11911POPC   C2391581   7.087   6.521  13.968
11911POPC   H3R91582   6.978   6.542  13.985
11911POPC   H3S91583   7.102   6.411  13.980
11911POPC   C2491584   7.113   6.558  13.821
11911POPC   H4R91585   7.221   6.547  13.797
11911POPC   H4S91586   7.083   6.663  13.801
11911POPC   C2591587   7.027   6.463  13.736
11911POPC   H5R91588   6.925   6.501  13.728
11911POPC   H5S91589   7.016   6.370  13.795
11911POPC   C2691590   7.083   6.424  13.599
11911POPC   H6R91591   7.046   6.323  13.571
11911POPC   H6S91592   7.193   6.420  13.604
11911POPC   C2791593   7.032   6.513  13.486
11911POPC   H7R91594   7.055   6.619  13.511
11911POPC   H7S91595   6.921   6.501  13.480
11911POPC   C2891596   7.090   6.480  13.349
11911POPC   H8R91597   7.046   6.550  13.275
11911POPC   H8S91598   7.062   6.376  13.320
11911POPC   C2991599   7.239   6.497  13.358
11911POPC   H9191600   7.273   6.556  13.444
11911POPC  C21091601   7.328   6.450  13.272
11911POPC  H10191602   7.433   6.458  13.300
11911POPC  C21191603   7.299   6.371  13.148
11911POPC  H11R91604   7.200   6.324  13.155
11911POPC  H11S91605   7.373   6.289  13.137
11911POPC  C21291606   7.307   6.459  13.022
11911POPC  H12R91607   7.412   6.491  13.006
11911POPC  H12S91608   7.246   6.552  13.034
11911POPC  C21391609   7.259   6.384  12.898
11911POPC  H13R91610   7.163   6.426  12.861
11911POPC  H13S91611   7.240   6.279  12.926
11911POPC  C21491612   7.359   6.376  12.784
11911POPC  H14R91613   7.344   6.277  12.739
11911POPC  H14S91614   7.463   6.379  12.823
11911POPC  C21591615   7.332   6.485  12.680
11911POPC  H15R91616   7.334   6.578  12.740
11911POPC  H15S91617   7.228   6.474  12.642
11911POPC  C21691618   7.427   6.494  12.560
11911POPC  H16R91619   7.413   6.594  12.513
11911POPC  H16S91620   7.396   6.420  12.483
11911POPC  C21791621   7.577   6.475  12.589
11911POPC  H17R91622   7.633   6.485  12.494
11911POPC  H17S91623   7.593   6.371  12.625
11911POPC  C21891624   7.634   6.573  12.691
11911POPC  H18R91625   7.633   6.677  12.653
11911POPC  H18S91626   7.738   6.548  12.719
11911POPC  H18T91627   7.574   6.570  12.784
11911POPC   C3391628   6.616   6.450  13.956
11911POPC   H3X91629   6.644   6.553  13.985
11911POPC   H3Y91630   6.531   6.418  14.021
11911POPC   C3491631   6.560   6.452  13.811
11911POPC   H4X91632   6.464   6.507  13.811
11911POPC   H4Y91633   6.533   6.350  13.780
11911POPC   C3591634   6.651   6.515  13.703
11911POPC   H5X91635   6.591   6.520  13.609
11911POPC   H5Y91636   6.735   6.445  13.684
11911POPC   C3691637   6.702   6.656  13.739
11911POPC   H6X91638   6.755   6.652  13.836
11911POPC   H6Y91639   6.614   6.723  13.749
11911POPC   C3791640   6.799   6.721  13.638
11911POPC   H7X91641   6.897   6.672  13.639
11911POPC   H7Y91642   6.819   6.826  13.668
11911POPC   C3891643   6.745   6.718  13.495
11911POPC   H8X91644   6.649   6.774  13.495
11911POPC   H8Y91645   6.724   6.613  13.465
11911POPC   C3991646   6.835   6.780  13.389
11911POPC   H9X91647   6.933   6.728  13.384
11911POPC   H9Y91648   6.856   6.887  13.413
11911POPC  C31091649   6.767   6.766  13.254
11911POPC  H10X91650   6.677   6.832  13.251
11911POPC  H10Y91651   6.732   6.661  13.240
11911POPC  C31191652   6.860   6.802  13.140
11911POPC  H11X91653   6.804   6.789  13.045
11911POPC  H11Y91654   6.947   6.732  13.138
11911POPC  C31291655   6.914   6.944  13.148
11911POPC  H12X91656   7.002   6.945  13.215
11911POPC  H12Y91657   6.837   7.011  13.192
11911POPC  C31391658   6.948   6.995  13.008
11911POPC  H13X91659   6.992   7.096  13.011
11911POPC  H13Y91660   6.849   7.003  12.956
11911POPC  C31491661   7.039   6.900  12.929
11911POPC  H14X91662   6.996   6.797  12.927
11911POPC  H14Y91663   7.138   6.892  12.980
11911POPC  C31591664   7.059   6.942  12.783
11911POPC  H15X91665   7.086   6.851  12.725
11911POPC  H15Y91666   7.144   7.014  12.778
11911POPC  C31691667   6.937   7.006  12.717
11911POPC  H16X91668   6.848   6.941  12.727
11911POPC  H16Y91669   6.956   7.027  12.610
11911POPC  H16Z91670   6.912   7.102  12.768
11912POPC     N91671   3.818   7.720  14.636
11912POPC   C1291672   3.954   7.703  14.572
11912POPC  H12A91673   3.980   7.794  14.516
11912POPC  H12B91674   3.952   7.622  14.501
11912POPC   C1391675   3.794   7.611  14.736
11912POPC  H13A91676   3.877   7.614  14.808
11912POPC  H13B91677   3.704   7.625  14.794
11912POPC  H13C91678   3.793   7.514  14.690
11912POPC   C1491679   3.821   7.850  14.712
11912POPC  H14A91680   3.728   7.871  14.763
11912POPC  H14B91681   3.902   7.844  14.786
11912POPC  H14C91682   3.848   7.934  14.647
11912POPC   C1591683   3.711   7.725  14.531
11912POPC  H15A91684   3.698   7.629  14.482
11912POPC  H15B91685   3.735   7.797  14.454
11912POPC  H15C91686   3.616   7.757  14.573
11912POPC   C1191687   4.073   7.679  14.669
11912POPC  H11A91688   4.158   7.647  14.604
11912POPC  H11B91689   4.055   7.594  14.738
11912POPC     P91690   4.189   7.905  14.670
11912POPC   O1391691   4.258   7.991  14.769
11912POPC   O1491692   4.095   7.969  14.576
11912POPC   O1291693   4.104   7.794  14.747
11912POPC   O1191694   4.294   7.819  14.587
11912POPC    C191695   4.354   7.868  14.467
11912POPC    HA91696   4.460   7.837  14.464
11912POPC    HB91697   4.355   7.979  14.464
11912POPC    C291698   4.283   7.816  14.338
11912POPC    HS91699   4.174   7.812  14.361
11912POPC   O2191700   4.336   7.688  14.297
11912POPC   C2191701   4.253   7.619  14.218
11912POPC   O2291702   4.134   7.640  14.208
11912POPC   C2291703   4.328   7.511  14.139
11912POPC   H2R91704   4.261   7.423  14.136
11912POPC   H2S91705   4.422   7.485  14.191
11912POPC    C391706   4.305   7.920  14.225
11912POPC    HX91707   4.414   7.944  14.223
11912POPC    HY91708   4.252   8.014  14.252
11912POPC   O3191709   4.269   7.868  14.095
11912POPC   C3191710   4.155   7.909  14.043
11912POPC   O3291711   4.088   8.003  14.081
11912POPC   C3291712   4.118   7.814  13.929
11912POPC   H2X91713   4.107   7.713  13.974
11912POPC   H2Y91714   4.202   7.811  13.856
11912POPC   C2391715   4.354   7.542  13.991
11912POPC   H3R91716   4.318   7.643  13.962
11912POPC   H3S91717   4.294   7.469  13.930
11912POPC   C2491718   4.500   7.527  13.949
11912POPC   H4R91719   4.538   7.427  13.977
11912POPC   H4S91720   4.564   7.600  14.002
11912POPC   C2591721   4.507   7.548  13.798
11912POPC   H5R91722   4.489   7.656  13.778
11912POPC   H5S91723   4.423   7.489  13.755
11912POPC   C2691724   4.633   7.505  13.724
11912POPC   H6R91725   4.667   7.406  13.763
11912POPC   H6S91726   4.714   7.578  13.743
11912POPC   C2791727   4.608   7.491  13.572
11912POPC   H7R91728   4.548   7.399  13.555
11912POPC   H7S91729   4.705   7.473  13.522
11912POPC   C2891730   4.539   7.611  13.502
11912POPC   H8R91731   4.563   7.603  13.394
11912POPC   H8S91732   4.588   7.704  13.538
11912POPC   C2991733   4.389   7.621  13.523
11912POPC   H9191734   4.356   7.639  13.626
11912POPC  C21091735   4.291   7.615  13.432
11912POPC  H10191736   4.186   7.621  13.466
11912POPC  C21191737   4.307   7.595  13.284
11912POPC  H11R91738   4.229   7.524  13.249
11912POPC  H11S91739   4.405   7.550  13.258
11912POPC  C21291740   4.292   7.727  13.207
11912POPC  H12R91741   4.388   7.783  13.212
11912POPC  H12S91742   4.214   7.792  13.252
11912POPC  C21391743   4.254   7.703  13.060
11912POPC  H13R91744   4.275   7.797  13.004
11912POPC  H13S91745   4.145   7.684  13.054
11912POPC  C21491746   4.328   7.583  13.000
11912POPC  H14R91747   4.284   7.489  13.040
11912POPC  H14S91748   4.433   7.586  13.034
11912POPC  C21591749   4.327   7.573  12.847
11912POPC  H15R91750   4.225   7.541  12.814
11912POPC  H15S91751   4.397   7.491  12.820
11912POPC  C21691752   4.366   7.701  12.772
11912POPC  H16R91753   4.465   7.738  12.803
11912POPC  H16S91754   4.292   7.781  12.795
11912POPC  C21791755   4.370   7.680  12.621
11912POPC  H17R91756   4.377   7.779  12.571
11912POPC  H17S91757   4.273   7.633  12.591
11912POPC  C21891758   4.487   7.592  12.575
11912POPC  H18R91759   4.580   7.652  12.573
11912POPC  H18S91760   4.472   7.550  12.475
11912POPC  H18T91761   4.502   7.506  12.643
11912POPC   C3391762   3.986   7.849  13.859
11912POPC   H3X91763   4.002   7.928  13.783
11912POPC   H3Y91764   3.912   7.889  13.933
11912POPC   C3491765   3.922   7.725  13.795
11912POPC   H4X91766   3.909   7.647  13.873
11912POPC   H4Y91767   3.989   7.684  13.717
11912POPC   C3591768   3.784   7.757  13.736
11912POPC   H5X91769   3.795   7.830  13.653
11912POPC   H5Y91770   3.724   7.807  13.815
11912POPC   C3691771   3.706   7.633  13.688
11912POPC   H6X91772   3.609   7.669  13.646
11912POPC   H6Y91773   3.683   7.568  13.775
11912POPC   C3791774   3.776   7.549  13.579
11912POPC   H7X91775   3.703   7.474  13.542
11912POPC   H7Y91776   3.862   7.494  13.623
11912POPC   C3891777   3.825   7.634  13.460
11912POPC   H8X91778   3.916   7.691  13.491
11912POPC   H8Y91779   3.745   7.707  13.435
11912POPC   C3991780   3.859   7.550  13.336
11912POPC   H9X91781   3.766   7.501  13.299
11912POPC   H9Y91782   3.930   7.470  13.364
11912POPC  C31091783   3.919   7.634  13.221
11912POPC  H10X91784   3.942   7.567  13.136
11912POPC  H10Y91785   4.015   7.678  13.257
11912POPC  C31191786   3.827   7.748  13.175
11912POPC  H11X91787   3.812   7.819  13.259
11912POPC  H11Y91788   3.727   7.705  13.149
11912POPC  C31291789   3.878   7.828  13.055
11912POPC  H12X91790   3.976   7.874  13.081
11912POPC  H12Y91791   3.807   7.912  13.036
11912POPC  C31391792   3.893   7.749  12.924
11912POPC  H13X91793   3.800   7.693  12.900
11912POPC  H13Y91794   3.974   7.674  12.937
11912POPC  C31491795   3.931   7.843  12.809
11912POPC  H14X91796   3.987   7.925  12.860
11912POPC  H14Y91797   3.841   7.888  12.762
11912POPC  C31591798   4.026   7.784  12.704
11912POPC  H15X91799   4.082   7.699  12.747
11912POPC  H15Y91800   4.101   7.862  12.676
11912POPC  C31691801   3.957   7.740  12.575
11912POPC  H16X91802   3.883   7.815  12.542
11912POPC  H16Y91803   3.904   7.645  12.594
11912POPC  H16Z91804   4.031   7.723  12.494
11913POPC     N91805   1.960   3.256  14.862
11913POPC   C1291806   1.947   3.131  14.775
11913POPC  H12A91807   1.841   3.105  14.767
11913POPC  H12B91808   2.000   3.049  14.822
11913POPC   C1391809   1.852   3.353  14.823
11913POPC  H13A91810   1.850   3.440  14.888
11913POPC  H13B91811   1.864   3.384  14.719
11913POPC  H13C91812   1.755   3.305  14.828
11913POPC   C1491813   1.944   3.220  15.007
11913POPC  H14A91814   1.853   3.162  15.021
11913POPC  H14B91815   2.028   3.161  15.043
11913POPC  H14C91816   1.932   3.309  15.067
11913POPC   C1591817   2.093   3.319  14.837
11913POPC  H15A91818   2.098   3.418  14.880
11913POPC  H15B91819   2.103   3.329  14.729
11913POPC  H15C91820   2.172   3.256  14.877
11913POPC   C1191821   1.994   3.138  14.628
11913POPC  H11A91822   1.985   3.037  14.582
11913POPC  H11B91823   2.102   3.164  14.622
11913POPC     P91824   1.774   3.192  14.502
11913POPC   O1391825   1.699   3.317  14.476
11913POPC   O1491826   1.718   3.098  14.602
11913POPC   O1291827   1.919   3.235  14.556
11913POPC   O1191828   1.808   3.116  14.367
11913POPC    C191829   1.914   3.163  14.282
11913POPC    HA91830   1.986   3.079  14.270
11913POPC    HB91831   1.970   3.250  14.323
11913POPC    C291832   1.862   3.200  14.140
11913POPC    HS91833   1.951   3.218  14.075
11913POPC   O2191834   1.774   3.313  14.139
11913POPC   C2191835   1.834   3.429  14.149
11913POPC   O2291836   1.952   3.446  14.172
11913POPC   C2291837   1.738   3.541  14.107
11913POPC   H2R91838   1.801   3.626  14.074
11913POPC   H2S91839   1.684   3.574  14.199
11913POPC    C391840   1.781   3.084  14.080
11913POPC    HX91841   1.697   3.068  14.152
11913POPC    HY91842   1.842   2.991  14.079
11913POPC   O3191843   1.725   3.114  13.950
11913POPC   C3191844   1.810   3.110  13.849
11913POPC   O3291845   1.931   3.103  13.857
11913POPC   C3291846   1.735   3.103  13.714
11913POPC   H2X91847   1.728   2.996  13.686
11913POPC   H2Y91848   1.803   3.152  13.642
11913POPC   C2391849   1.636   3.503  13.996
11913POPC   H3R91850   1.534   3.516  14.040
11913POPC   H3S91851   1.643   3.396  13.966
11913POPC   C2491852   1.644   3.587  13.867
11913POPC   H4R91853   1.621   3.693  13.896
11913POPC   H4S91854   1.564   3.555  13.797
11913POPC   C2591855   1.779   3.586  13.793
11913POPC   H5R91856   1.859   3.609  13.865
11913POPC   H5S91857   1.777   3.669  13.718
11913POPC   C2691858   1.814   3.456  13.717
11913POPC   H6R91859   1.731   3.430  13.648
11913POPC   H6S91860   1.826   3.374  13.791
11913POPC   C2791861   1.945   3.471  13.635
11913POPC   H7R91862   2.026   3.492  13.709
11913POPC   H7S91863   1.936   3.560  13.569
11913POPC   C2891864   1.992   3.350  13.550
11913POPC   H8R91865   2.010   3.266  13.621
11913POPC   H8S91866   2.093   3.377  13.511
11913POPC   C2991867   1.908   3.303  13.434
11913POPC   H9191868   1.854   3.209  13.455
11913POPC  C21091869   1.894   3.354  13.310
11913POPC  H10191870   1.824   3.302  13.242
11913POPC  C21191871   1.958   3.476  13.248
11913POPC  H11R91872   1.966   3.556  13.326
11913POPC  H11S91873   1.889   3.518  13.171
11913POPC  C21291874   2.100   3.460  13.185
11913POPC  H12R91875   2.164   3.411  13.260
11913POPC  H12S91876   2.138   3.562  13.169
11913POPC  C21391877   2.110   3.384  13.049
11913POPC  H13R91878   2.074   3.446  12.965
11913POPC  H13S91879   2.034   3.302  13.061
11913POPC  C21491880   2.241   3.306  13.012
11913POPC  H14R91881   2.202   3.220  12.955
11913POPC  H14S91882   2.285   3.263  13.105
11913POPC  C21591883   2.358   3.356  12.918
11913POPC  H15R91884   2.413   3.263  12.890
11913POPC  H15S91885   2.431   3.416  12.975
11913POPC  C21691886   2.323   3.431  12.787
11913POPC  H16R91887   2.348   3.538  12.806
11913POPC  H16S91888   2.214   3.434  12.779
11913POPC  C21791889   2.389   3.397  12.647
11913POPC  H17R91890   2.433   3.490  12.606
11913POPC  H17S91891   2.310   3.374  12.575
11913POPC  C21891892   2.482   3.279  12.618
11913POPC  H18R91893   2.431   3.202  12.557
11913POPC  H18S91894   2.521   3.231  12.710
11913POPC  H18T91895   2.566   3.311  12.554
11913POPC   C3391896   1.596   3.169  13.704
11913POPC   H3X91897   1.600   3.269  13.752
11913POPC   H3Y91898   1.519   3.110  13.758
11913POPC   C3491899   1.553   3.191  13.557
11913POPC   H4X91900   1.641   3.220  13.498
11913POPC   H4Y91901   1.483   3.277  13.555
11913POPC   C3591902   1.484   3.071  13.488
11913POPC   H5X91903   1.385   3.052  13.535
11913POPC   H5Y91904   1.547   2.980  13.503
11913POPC   C3691905   1.467   3.091  13.336
11913POPC   H6X91906   1.427   2.998  13.290
11913POPC   H6Y91907   1.567   3.108  13.293
11913POPC   C3791908   1.374   3.208  13.297
11913POPC   H7X91909   1.372   3.285  13.377
11913POPC   H7Y91910   1.270   3.169  13.288
11913POPC   C3891911   1.414   3.279  13.166
11913POPC   H8X91912   1.330   3.345  13.133
11913POPC   H8Y91913   1.428   3.202  13.087
11913POPC   C3991914   1.540   3.365  13.181
11913POPC   H9X91915   1.622   3.302  13.221
11913POPC   H9Y91916   1.521   3.446  13.255
11913POPC  C31091917   1.589   3.430  13.050
11913POPC  H10X91918   1.672   3.501  13.072
11913POPC  H10Y91919   1.507   3.489  13.007
11913POPC  C31191920   1.638   3.329  12.947
11913POPC  H11X91921   1.554   3.259  12.922
11913POPC  H11Y91922   1.721   3.271  12.991
11913POPC  C31291923   1.693   3.389  12.818
11913POPC  H12X91924   1.802   3.407  12.829
11913POPC  H12Y91925   1.646   3.489  12.801
11913POPC  C31391926   1.664   3.300  12.696
11913POPC  H13X91927   1.628   3.367  12.615
11913POPC  H13Y91928   1.584   3.227  12.718
11913POPC  C31491929   1.789   3.229  12.647
11913POPC  H14X91930   1.840   3.190  12.738
11913POPC  H14Y91931   1.841   3.313  12.603
11913POPC  C31591932   1.782   3.126  12.533
11913POPC  H15X91933   1.736   3.173  12.444
11913POPC  H15Y91934   1.712   3.061  12.581
11913POPC  C31691935   1.893   3.031  12.480
11913POPC  H16X91936   1.907   2.943  12.546
11913POPC  H16Y91937   1.990   3.082  12.462
11913POPC  H16Z91938   1.862   2.988  12.382
11914POPC     N91939   1.664   5.343  14.622
11914POPC   C1291940   1.577   5.405  14.731
11914POPC  H12A91941   1.640   5.436  14.813
11914POPC  H12B91942   1.512   5.327  14.767
11914POPC   C1391943   1.591   5.319  14.495
11914POPC  H13A91944   1.651   5.263  14.424
11914POPC  H13B91945   1.500   5.264  14.513
11914POPC  H13C91946   1.567   5.415  14.450
11914POPC   C1491947   1.778   5.433  14.594
11914POPC  H14A91948   1.842   5.446  14.682
11914POPC  H14B91949   1.847   5.398  14.519
11914POPC  H14C91950   1.748   5.535  14.569
11914POPC   C1591951   1.719   5.212  14.673
11914POPC  H15A91952   1.788   5.169  14.601
11914POPC  H15B91953   1.640   5.139  14.688
11914POPC  H15C91954   1.774   5.226  14.765
11914POPC   C1191955   1.490   5.529  14.697
11914POPC  H11A91956   1.442   5.569  14.790
11914POPC  H11B91957   1.405   5.492  14.637
11914POPC     P91958   1.648   5.740  14.701
11914POPC   O1391959   1.791   5.729  14.666
11914POPC   O1491960   1.619   5.734  14.846
11914POPC   O1291961   1.561   5.630  14.627
11914POPC   O1191962   1.593   5.875  14.645
11914POPC    C191963   1.456   5.903  14.624
11914POPC    HA91964   1.440   6.007  14.659
11914POPC    HB91965   1.390   5.838  14.686
11914POPC    C291966   1.414   5.900  14.473
11914POPC    HS91967   1.313   5.946  14.465
11914POPC   O2191968   1.410   5.768  14.415
11914POPC   C2191969   1.325   5.683  14.466
11914POPC   O2291970   1.246   5.708  14.556
11914POPC   C2291971   1.327   5.550  14.386
11914POPC   H2R91972   1.223   5.512  14.386
11914POPC   H2S91973   1.388   5.477  14.440
11914POPC    C391974   1.510   5.987  14.387
11914POPC    HX91975   1.517   6.089  14.431
11914POPC    HY91976   1.467   5.999  14.285
11914POPC   O3191977   1.640   5.927  14.386
11914POPC   C3191978   1.653   5.830  14.297
11914POPC   O3291979   1.587   5.820  14.195
11914POPC   C3291980   1.768   5.739  14.338
11914POPC   H2X91981   1.738   5.693  14.434
11914POPC   H2Y91982   1.858   5.800  14.356
11914POPC   C2391983   1.378   5.557  14.240
11914POPC   H3R91984   1.486   5.583  14.236
11914POPC   H3S91985   1.323   5.637  14.186
11914POPC   C2491986   1.355   5.423  14.166
11914POPC   H4R91987   1.256   5.384  14.199
11914POPC   H4S91988   1.433   5.349  14.194
11914POPC   C2591989   1.347   5.438  14.014
11914POPC   H5R91990   1.271   5.516  13.991
11914POPC   H5S91991   1.311   5.343  13.969
11914POPC   C2691992   1.481   5.474  13.948
11914POPC   H6R91993   1.551   5.389  13.962
11914POPC   H6S91994   1.527   5.562  13.999
11914POPC   C2791995   1.467   5.504  13.798
11914POPC   H7R91996   1.418   5.417  13.749
11914POPC   H7S91997   1.569   5.514  13.755
11914POPC   C2891998   1.387   5.632  13.767
11914POPC   H8R91999   1.286   5.626  13.813
11914POPC   H8S92000   1.370   5.635  13.657
11914POPC   C2992001   1.458   5.756  13.818
11914POPC   H9192002   1.465   5.762  13.928
11914POPC  C21092003   1.512   5.855  13.745
11914POPC  H10192004   1.562   5.938  13.797
11914POPC  C21192005   1.511   5.865  13.594
11914POPC  H11R92006   1.441   5.945  13.563
11914POPC  H11S92007   1.471   5.772  13.548
11914POPC  C21292008   1.647   5.889  13.527
11914POPC  H12R92009   1.719   5.810  13.558
11914POPC  H12S92010   1.690   5.987  13.558
11914POPC  C21392011   1.628   5.884  13.375
11914POPC  H13R92012   1.568   5.973  13.347
11914POPC  H13S92013   1.568   5.794  13.351
11914POPC  C21492014   1.756   5.877  13.290
11914POPC  H14R92015   1.821   5.795  13.326
11914POPC  H14S92016   1.812   5.973  13.301
11914POPC  C21592017   1.724   5.853  13.141
11914POPC  H15R92018   1.703   5.745  13.126
11914POPC  H15S92019   1.814   5.878  13.080
11914POPC  C21692020   1.602   5.932  13.090
11914POPC  H16R92021   1.615   6.040  13.113
11914POPC  H16S92022   1.511   5.896  13.143
11914POPC  C21792023   1.575   5.917  12.940
11914POPC  H17R92024   1.477   5.966  12.916
11914POPC  H17S92025   1.565   5.810  12.914
11914POPC  C21892026   1.682   5.981  12.854
11914POPC  H18R92027   1.763   5.908  12.834
11914POPC  H18S92028   1.727   6.067  12.905
11914POPC  H18T92029   1.639   6.017  12.758
11914POPC   C3392030   1.795   5.625  14.239
11914POPC   H3X92031   1.705   5.561  14.228
11914POPC   H3Y92032   1.877   5.561  14.280
11914POPC   C3492033   1.839   5.676  14.102
11914POPC   H4X92034   1.928   5.743  14.111
11914POPC   H4Y92035   1.757   5.735  14.055
11914POPC   C3592036   1.870   5.560  14.008
11914POPC   H5X92037   1.796   5.478  14.022
11914POPC   H5Y92038   1.971   5.520  14.030
11914POPC   C3692039   1.862   5.607  13.863
11914POPC   H6X92040   1.916   5.704  13.852
11914POPC   H6Y92041   1.756   5.625  13.836
11914POPC   C3792042   1.926   5.504  13.772
11914POPC   H7X92043   1.877   5.405  13.786
11914POPC   H7Y92044   2.032   5.495  13.803
11914POPC   C3892045   1.923   5.547  13.626
11914POPC   H8X92046   1.995   5.485  13.568
11914POPC   H8Y92047   1.954   5.654  13.618
11914POPC   C3992048   1.785   5.538  13.562
11914POPC   H9X92049   1.799   5.584  13.462
11914POPC   H9Y92050   1.712   5.601  13.617
11914POPC  C31092051   1.731   5.395  13.551
11914POPC  H10X92052   1.711   5.354  13.653
11914POPC  H10Y92053   1.809   5.331  13.503
11914POPC  C31192054   1.603   5.390  13.468
11914POPC  H11X92055   1.522   5.446  13.521
11914POPC  H11Y92056   1.571   5.284  13.456
11914POPC  C31292057   1.626   5.453  13.331
11914POPC  H12X92058   1.716   5.405  13.286
11914POPC  H12Y92059   1.646   5.562  13.339
11914POPC  C31392060   1.508   5.439  13.237
11914POPC  H13X92061   1.435   5.520  13.258
11914POPC  H13Y92062   1.457   5.342  13.254
11914POPC  C31492063   1.556   5.447  13.093
11914POPC  H14X92064   1.646   5.383  13.077
11914POPC  H14Y92065   1.584   5.553  13.071
11914POPC  C31592066   1.444   5.402  13.001
11914POPC  H15X92067   1.352   5.438  13.051
11914POPC  H15Y92068   1.439   5.291  12.995
11914POPC  C31692069   1.452   5.463  12.862
11914POPC  H16X92070   1.359   5.518  12.839
11914POPC  H16Y92071   1.473   5.389  12.783
11914POPC  H16Z92072   1.530   5.541  12.861
11915POPC     N92073   4.278   1.722  14.691
11915POPC   C1292074   4.291   1.625  14.572
11915POPC  H12A92075   4.396   1.615  14.548
11915POPC  H12B92076   4.244   1.667  14.484
11915POPC   C1392077   4.364   1.671  14.803
11915POPC  H13A92078   4.347   1.720  14.898
11915POPC  H13B92079   4.346   1.564  14.815
11915POPC  H13C92080   4.469   1.681  14.779
11915POPC   C1492081   4.328   1.859  14.654
11915POPC  H14A92082   4.269   1.905  14.577
11915POPC  H14B92083   4.335   1.925  14.740
11915POPC  H14C92084   4.431   1.854  14.615
11915POPC   C1592085   4.136   1.727  14.740
11915POPC  H15A92086   4.103   1.627  14.770
11915POPC  H15B92087   4.067   1.761  14.663
11915POPC  H15C92088   4.124   1.792  14.826
11915POPC   C1192089   4.244   1.478  14.589
11915POPC  H11A92090   4.254   1.424  14.492
11915POPC  H11B92091   4.136   1.477  14.615
11915POPC     P92092   4.457   1.342  14.670
11915POPC   O1392093   4.439   1.221  14.589
11915POPC   O1492094   4.519   1.327  14.803
11915POPC   O1292095   4.317   1.413  14.691
11915POPC   O1192096   4.544   1.446  14.585
11915POPC    C192097   4.682   1.456  14.631
11915POPC    HA92098   4.721   1.356  14.663
11915POPC    HB92099   4.687   1.522  14.720
11915POPC    C292100   4.791   1.497  14.525
11915POPC    HS92101   4.890   1.475  14.570
11915POPC   O2192102   4.793   1.634  14.485
11915POPC   C2192103   4.776   1.728  14.574
11915POPC   O2292104   4.802   1.727  14.693
11915POPC   C2292105   4.687   1.831  14.508
11915POPC   H2R92106   4.748   1.900  14.447
11915POPC   H2S92107   4.640   1.887  14.591
11915POPC    C392108   4.782   1.415  14.393
11915POPC    HX92109   4.809   1.310  14.419
11915POPC    HY92110   4.860   1.456  14.324
11915POPC   O3192111   4.651   1.426  14.330
11915POPC   C3192112   4.605   1.315  14.274
11915POPC   O3292113   4.669   1.212  14.257
11915POPC   C3292114   4.460   1.337  14.232
11915POPC   H2X92115   4.435   1.444  14.238
11915POPC   H2Y92116   4.395   1.285  14.306
11915POPC   C2392117   4.580   1.760  14.423
11915POPC   H3R92118   4.523   1.690  14.487
11915POPC   H3S92119   4.631   1.698  14.347
11915POPC   C2492120   4.486   1.856  14.351
11915POPC   H4R92121   4.554   1.916  14.286
11915POPC   H4S92122   4.436   1.927  14.420
11915POPC   C2592123   4.388   1.783  14.259
11915POPC   H5R92124   4.323   1.858  14.210
11915POPC   H5S92125   4.320   1.716  14.315
11915POPC   C2692126   4.471   1.706  14.157
11915POPC   H6R92127   4.514   1.616  14.203
11915POPC   H6S92128   4.559   1.768  14.127
11915POPC   C2792129   4.400   1.669  14.028
11915POPC   H7R92130   4.353   1.760  13.982
11915POPC   H7S92131   4.318   1.598  14.051
11915POPC   C2892132   4.504   1.605  13.938
11915POPC   H8R92133   4.470   1.506  13.905
11915POPC   H8S92134   4.596   1.583  13.998
11915POPC   C2992135   4.541   1.686  13.819
11915POPC   H9192136   4.491   1.783  13.814
11915POPC  C21092137   4.616   1.639  13.719
11915POPC  H10192138   4.645   1.705  13.636
11915POPC  C21192139   4.670   1.498  13.719
11915POPC  H11R92140   4.633   1.437  13.805
11915POPC  H11S92141   4.779   1.498  13.732
11915POPC  C21292142   4.623   1.422  13.594
11915POPC  H12R92143   4.512   1.429  13.588
11915POPC  H12S92144   4.648   1.315  13.607
11915POPC  C21392145   4.682   1.470  13.461
11915POPC  H13R92146   4.790   1.445  13.458
11915POPC  H13S92147   4.672   1.580  13.448
11915POPC  C21492148   4.614   1.398  13.343
11915POPC  H14R92149   4.513   1.442  13.328
11915POPC  H14S92150   4.599   1.291  13.371
11915POPC  C21592151   4.695   1.403  13.214
11915POPC  H15R92152   4.797   1.365  13.234
11915POPC  H15S92153   4.704   1.509  13.179
11915POPC  C21692154   4.630   1.317  13.104
11915POPC  H16R92155   4.526   1.354  13.088
11915POPC  H16S92156   4.621   1.212  13.139
11915POPC  C21792157   4.707   1.320  12.971
11915POPC  H17R92158   4.744   1.423  12.950
11915POPC  H17S92159   4.636   1.293  12.890
11915POPC  C21892160   4.824   1.223  12.968
11915POPC  H18R92161   4.789   1.124  13.000
11915POPC  H18S92162   4.904   1.255  13.038
11915POPC  H18T92163   4.867   1.215  12.866
11915POPC   C3392164   4.435   1.288  14.088
11915POPC   H3X92165   4.450   1.178  14.082
11915POPC   H3Y92166   4.509   1.335  14.020
11915POPC   C3492167   4.293   1.322  14.038
11915POPC   H4X92168   4.254   1.411  14.090
11915POPC   H4Y92169   4.227   1.237  14.065
11915POPC   C3592170   4.281   1.337  13.887
11915POPC   H5X92171   4.348   1.262  13.838
11915POPC   H5Y92172   4.308   1.437  13.849
11915POPC   C3692173   4.138   1.319  13.841
11915POPC   H6X92174   4.074   1.402  13.875
11915POPC   H6Y92175   4.101   1.226  13.888
11915POPC   C3792176   4.133   1.302  13.690
11915POPC   H7X92177   4.029   1.276  13.661
11915POPC   H7Y92178   4.199   1.216  13.664
11915POPC   C3892179   4.184   1.417  13.604
11915POPC   H8X92180   4.295   1.424  13.609
11915POPC   H8Y92181   4.144   1.513  13.642
11915POPC   C3992182   4.142   1.388  13.461
11915POPC   H9X92183   4.038   1.348  13.459
11915POPC   H9Y92184   4.211   1.311  13.421
11915POPC  C31092185   4.148   1.506  13.368
11915POPC  H10X92186   4.216   1.581  13.413
11915POPC  H10Y92187   4.045   1.545  13.362
11915POPC  C31192188   4.188   1.472  13.225
11915POPC  H11X92189   4.105   1.417  13.176
11915POPC  H11Y92190   4.279   1.408  13.225
11915POPC  C31292191   4.216   1.599  13.147
11915POPC  H12X92192   4.130   1.668  13.150
11915POPC  H12Y92193   4.231   1.572  13.040
11915POPC  C31392194   4.335   1.674  13.205
11915POPC  H13X92195   4.420   1.605  13.226
11915POPC  H13Y92196   4.307   1.723  13.300
11915POPC  C31492197   4.379   1.779  13.107
11915POPC  H14X92198   4.421   1.865  13.163
11915POPC  H14Y92199   4.290   1.817  13.052
11915POPC  C31592200   4.487   1.727  13.011
11915POPC  H15X92201   4.585   1.737  13.063
11915POPC  H15Y92202   4.484   1.798  12.925
11915POPC  C31692203   4.480   1.586  12.950
11915POPC  H16X92204   4.583   1.549  12.936
11915POPC  H16Y92205   4.433   1.588  12.850
11915POPC  H16Z92206   4.425   1.514  13.012
11916POPC     N92207   7.294   2.772  14.816
11916POPC   C1292208   7.154   2.749  14.872
11916POPC  H12A92209   7.139   2.821  14.951
11916POPC  H12B92210   7.151   2.650  14.917
11916POPC   C1392211   7.392   2.772  14.929
11916POPC  H13A92212   7.494   2.782  14.897
11916POPC  H13B92213   7.372   2.852  15.000
11916POPC  H13C92214   7.384   2.680  14.987
11916POPC   C1492215   7.325   2.663  14.719
11916POPC  H14A92216   7.339   2.569  14.770
11916POPC  H14B92217   7.237   2.651  14.655
11916POPC  H14C92218   7.408   2.686  14.656
11916POPC   C1592219   7.293   2.905  14.746
11916POPC  H15A92220   7.242   2.980  14.806
11916POPC  H15B92221   7.235   2.895  14.654
11916POPC  H15C92222   7.392   2.941  14.725
11916POPC   C1192223   7.033   2.755  14.777
11916POPC  H11A92224   7.023   2.863  14.746
11916POPC  H11B92225   6.941   2.729  14.835
11916POPC     P92226   6.972   2.706  14.534
11916POPC   O1392227   7.001   2.849  14.507
11916POPC   O1492228   6.830   2.667  14.550
11916POPC   O1292229   7.047   2.664  14.667
11916POPC   O1192230   7.040   2.619  14.421
11916POPC    C192231   7.077   2.484  14.442
11916POPC    HA92232   7.012   2.436  14.517
11916POPC    HB92233   7.181   2.480  14.480
11916POPC    C292234   7.064   2.400  14.311
11916POPC    HS92235   7.113   2.302  14.330
11916POPC   O2192236   7.123   2.459  14.195
11916POPC   C2192237   7.246   2.501  14.197
11916POPC   O2292238   7.326   2.493  14.289
11916POPC   C2292239   7.281   2.543  14.054
11916POPC   H2R92240   7.235   2.642  14.032
11916POPC   H2S92241   7.233   2.468  13.987
11916POPC    C392242   6.915   2.370  14.274
11916POPC    HX92243   6.874   2.303  14.353
11916POPC    HY92244   6.914   2.312  14.178
11916POPC   O3192245   6.833   2.488  14.267
11916POPC   C3192246   6.845   2.562  14.156
11916POPC   O3292247   6.905   2.530  14.055
11916POPC   C3292248   6.757   2.687  14.168
11916POPC   H2X92249   6.705   2.683  14.266
11916POPC   H2Y92250   6.681   2.682  14.088
11916POPC   C2392251   7.434   2.545  14.027
11916POPC   H3R92252   7.483   2.474  14.098
11916POPC   H3S92253   7.475   2.646  14.046
11916POPC   C2492254   7.473   2.495  13.887
11916POPC   H4R92255   7.404   2.412  13.857
11916POPC   H4S92256   7.575   2.452  13.892
11916POPC   C2592257   7.474   2.603  13.778
11916POPC   H5R92258   7.553   2.678  13.802
11916POPC   H5S92259   7.376   2.656  13.775
11916POPC   C2692260   7.503   2.541  13.641
11916POPC   H6R92261   7.425   2.464  13.618
11916POPC   H6S92262   7.600   2.487  13.647
11916POPC   C2792263   7.509   2.638  13.522
11916POPC   H7R92264   7.408   2.676  13.500
11916POPC   H7S92265   7.542   2.579  13.433
11916POPC   C2892266   7.600   2.761  13.541
11916POPC   H8R92267   7.694   2.727  13.590
11916POPC   H8S92268   7.551   2.833  13.611
11916POPC   C2992269   7.631   2.823  13.407
11916POPC   H9192270   7.702   2.764  13.348
11916POPC  C21092271   7.577   2.929  13.347
11916POPC  H10192272   7.613   2.956  13.246
11916POPC  C21192273   7.468   3.017  13.400
11916POPC  H11R92274   7.488   3.124  13.376
11916POPC  H11S92275   7.457   3.009  13.511
11916POPC  C21292276   7.338   2.972  13.332
11916POPC  H12R92277   7.326   2.862  13.336
11916POPC  H12S92278   7.342   2.999  13.224
11916POPC  C21392279   7.214   3.036  13.396
11916POPC  H13R92280   7.243   3.137  13.429
11916POPC  H13S92281   7.183   2.979  13.486
11916POPC  C21492282   7.096   3.049  13.298
11916POPC  H14R92283   7.135   3.084  13.199
11916POPC  H14S92284   7.025   3.126  13.336
11916POPC  C21592285   7.019   2.920  13.277
11916POPC  H15R92286   6.963   2.896  13.370
11916POPC  H15S92287   7.093   2.838  13.257
11916POPC  C21692288   6.922   2.927  13.160
11916POPC  H16R92289   6.920   3.032  13.122
11916POPC  H16S92290   6.819   2.902  13.194
11916POPC  C21792291   6.962   2.833  13.047
11916POPC  H17R92292   6.924   2.731  13.068
11916POPC  H17S92293   7.073   2.827  13.037
11916POPC  C21892294   6.906   2.884  12.916
11916POPC  H18R92295   6.953   2.981  12.888
11916POPC  H18S92296   6.797   2.902  12.930
11916POPC  H18T92297   6.921   2.811  12.834
11916POPC   C3392298   6.838   2.818  14.158
11916POPC   H3X92299   6.925   2.810  14.227
11916POPC   H3Y92300   6.776   2.903  14.196
11916POPC   C3492301   6.889   2.853  14.017
11916POPC   H4X92302   6.924   2.760  13.967
11916POPC   H4Y92303   6.978   2.919  14.030
11916POPC   C3592304   6.790   2.927  13.925
11916POPC   H5X92305   6.761   3.022  13.976
11916POPC   H5Y92306   6.698   2.867  13.909
11916POPC   C3692307   6.852   2.963  13.790
11916POPC   H6X92308   6.963   2.964  13.799
11916POPC   H6Y92309   6.822   3.067  13.762
11916POPC   C3792310   6.814   2.869  13.674
11916POPC   H7X92311   6.847   2.917  13.579
11916POPC   H7Y92312   6.703   2.860  13.671
11916POPC   C3892313   6.877   2.728  13.681
11916POPC   H8X92314   6.851   2.675  13.586
11916POPC   H8Y92315   6.830   2.672  13.764
11916POPC   C3992316   7.030   2.726  13.701
11916POPC   H9X92317   7.049   2.698  13.808
11916POPC   H9Y92318   7.074   2.827  13.685
11916POPC  C31092319   7.107   2.627  13.612
11916POPC  H10X92320   7.044   2.536  13.599
11916POPC  H10Y92321   7.199   2.595  13.666
11916POPC  C31192322   7.149   2.685  13.475
11916POPC  H11X92323   7.226   2.762  13.490
11916POPC  H11Y92324   7.057   2.732  13.436
11916POPC  C31292325   7.191   2.575  13.376
11916POPC  H12X92326   7.094   2.521  13.374
11916POPC  H12Y92327   7.269   2.510  13.419
11916POPC  C31392328   7.213   2.594  13.223
11916POPC  H13X92329   7.126   2.643  13.176
11916POPC  H13Y92330   7.211   2.488  13.185
11916POPC  C31492331   7.345   2.649  13.165
11916POPC  H14X92332   7.428   2.640  13.239
11916POPC  H14Y92333   7.332   2.757  13.141
11916POPC  C31592334   7.384   2.573  13.036
11916POPC  H15X92335   7.293   2.565  12.973
11916POPC  H15Y92336   7.413   2.469  13.064
11916POPC  C31692337   7.496   2.634  12.950
11916POPC  H16X92338   7.591   2.641  13.007
11916POPC  H16Y92339   7.467   2.735  12.915
11916POPC  H16Z92340   7.513   2.571  12.860
11917POPC     N92341   7.636   4.848  14.703
11917POPC   C1292342   7.738   4.847  14.590
11917POPC  H12A92343   7.693   4.895  14.504
11917POPC  H12B92344   7.761   4.745  14.561
11917POPC   C1392345   7.567   4.982  14.710
11917POPC  H13A92346   7.644   5.059  14.701
11917POPC  H13B92347   7.495   4.999  14.632
11917POPC  H13C92348   7.521   5.000  14.807
11917POPC   C1492349   7.536   4.740  14.691
11917POPC  H14A92350   7.483   4.745  14.596
11917POPC  H14B92351   7.584   4.644  14.701
11917POPC  H14C92352   7.462   4.751  14.770
11917POPC   C1592353   7.708   4.837  14.832
11917POPC  H15A92354   7.780   4.920  14.840
11917POPC  H15B92355   7.764   4.745  14.842
11917POPC  H15C92356   7.642   4.847  14.918
11917POPC   C1192357   7.871   4.921  14.619
11917POPC  H11A92358   7.927   4.936  14.524
11917POPC  H11B92359   7.936   4.862  14.687
11917POPC     P92360   7.915   5.178  14.677
11917POPC   O1392361   8.058   5.140  14.693
11917POPC   O1492362   7.856   5.252  14.791
11917POPC   O1292363   7.838   5.043  14.680
11917POPC   O1192364   7.870   5.231  14.535
11917POPC    C192365   7.748   5.182  14.476
11917POPC    HA92366   7.663   5.189  14.548
11917POPC    HB92367   7.760   5.076  14.443
11917POPC    C292368   7.704   5.262  14.351
11917POPC    HS92369   7.598   5.235  14.328
11917POPC   O2192370   7.791   5.236  14.237
11917POPC   C2192371   7.752   5.135  14.159
11917POPC   O2292372   7.659   5.061  14.182
11917POPC   C2292373   7.849   5.124  14.042
11917POPC   H2R92374   7.950   5.104  14.084
11917POPC   H2S92375   7.852   5.221  13.990
11917POPC    C392376   7.703   5.413  14.388
11917POPC    HX92377   7.794   5.440  14.446
11917POPC    HY92378   7.617   5.429  14.457
11917POPC   O3192379   7.682   5.492  14.270
11917POPC   C3192380   7.791   5.540  14.216
11917POPC   O3292381   7.902   5.542  14.266
11917POPC   C3292382   7.756   5.570  14.069
11917POPC   H2X92383   7.767   5.677  14.049
11917POPC   H2Y92384   7.648   5.547  14.054
11917POPC   C2392385   7.814   5.015  13.938
11917POPC   H3R92386   7.717   5.039  13.887
11917POPC   H3S92387   7.804   4.916  13.987
11917POPC   C2492388   7.927   5.009  13.835
11917POPC   H4R92389   8.020   4.987  13.893
11917POPC   H4S92390   7.940   5.108  13.787
11917POPC   C2592391   7.914   4.901  13.726
11917POPC   H5R92392   7.874   4.806  13.768
11917POPC   H5S92393   8.019   4.882  13.695
11917POPC   C2692394   7.836   4.945  13.601
11917POPC   H6R92395   7.869   5.048  13.574
11917POPC   H6S92396   7.728   4.949  13.627
11917POPC   C2792397   7.860   4.856  13.477
11917POPC   H7R92398   7.824   4.753  13.500
11917POPC   H7S92399   7.968   4.850  13.456
11917POPC   C2892400   7.796   4.907  13.347
11917POPC   H8R92401   7.798   4.825  13.271
11917POPC   H8S92402   7.860   4.989  13.306
11917POPC   C2992403   7.655   4.953  13.369
11917POPC   H9192404   7.594   4.886  13.432
11917POPC  C21092405   7.598   5.066  13.324
11917POPC  H10192406   7.495   5.088  13.353
11917POPC  C21192407   7.662   5.173  13.240
11917POPC  H11R92408   7.771   5.180  13.255
11917POPC  H11S92409   7.621   5.271  13.274
11917POPC  C21292410   7.632   5.156  13.090
11917POPC  H12R92411   7.531   5.110  13.077
11917POPC  H12S92412   7.705   5.088  13.043
11917POPC  C21392413   7.630   5.292  13.021
11917POPC  H13R92414   7.729   5.341  13.026
11917POPC  H13S92415   7.556   5.353  13.078
11917POPC  C21492416   7.577   5.291  12.878
11917POPC  H14R92417   7.492   5.219  12.874
11917POPC  H14S92418   7.655   5.255  12.808
11917POPC  C21592419   7.525   5.428  12.833
11917POPC  H15R92420   7.609   5.499  12.834
11917POPC  H15S92421   7.449   5.468  12.904
11917POPC  C21692422   7.464   5.411  12.694
11917POPC  H16R92423   7.390   5.328  12.700
11917POPC  H16S92424   7.545   5.378  12.628
11917POPC  C21792425   7.393   5.528  12.627
11917POPC  H17R92426   7.387   5.508  12.518
11917POPC  H17S92427   7.446   5.624  12.639
11917POPC  C21892428   7.253   5.545  12.681
11917POPC  H18R92429   7.258   5.563  12.790
11917POPC  H18S92430   7.190   5.455  12.661
11917POPC  H18T92431   7.208   5.632  12.631
11917POPC   C3392432   7.836   5.477  13.975
11917POPC   H3X92433   7.763   5.405  13.930
11917POPC   H3Y92434   7.910   5.418  14.033
11917POPC   C3492435   7.915   5.542  13.862
11917POPC   H4X92436   7.999   5.601  13.903
11917POPC   H4Y92437   7.849   5.609  13.802
11917POPC   C3592438   7.972   5.433  13.771
11917POPC   H5X92439   8.021   5.354  13.831
11917POPC   H5Y92440   8.052   5.480  13.708
11917POPC   C3692441   7.863   5.371  13.681
11917POPC   H6X92442   7.791   5.451  13.650
11917POPC   H6Y92443   7.807   5.294  13.739
11917POPC   C3792444   7.921   5.309  13.554
11917POPC   H7X92445   7.840   5.259  13.497
11917POPC   H7Y92446   7.995   5.231  13.585
11917POPC   C3892447   7.990   5.413  13.465
11917POPC   H8X92448   7.978   5.515  13.509
11917POPC   H8Y92449   7.938   5.418  13.367
11917POPC   C3992450   8.139   5.383  13.446
11917POPC   H9X92451   8.189   5.377  13.546
11917POPC   H9Y92452   8.187   5.467  13.391
11917POPC  C31092453   8.164   5.253  13.368
11917POPC  H10X92454   8.134   5.165  13.430
11917POPC  H10Y92455   8.272   5.241  13.348
11917POPC  C31192456   8.083   5.252  13.238
11917POPC  H11X92457   8.088   5.351  13.189
11917POPC  H11Y92458   7.977   5.233  13.265
11917POPC  C31292459   8.125   5.145  13.138
11917POPC  H12X92460   8.136   5.049  13.193
11917POPC  H12Y92461   8.222   5.171  13.091
11917POPC  C31392462   8.018   5.124  13.030
11917POPC  H13X92463   7.917   5.142  13.073
11917POPC  H13Y92464   8.020   5.017  13.000
11917POPC  C31492465   8.037   5.208  12.904
11917POPC  H14X92466   8.143   5.204  12.871
11917POPC  H14Y92467   8.012   5.314  12.925
11917POPC  C31592468   7.949   5.152  12.792
11917POPC  H15X92469   7.845   5.149  12.832
11917POPC  H15Y92470   7.980   5.048  12.769
11917POPC  C31692471   7.951   5.235  12.664
11917POPC  H16X92472   7.895   5.327  12.683
11917POPC  H16Y92473   7.900   5.181  12.580
11917POPC  H16Z92474   8.054   5.262  12.633
11918POPC     N92475   7.707   3.525  14.530
11918POPC   C1292476   7.597   3.418  14.528
11918POPC  H12A92477   7.572   3.394  14.426
11918POPC  H12B92478   7.507   3.462  14.572
11918POPC   C1392479   7.740   3.557  14.673
11918POPC  H13A92480   7.812   3.636  14.679
11918POPC  H13B92481   7.648   3.582  14.727
11918POPC  H13C92482   7.774   3.466  14.722
11918POPC   C1492483   7.835   3.479  14.463
11918POPC  H14A92484   7.820   3.445  14.361
11918POPC  H14B92485   7.909   3.559  14.459
11918POPC  H14C92486   7.878   3.396  14.519
11918POPC   C1592487   7.656   3.651  14.467
11918POPC  H15A92488   7.730   3.731  14.474
11918POPC  H15B92489   7.567   3.685  14.519
11918POPC  H15C92490   7.632   3.638  14.363
11918POPC   C1192491   7.620   3.283  14.604
11918POPC  H11A92492   7.719   3.242  14.576
11918POPC  H11B92493   7.544   3.210  14.568
11918POPC     P92494   7.481   3.351  14.818
11918POPC   O1392495   7.483   3.496  14.795
11918POPC   O1492496   7.475   3.304  14.958
11918POPC   O1292497   7.612   3.293  14.746
11918POPC   O1192498   7.365   3.288  14.731
11918POPC    C192499   7.267   3.373  14.672
11918POPC    HA92500   7.306   3.475  14.646
11918POPC    HB92501   7.183   3.385  14.744
11918POPC    C292502   7.214   3.311  14.542
11918POPC    HS92503   7.151   3.225  14.575
11918POPC   O2192504   7.326   3.267  14.461
11918POPC   C2192505   7.287   3.172  14.376
11918POPC   O2292506   7.171   3.141  14.359
11918POPC   C2292507   7.408   3.094  14.324
11918POPC   H2R92508   7.462   3.058  14.415
11918POPC   H2S92509   7.473   3.162  14.266
11918POPC    C392510   7.125   3.411  14.462
11918POPC    HX92511   7.049   3.451  14.531
11918POPC    HY92512   7.067   3.358  14.383
11918POPC   O3192513   7.201   3.522  14.413
11918POPC   C3192514   7.246   3.506  14.289
11918POPC   O3292515   7.216   3.417  14.213
11918POPC   C3292516   7.343   3.620  14.255
11918POPC   H2X92517   7.385   3.660  14.350
11918POPC   H2Y92518   7.282   3.698  14.208
11918POPC   C2392519   7.365   2.971  14.240
11918POPC   H3R92520   7.267   2.930  14.275
11918POPC   H3S92521   7.439   2.890  14.255
11918POPC   C2492522   7.359   3.000  14.089
11918POPC   H4R92523   7.327   2.906  14.038
11918POPC   H4S92524   7.460   3.027  14.052
11918POPC   C2592525   7.258   3.111  14.049
11918POPC   H5R92526   7.284   3.206  14.099
11918POPC   H5S92527   7.158   3.080  14.088
11918POPC   C2692528   7.249   3.137  13.898
11918POPC   H6R92529   7.274   3.042  13.845
11918POPC   H6S92530   7.323   3.212  13.866
11918POPC   C2792531   7.108   3.179  13.851
11918POPC   H7R92532   7.035   3.119  13.910
11918POPC   H7S92533   7.095   3.152  13.744
11918POPC   C2892534   7.068   3.326  13.871
11918POPC   H8R92535   7.069   3.343  13.982
11918POPC   H8S92536   6.962   3.337  13.840
11918POPC   C2992537   7.149   3.437  13.807
11918POPC   H9192538   7.177   3.514  13.880
11918POPC  C21092539   7.186   3.460  13.680
11918POPC  H10192540   7.245   3.551  13.661
11918POPC  C21192541   7.157   3.381  13.554
11918POPC  H11R92542   7.054   3.402  13.522
11918POPC  H11S92543   7.167   3.272  13.572
11918POPC  C21292544   7.252   3.425  13.441
11918POPC  H12R92545   7.351   3.377  13.459
11918POPC  H12S92546   7.266   3.535  13.445
11918POPC  C21392547   7.206   3.392  13.297
11918POPC  H13R92548   7.124   3.461  13.266
11918POPC  H13S92549   7.163   3.291  13.297
11918POPC  C21492550   7.320   3.396  13.194
11918POPC  H14R92551   7.418   3.383  13.247
11918POPC  H14S92552   7.322   3.496  13.145
11918POPC  C21592553   7.312   3.286  13.087
11918POPC  H15R92554   7.210   3.286  13.042
11918POPC  H15S92555   7.327   3.188  13.136
11918POPC  C21692556   7.417   3.303  12.975
11918POPC  H16R92557   7.519   3.301  13.019
11918POPC  H16S92558   7.402   3.403  12.929
11918POPC  C21792559   7.407   3.196  12.864
11918POPC  H17R92560   7.469   3.230  12.778
11918POPC  H17S92561   7.301   3.191  12.829
11918POPC  C21892562   7.454   3.056  12.905
11918POPC  H18R92563   7.445   2.986  12.819
11918POPC  H18S92564   7.392   3.016  12.989
11918POPC  H18T92565   7.560   3.059  12.938
11918POPC   C3392566   7.458   3.581  14.159
11918POPC   H3X92567   7.504   3.484  14.190
11918POPC   H3Y92568   7.537   3.659  14.162
11918POPC   C3492569   7.409   3.572  14.014
11918POPC   H4X92570   7.365   3.670  13.984
11918POPC   H4Y92571   7.328   3.496  14.010
11918POPC   C3592572   7.514   3.531  13.910
11918POPC   H5X92573   7.596   3.605  13.905
11918POPC   H5Y92574   7.462   3.532  13.811
11918POPC   C3692575   7.572   3.391  13.935
11918POPC   H6X92576   7.488   3.318  13.945
11918POPC   H6Y92577   7.627   3.392  14.031
11918POPC   C3792578   7.669   3.342  13.826
11918POPC   H7X92579   7.710   3.243  13.855
11918POPC   H7Y92580   7.755   3.413  13.824
11918POPC   C3892581   7.609   3.330  13.684
11918POPC   H8X92582   7.529   3.405  13.668
11918POPC   H8Y92583   7.559   3.230  13.675
11918POPC   C3992584   7.712   3.347  13.571
11918POPC   H9X92585   7.660   3.329  13.474
11918POPC   H9Y92586   7.790   3.269  13.582
11918POPC  C31092587   7.780   3.485  13.565
11918POPC  H10X92588   7.848   3.487  13.477
11918POPC  H10Y92589   7.845   3.498  13.655
11918POPC  C31192590   7.685   3.607  13.556
11918POPC  H11X92591   7.748   3.699  13.552
11918POPC  H11Y92592   7.624   3.614  13.649
11918POPC  C31292593   7.593   3.603  13.434
11918POPC  H12X92594   7.512   3.530  13.453
11918POPC  H12Y92595   7.651   3.564  13.347
11918POPC  C31392596   7.532   3.739  13.393
11918POPC  H13X92597   7.614   3.808  13.365
11918POPC  H13Y92598   7.478   3.782  13.479
11918POPC  C31492599   7.436   3.722  13.275
11918POPC  H14X92600   7.349   3.662  13.308
11918POPC  H14Y92601   7.487   3.665  13.194
11918POPC  C31592602   7.381   3.852  13.214
11918POPC  H15X92603   7.463   3.908  13.165
11918POPC  H15Y92604   7.338   3.916  13.295
11918POPC  C31692605   7.271   3.821  13.112
11918POPC  H16X92606   7.184   3.775  13.162
11918POPC  H16Y92607   7.308   3.749  13.036
11918POPC  H16Z92608   7.236   3.912  13.059
11919POPC     N92609   1.551   4.042  14.843
11919POPC   C1292610   1.465   3.917  14.834
11919POPC  H12A92611   1.424   3.894  14.931
11919POPC  H12B92612   1.530   3.836  14.801
11919POPC   C1392613   1.615   4.075  14.712
11919POPC  H13A92614   1.673   4.168  14.716
11919POPC  H13B92615   1.679   3.996  14.674
11919POPC  H13C92616   1.540   4.088  14.633
11919POPC   C1492617   1.471   4.160  14.887
11919POPC  H14A92618   1.401   4.188  14.810
11919POPC  H14B92619   1.415   4.142  14.978
11919POPC  H14C92620   1.537   4.244  14.908
11919POPC   C1592621   1.659   4.021  14.945
11919POPC  H15A92622   1.737   3.957  14.907
11919POPC  H15B92623   1.619   3.976  15.035
11919POPC  H15C92624   1.703   4.117  14.970
11919POPC   C1192625   1.352   3.917  14.731
11919POPC  H11A92626   1.291   4.011  14.740
11919POPC  H11B92627   1.282   3.832  14.750
11919POPC     P92628   1.342   3.957  14.476
11919POPC   O1392629   1.199   3.971  14.510
11919POPC   O1492630   1.383   3.879  14.358
11919POPC   O1292631   1.414   3.899  14.605
11919POPC   O1192632   1.409   4.101  14.474
11919POPC    C192633   1.351   4.215  14.538
11919POPC    HA92634   1.366   4.210  14.647
11919POPC    HB92635   1.240   4.218  14.520
11919POPC    C292636   1.407   4.350  14.484
11919POPC    HS92637   1.333   4.431  14.503
11919POPC   O2192638   1.430   4.336  14.344
11919POPC   C2192639   1.321   4.326  14.273
11919POPC   O2292640   1.211   4.365  14.309
11919POPC   C2292641   1.359   4.285  14.132
11919POPC   H2R92642   1.292   4.202  14.100
11919POPC   H2S92643   1.463   4.248  14.133
11919POPC    C392644   1.539   4.402  14.553
11919POPC    HX92645   1.516   4.419  14.661
11919POPC    HY92646   1.565   4.503  14.513
11919POPC   O3192647   1.650   4.311  14.546
11919POPC   C3192648   1.712   4.315  14.428
11919POPC   O3292649   1.688   4.395  14.340
11919POPC   C3292650   1.817   4.205  14.421
11919POPC   H2X92651   1.840   4.169  14.523
11919POPC   H2Y92652   1.910   4.249  14.378
11919POPC   C2392653   1.347   4.409  14.042
11919POPC   H3R92654   1.380   4.500  14.097
11919POPC   H3S92655   1.240   4.422  14.015
11919POPC   C2492656   1.434   4.400  13.916
11919POPC   H4R92657   1.535   4.363  13.942
11919POPC   H4S92658   1.446   4.503  13.876
11919POPC   C2592659   1.370   4.312  13.808
11919POPC   H5R92660   1.263   4.340  13.798
11919POPC   H5S92661   1.374   4.206  13.840
11919POPC   C2692662   1.437   4.330  13.671
11919POPC   H6R92663   1.540   4.289  13.676
11919POPC   H6S92664   1.446   4.438  13.648
11919POPC   C2792665   1.357   4.260  13.560
11919POPC   H7R92666   1.256   4.307  13.551
11919POPC   H7S92667   1.340   4.155  13.593
11919POPC   C2892668   1.428   4.256  13.424
11919POPC   H8R92669   1.382   4.171  13.368
11919POPC   H8S92670   1.535   4.230  13.440
11919POPC   C2992671   1.411   4.380  13.339
11919POPC   H9192672   1.311   4.426  13.344
11919POPC  C21092673   1.504   4.437  13.261
11919POPC  H10192674   1.478   4.529  13.207
11919POPC  C21192675   1.646   4.390  13.239
11919POPC  H11R92676   1.695   4.368  13.337
11919POPC  H11S92677   1.704   4.472  13.190
11919POPC  C21292678   1.667   4.266  13.153
11919POPC  H12R92679   1.613   4.278  13.057
11919POPC  H12S92680   1.626   4.179  13.209
11919POPC  C21392681   1.816   4.239  13.125
11919POPC  H13R92682   1.866   4.221  13.223
11919POPC  H13S92683   1.863   4.329  13.079
11919POPC  C21492684   1.843   4.117  13.035
11919POPC  H14R92685   1.790   4.030  13.080
11919POPC  H14S92686   1.952   4.093  13.038
11919POPC  C21592687   1.802   4.131  12.888
11919POPC  H15R92688   1.693   4.149  12.880
11919POPC  H15S92689   1.826   4.035  12.836
11919POPC  C21692690   1.873   4.244  12.813
11919POPC  H16R92691   1.980   4.244  12.844
11919POPC  H16S92692   1.828   4.341  12.844
11919POPC  C21792693   1.866   4.230  12.660
11919POPC  H17R92694   1.909   4.131  12.633
11919POPC  H17S92695   1.930   4.308  12.614
11919POPC  C21892696   1.726   4.242  12.598
11919POPC  H18R92697   1.685   4.344  12.613
11919POPC  H18S92698   1.656   4.169  12.645
11919POPC  H18T92699   1.730   4.221  12.489
11919POPC   C3392700   1.768   4.089  14.332
11919POPC   H3X92701   1.670   4.051  14.368
11919POPC   H3Y92702   1.842   4.006  14.337
11919POPC   C3492703   1.755   4.135  14.186
11919POPC   H4X92704   1.855   4.169  14.150
11919POPC   H4Y92705   1.685   4.221  14.179
11919POPC   C3592706   1.702   4.028  14.092
11919POPC   H5X92707   1.606   3.986  14.132
11919POPC   H5Y92708   1.776   3.945  14.086
11919POPC   C3692709   1.677   4.084  13.951
11919POPC   H6X92710   1.764   4.145  13.918
11919POPC   H6Y92711   1.588   4.151  13.956
11919POPC   C3792712   1.652   3.971  13.852
11919POPC   H7X92713   1.572   3.906  13.895
11919POPC   H7Y92714   1.745   3.911  13.842
11919POPC   C3892715   1.607   4.017  13.713
11919POPC   H8X92716   1.680   4.090  13.671
11919POPC   H8Y92717   1.509   4.067  13.723
11919POPC   C3992718   1.594   3.897  13.620
11919POPC   H9X92719   1.528   3.821  13.668
11919POPC   H9Y92720   1.695   3.850  13.609
11919POPC  C31092721   1.539   3.932  13.482
11919POPC  H10X92722   1.605   4.009  13.437
11919POPC  H10Y92723   1.437   3.976  13.492
11919POPC  C31192724   1.533   3.811  13.389
11919POPC  H11X92725   1.434   3.761  13.397
11919POPC  H11Y92726   1.610   3.737  13.423
11919POPC  C31292727   1.564   3.847  13.243
11919POPC  H12X92728   1.582   3.752  13.186
11919POPC  H12Y92729   1.659   3.906  13.240
11919POPC  C31392730   1.452   3.925  13.174
11919POPC  H13X92731   1.418   4.007  13.241
11919POPC  H13Y92732   1.366   3.857  13.159
11919POPC  C31492733   1.491   3.988  13.039
11919POPC  H14X92734   1.545   4.082  13.056
11919POPC  H14Y92735   1.398   4.017  12.985
11919POPC  C31592736   1.581   3.904  12.948
11919POPC  H15X92737   1.676   3.877  12.997
11919POPC  H15Y92738   1.606   3.965  12.857
11919POPC  C31692739   1.510   3.782  12.898
11919POPC  H16X92740   1.415   3.819  12.855
11919POPC  H16Y92741   1.488   3.713  12.983
11919POPC  H16Z92742   1.567   3.728  12.820
11920POPC     N92743   6.793   2.201  14.715
11920POPC   C1292744   6.665   2.248  14.649
11920POPC  H12A92745   6.689   2.306  14.560
11920POPC  H12B92746   6.613   2.314  14.718
11920POPC   C1392747   6.764   2.167  14.858
11920POPC  H13A92748   6.736   2.256  14.913
11920POPC  H13B92749   6.677   2.100  14.860
11920POPC  H13C92750   6.846   2.119  14.909
11920POPC   C1492751   6.842   2.078  14.643
11920POPC  H14A92752   6.755   2.012  14.631
11920POPC  H14B92753   6.876   2.103  14.544
11920POPC  H14C92754   6.915   2.023  14.701
11920POPC   C1592755   6.893   2.312  14.714
11920POPC  H15A92756   6.985   2.282  14.761
11920POPC  H15B92757   6.856   2.398  14.770
11920POPC  H15C92758   6.912   2.347  14.613
11920POPC   C1192759   6.564   2.139  14.607
11920POPC  H11A92760   6.603   2.089  14.515
11920POPC  H11B92761   6.466   2.186  14.580
11920POPC     P92762   6.479   1.907  14.682
11920POPC   O1392763   6.342   1.930  14.632
11920POPC   O1492764   6.492   1.811  14.793
11920POPC   O1292765   6.547   2.046  14.714
11920POPC   O1192766   6.572   1.852  14.567
11920POPC    C192767   6.515   1.766  14.465
11920POPC    HA92768   6.404   1.767  14.471
11920POPC    HB92769   6.548   1.661  14.479
11920POPC    C292770   6.542   1.810  14.317
11920POPC    HS92771   6.643   1.772  14.288
11920POPC   O2192772   6.538   1.953  14.315
11920POPC   C2192773   6.598   2.008  14.213
11920POPC   O2292774   6.665   1.951  14.129
11920POPC   C2292775   6.571   2.157  14.217
11920POPC   H2R92776   6.659   2.204  14.265
11920POPC   H2S92777   6.481   2.178  14.280
11920POPC    C392778   6.433   1.748  14.222
11920POPC    HX92779   6.336   1.785  14.262
11920POPC    HY92780   6.437   1.638  14.235
11920POPC   O3192781   6.442   1.784  14.082
11920POPC   C3192782   6.337   1.738  14.011
11920POPC   O3292783   6.250   1.666  14.055
11920POPC   C3292784   6.344   1.792  13.870
11920POPC   H2X92785   6.367   1.706  13.803
11920POPC   H2Y92786   6.427   1.865  13.863
11920POPC   C2392787   6.551   2.212  14.075
11920POPC   H3R92788   6.447   2.192  14.039
11920POPC   H3S92789   6.621   2.162  14.005
11920POPC   C2492790   6.580   2.362  14.069
11920POPC   H4R92791   6.654   2.385  14.148
11920POPC   H4S92792   6.489   2.420  14.091
11920POPC   C2592793   6.640   2.401  13.934
11920POPC   H5R92794   6.733   2.342  13.916
11920POPC   H5S92795   6.669   2.509  13.936
11920POPC   C2692796   6.542   2.379  13.819
11920POPC   H6R92797   6.454   2.445  13.837
11920POPC   H6S92798   6.506   2.274  13.817
11920POPC   C2792799   6.605   2.413  13.683
11920POPC   H7R92800   6.643   2.319  13.635
11920POPC   H7S92801   6.693   2.479  13.699
11920POPC   C2892802   6.507   2.486  13.589
11920POPC   H8R92803   6.561   2.508  13.495
11920POPC   H8S92804   6.483   2.584  13.636
11920POPC   C2992805   6.380   2.407  13.566
11920POPC   H9192806   6.326   2.378  13.657
11920POPC  C21092807   6.331   2.364  13.449
11920POPC  H10192808   6.240   2.302  13.450
11920POPC  C21192809   6.392   2.385  13.313
11920POPC  H11R92810   6.462   2.472  13.309
11920POPC  H11S92811   6.313   2.404  13.237
11920POPC  C21292812   6.468   2.255  13.284
11920POPC  H12R92813   6.397   2.169  13.284
11920POPC  H12S92814   6.542   2.239  13.366
11920POPC  C21392815   6.546   2.252  13.153
11920POPC  H13R92816   6.582   2.149  13.138
11920POPC  H13S92817   6.635   2.318  13.161
11920POPC  C21492818   6.466   2.291  13.028
11920POPC  H14R92819   6.533   2.273  12.940
11920POPC  H14S92820   6.446   2.400  13.032
11920POPC  C21592821   6.333   2.215  13.007
11920POPC  H15R92822   6.268   2.233  13.095
11920POPC  H15S92823   6.354   2.106  13.001
11920POPC  C21692824   6.263   2.264  12.880
11920POPC  H16R92825   6.336   2.258  12.797
11920POPC  H16S92826   6.239   2.371  12.897
11920POPC  C21792827   6.133   2.200  12.829
11920POPC  H17R92828   6.069   2.283  12.789
11920POPC  H17S92829   6.074   2.155  12.911
11920POPC  C21892830   6.159   2.100  12.716
11920POPC  H18R92831   6.072   2.084  12.651
11920POPC  H18S92832   6.187   2.002  12.758
11920POPC  H18T92833   6.240   2.137  12.650
11920POPC   C3392834   6.212   1.860  13.830
11920POPC   H3X92835   6.201   1.953  13.886
11920POPC   H3Y92836   6.124   1.795  13.853
11920POPC   C3492837   6.206   1.904  13.685
11920POPC   H4X92838   6.302   1.953  13.663
11920POPC   H4Y92839   6.130   1.983  13.671
11920POPC   C3592840   6.173   1.782  13.599
11920POPC   H5X92841   6.065   1.770  13.609
11920POPC   H5Y92842   6.218   1.691  13.645
11920POPC   C3692843   6.214   1.785  13.452
11920POPC   H6X92844   6.133   1.830  13.392
11920POPC   H6Y92845   6.225   1.681  13.415
11920POPC   C3792846   6.345   1.860  13.430
11920POPC   H7X92847   6.330   1.968  13.452
11920POPC   H7Y92848   6.368   1.855  13.321
11920POPC   C3892849   6.460   1.806  13.517
11920POPC   H8X92850   6.524   1.736  13.462
11920POPC   H8Y92851   6.418   1.744  13.599
11920POPC   C3992852   6.540   1.917  13.587
11920POPC   H9X92853   6.552   1.891  13.695
11920POPC   H9Y92854   6.486   2.014  13.584
11920POPC  C31092855   6.680   1.936  13.532
11920POPC  H10X92856   6.743   1.848  13.557
11920POPC  H10Y92857   6.719   2.024  13.589
11920POPC  C31192858   6.690   1.968  13.384
11920POPC  H11X92859   6.795   1.999  13.366
11920POPC  H11Y92860   6.624   2.054  13.359
11920POPC  C31292861   6.663   1.855  13.285
11920POPC  H12X92862   6.555   1.841  13.269
11920POPC  H12Y92863   6.704   1.759  13.323
11920POPC  C31392864   6.724   1.890  13.150
11920POPC  H13X92865   6.834   1.878  13.156
11920POPC  H13Y92866   6.706   1.998  13.131
11920POPC  C31492867   6.666   1.810  13.034
11920POPC  H14X92868   6.564   1.846  13.010
11920POPC  H14Y92869   6.655   1.705  13.066
11920POPC  C31592870   6.757   1.823  12.913
11920POPC  H15X92871   6.712   1.773  12.825
11920POPC  H15Y92872   6.854   1.771  12.934
11920POPC  C31692873   6.789   1.969  12.883
11920POPC  H16X92874   6.705   2.038  12.898
11920POPC  H16Y92875   6.827   1.981  12.780
11920POPC  H16Z92876   6.863   2.005  12.957
11921POPC     N92877   3.278   1.469  14.648
11921POPC   C1292878   3.323   1.593  14.573
11921POPC  H12A92879   3.280   1.680  14.622
11921POPC  H12B92880   3.286   1.589  14.472
11921POPC   C1392881   3.132   1.448  14.626
11921POPC  H13A92882   3.100   1.358  14.677
11921POPC  H13B92883   3.074   1.530  14.668
11921POPC  H13C92884   3.111   1.439  14.520
11921POPC   C1492885   3.353   1.350  14.597
11921POPC  H14A92886   3.324   1.260  14.651
11921POPC  H14B92887   3.336   1.334  14.492
11921POPC  H14C92888   3.460   1.364  14.610
11921POPC   C1592889   3.306   1.484  14.796
11921POPC  H15A92890   3.415   1.492  14.811
11921POPC  H15B92891   3.267   1.401  14.853
11921POPC  H15C92892   3.262   1.574  14.835
11921POPC   C1192893   3.475   1.621  14.563
11921POPC  H11A92894   3.488   1.710  14.497
11921POPC  H11B92895   3.526   1.535  14.513
11921POPC     P92896   3.684   1.686  14.698
11921POPC   O1392897   3.755   1.592  14.788
11921POPC   O1492898   3.691   1.830  14.733
11921POPC   O1292899   3.530   1.645  14.693
11921POPC   O1192900   3.732   1.665  14.550
11921POPC    C192901   3.862   1.697  14.501
11921POPC    HA92902   3.879   1.639  14.407
11921POPC    HB92903   3.940   1.667  14.572
11921POPC    C292904   3.872   1.848  14.463
11921POPC    HS92905   3.850   1.904  14.557
11921POPC   O2192906   3.774   1.871  14.361
11921POPC   C2192907   3.697   1.976  14.378
11921POPC   O2292908   3.707   2.057  14.468
11921POPC   C2292909   3.587   1.978  14.273
11921POPC   H2R92910   3.535   2.075  14.279
11921POPC   H2S92911   3.516   1.897  14.300
11921POPC    C392912   4.012   1.891  14.412
11921POPC    HX92913   4.085   1.878  14.494
11921POPC    HY92914   4.011   2.001  14.389
11921POPC   O3192915   4.055   1.809  14.300
11921POPC   C3192916   4.015   1.858  14.181
11921POPC   O3292917   3.964   1.967  14.164
11921POPC   C3292918   4.045   1.760  14.068
11921POPC   H2X92919   3.992   1.665  14.089
11921POPC   H2Y92920   4.154   1.741  14.067
11921POPC   C2392921   3.640   1.955  14.130
11921POPC   H3R92922   3.725   1.884  14.129
11921POPC   H3S92923   3.678   2.052  14.089
11921POPC   C2492924   3.533   1.895  14.040
11921POPC   H4R92925   3.437   1.946  14.058
11921POPC   H4S92926   3.520   1.788  14.070
11921POPC   C2592927   3.571   1.908  13.893
11921POPC   H5R92928   3.673   1.865  13.879
11921POPC   H5S92929   3.575   2.017  13.870
11921POPC   C2692930   3.475   1.844  13.793
11921POPC   H6R92931   3.529   1.823  13.698
11921POPC   H6S92932   3.396   1.918  13.768
11921POPC   C2792933   3.408   1.716  13.844
11921POPC   H7R92934   3.344   1.741  13.932
11921POPC   H7S92935   3.486   1.645  13.878
11921POPC   C2892936   3.320   1.646  13.739
11921POPC   H8R92937   3.270   1.559  13.787
11921POPC   H8S92938   3.388   1.604  13.661
11921POPC   C2992939   3.217   1.741  13.682
11921POPC   H9192940   3.172   1.810  13.755
11921POPC  C21092941   3.183   1.749  13.553
11921POPC  H10192942   3.107   1.823  13.521
11921POPC  C21192943   3.243   1.664  13.444
11921POPC  H11R92944   3.179   1.666  13.353
11921POPC  H11S92945   3.250   1.558  13.477
11921POPC  C21292946   3.382   1.714  13.404
11921POPC  H12R92947   3.418   1.644  13.324
11921POPC  H12S92948   3.455   1.707  13.487
11921POPC  C21392949   3.380   1.858  13.352
11921POPC  H13R92950   3.386   1.930  13.437
11921POPC  H13S92951   3.284   1.877  13.299
11921POPC  C21492952   3.493   1.884  13.253
11921POPC  H14R92953   3.591   1.865  13.303
11921POPC  H14S92954   3.492   1.991  13.224
11921POPC  C21592955   3.480   1.795  13.129
11921POPC  H15R92956   3.374   1.763  13.119
11921POPC  H15S92957   3.539   1.702  13.143
11921POPC  C21692958   3.522   1.866  13.001
11921POPC  H16R92959   3.534   1.793  12.918
11921POPC  H16S92960   3.620   1.914  13.019
11921POPC  C21792961   3.424   1.973  12.957
11921POPC  H17R92962   3.453   2.067  13.010
11921POPC  H17S92963   3.322   1.945  12.993
11921POPC  C21892964   3.418   1.999  12.807
11921POPC  H18R92965   3.473   1.922  12.750
11921POPC  H18S92966   3.461   2.097  12.782
11921POPC  H18T92967   3.312   1.999  12.773
11921POPC   C3392968   4.001   1.818  13.931
11921POPC   H3X92969   4.058   1.911  13.907
11921POPC   H3Y92970   3.893   1.845  13.936
11921POPC   C3492971   4.017   1.719  13.814
11921POPC   H4X92972   3.968   1.623  13.841
11921POPC   H4Y92973   4.125   1.699  13.796
11921POPC   C3592974   3.951   1.771  13.685
11921POPC   H5X92975   4.004   1.863  13.649
11921POPC   H5Y92976   3.845   1.797  13.709
11921POPC   C3692977   3.950   1.671  13.570
11921POPC   H6X92978   3.927   1.571  13.614
11921POPC   H6Y92979   4.052   1.669  13.529
11921POPC   C3792980   3.846   1.696  13.458
11921POPC   H7X92981   3.764   1.761  13.493
11921POPC   H7Y92982   3.800   1.597  13.441
11921POPC   C3892983   3.900   1.747  13.322
11921POPC   H8X92984   4.008   1.728  13.311
11921POPC   H8Y92985   3.892   1.858  13.319
11921POPC   C3992986   3.820   1.683  13.207
11921POPC   H9X92987   3.734   1.751  13.188
11921POPC   H9Y92988   3.781   1.586  13.243
11921POPC  C31092989   3.886   1.653  13.071
11921POPC  H10X92990   3.959   1.570  13.080
11921POPC  H10Y92991   3.940   1.742  13.033
11921POPC  C31192992   3.780   1.611  12.968
11921POPC  H11X92993   3.825   1.612  12.867
11921POPC  H11Y92994   3.702   1.690  12.967
11921POPC  C31292995   3.712   1.475  12.999
11921POPC  H12X92996   3.676   1.476  13.104
11921POPC  H12Y92997   3.787   1.394  12.989
11921POPC  C31392998   3.590   1.443  12.911
11921POPC  H13X92999   3.527   1.533  12.909
11921POPC  H13Y93000   3.531   1.361  12.958
11921POPC  C31493001   3.629   1.409  12.766
11921POPC  H14X93002   3.661   1.303  12.758
11921POPC  H14Y93003   3.720   1.470  12.756
11921POPC  C31593004   3.539   1.453  12.649
11921POPC  H15X93005   3.597   1.437  12.555
11921POPC  H15Y93006   3.524   1.563  12.658
11921POPC  C31693007   3.403   1.384  12.632
11921POPC  H16X93008   3.353   1.375  12.731
11921POPC  H16Y93009   3.415   1.282  12.589
11921POPC  H16Z93010   3.335   1.441  12.564
11922POPC     N93011   2.041   2.261  14.688
11922POPC   C1293012   2.141   2.260  14.572
11922POPC  H12A93013   2.088   2.235  14.481
11922POPC  H12B93014   2.214   2.181  14.587
11922POPC   C1393015   2.104   2.310  14.814
11922POPC  H13A93016   2.186   2.245  14.844
11922POPC  H13B93017   2.151   2.407  14.797
11922POPC  H13C93018   2.033   2.318  14.895
11922POPC   C1493019   1.926   2.354  14.658
11922POPC  H14A93020   1.848   2.340  14.732
11922POPC  H14B93021   1.963   2.456  14.661
11922POPC  H14C93022   1.884   2.334  14.561
11922POPC   C1593023   1.986   2.123  14.710
11922POPC  H15A93024   2.062   2.051  14.735
11922POPC  H15B93025   1.930   2.086  14.625
11922POPC  H15C93026   1.917   2.124  14.794
11922POPC   C1193027   2.222   2.389  14.547
11922POPC  H11A93028   2.154   2.478  14.545
11922POPC  H11B93029   2.273   2.382  14.449
11922POPC     P93030   2.384   2.534  14.700
11922POPC   O1393031   2.475   2.490  14.808
11922POPC   O1493032   2.271   2.620  14.741
11922POPC   O1293033   2.321   2.401  14.646
11922POPC   O1193034   2.465   2.599  14.582
11922POPC    C193035   2.405   2.708  14.514
11922POPC    HA93036   2.476   2.793  14.522
11922POPC    HB93037   2.314   2.751  14.560
11922POPC    C293038   2.378   2.672  14.367
11922POPC    HS93039   2.392   2.763  14.309
11922POPC   O2193040   2.247   2.617  14.344
11922POPC   C2193041   2.143   2.695  14.363
11922POPC   O2293042   2.141   2.804  14.417
11922POPC   C2293043   2.021   2.627  14.299
11922POPC   H2R93044   1.936   2.699  14.307
11922POPC   H2S93045   1.998   2.536  14.357
11922POPC    C393046   2.479   2.573  14.305
11922POPC    HX93047   2.451   2.467  14.328
11922POPC    HY93048   2.577   2.591  14.355
11922POPC   O3193049   2.491   2.603  14.164
11922POPC   C3193050   2.427   2.524  14.080
11922POPC   O3293051   2.364   2.424  14.109
11922POPC   C3293052   2.447   2.574  13.935
11922POPC   H2X93053   2.540   2.634  13.930
11922POPC   H2Y93054   2.361   2.640  13.911
11922POPC   C2393055   2.047   2.592  14.151
11922POPC   H3R93056   2.138   2.527  14.144
11922POPC   H3S93057   2.069   2.685  14.094
11922POPC   C2493058   1.931   2.516  14.085
11922POPC   H4R93059   1.840   2.580  14.087
11922POPC   H4S93060   1.911   2.424  14.144
11922POPC   C2593061   1.960   2.477  13.939
11922POPC   H5R93062   1.878   2.410  13.904
11922POPC   H5S93063   2.055   2.420  13.933
11922POPC   C2693064   1.968   2.599  13.847
11922POPC   H6R93065   2.055   2.662  13.875
11922POPC   H6S93066   1.876   2.659  13.863
11922POPC   C2793067   1.978   2.564  13.697
11922POPC   H7R93068   1.917   2.474  13.675
11922POPC   H7S93069   2.084   2.538  13.674
11922POPC   C2893070   1.929   2.678  13.605
11922POPC   H8R93071   1.818   2.674  13.602
11922POPC   H8S93072   1.963   2.656  13.501
11922POPC   C2993073   1.974   2.814  13.651
11922POPC   H9193074   1.901   2.869  13.712
11922POPC  C21093075   2.095   2.868  13.633
11922POPC  H10193076   2.116   2.969  13.672
11922POPC  C21193077   2.209   2.800  13.562
11922POPC  H11R93078   2.183   2.696  13.536
11922POPC  H11S93079   2.297   2.794  13.630
11922POPC  C21293080   2.253   2.873  13.433
11922POPC  H12R93081   2.339   2.819  13.387
11922POPC  H12S93082   2.289   2.974  13.464
11922POPC  C21393083   2.143   2.891  13.328
11922POPC  H13R93084   2.176   2.963  13.251
11922POPC  H13S93085   2.053   2.936  13.377
11922POPC  C21493086   2.102   2.762  13.258
11922POPC  H14R93087   2.095   2.678  13.330
11922POPC  H14S93088   2.180   2.735  13.183
11922POPC  C21593089   1.967   2.779  13.188
11922POPC  H15R93090   1.978   2.860  13.113
11922POPC  H15S93091   1.891   2.810  13.263
11922POPC  C21693092   1.917   2.653  13.117
11922POPC  H16R93093   1.818   2.676  13.073
11922POPC  H16S93094   1.901   2.573  13.193
11922POPC  C21793095   2.009   2.603  13.006
11922POPC  H17R93096   2.094   2.554  13.057
11922POPC  H17S93097   2.048   2.690  12.950
11922POPC  C21893098   1.947   2.504  12.907
11922POPC  H18R93099   1.912   2.413  12.959
11922POPC  H18S93100   2.022   2.474  12.830
11922POPC  H18T93101   1.861   2.551  12.854
11922POPC   C3393102   2.454   2.458  13.832
11922POPC   H3X93103   2.365   2.392  13.847
11922POPC   H3Y93104   2.545   2.397  13.851
11922POPC   C3493105   2.454   2.502  13.685
11922POPC   H4X93106   2.541   2.569  13.666
11922POPC   H4Y93107   2.362   2.560  13.664
11922POPC   C3593108   2.463   2.381  13.589
11922POPC   H5X93109   2.383   2.308  13.614
11922POPC   H5Y93110   2.560   2.329  13.610
11922POPC   C3693111   2.458   2.415  13.439
11922POPC   H6X93112   2.486   2.325  13.381
11922POPC   H6Y93113   2.534   2.493  13.417
11922POPC   C3793114   2.322   2.465  13.389
11922POPC   H7X93115   2.332   2.497  13.283
11922POPC   H7Y93116   2.295   2.556  13.446
11922POPC   C3893117   2.208   2.363  13.400
11922POPC   H8X93118   2.113   2.412  13.369
11922POPC   H8Y93119   2.196   2.333  13.506
11922POPC   C3993120   2.228   2.238  13.313
11922POPC   H9X93121   2.141   2.170  13.326
11922POPC   H9Y93122   2.318   2.182  13.348
11922POPC  C31093123   2.245   2.268  13.163
11922POPC  H10X93124   2.343   2.319  13.147
11922POPC  H10Y93125   2.165   2.338  13.130
11922POPC  C31193126   2.239   2.141  13.079
11922POPC  H11X93127   2.135   2.101  13.087
11922POPC  H11Y93128   2.308   2.065  13.121
11922POPC  C31293129   2.273   2.162  12.931
11922POPC  H12X93130   2.228   2.257  12.895
11922POPC  H12Y93131   2.226   2.080  12.872
11922POPC  C31393132   2.423   2.160  12.901
11922POPC  H13X93133   2.471   2.070  12.946
11922POPC  H13Y93134   2.469   2.249  12.949
11922POPC  C31493135   2.451   2.161  12.750
11922POPC  H14X93136   2.374   2.226  12.702
11922POPC  H14Y93137   2.437   2.059  12.708
11922POPC  C31593138   2.589   2.217  12.712
11922POPC  H15X93139   2.632   2.269  12.801
11922POPC  H15Y93140   2.574   2.294  12.633
11922POPC  C31693141   2.690   2.116  12.662
11922POPC  H16X93142   2.670   2.090  12.557
11922POPC  H16Y93143   2.689   2.024  12.724
11922POPC  H16Z93144   2.792   2.160  12.663
11923POPC     N93145   5.305   1.213  14.783
11923POPC   C1293146   5.179   1.198  14.699
11923POPC  H12A93147   5.095   1.185  14.765
11923POPC  H12B93148   5.193   1.106  14.642
11923POPC   C1393149   5.300   1.336  14.867
11923POPC  H13A93150   5.373   1.334  14.946
11923POPC  H13B93151   5.321   1.421  14.800
11923POPC  H13C93152   5.200   1.354  14.906
11923POPC   C1493153   5.322   1.093  14.871
11923POPC  H14A93154   5.230   1.066  14.922
11923POPC  H14B93155   5.356   1.008  14.812
11923POPC  H14C93156   5.396   1.111  14.948
11923POPC   C1593157   5.426   1.223  14.693
11923POPC  H15A93158   5.401   1.195  14.592
11923POPC  H15B93159   5.504   1.155  14.724
11923POPC  H15C93160   5.463   1.325  14.688
11923POPC   C1193161   5.138   1.314  14.604
11923POPC  H11A93162   5.051   1.280  14.542
11923POPC  H11B93163   5.220   1.330  14.531
11923POPC     P93164   5.180   1.569  14.668
11923POPC   O1393165   5.325   1.539  14.652
11923POPC   O1493166   5.145   1.659  14.780
11923POPC   O1293167   5.102   1.430  14.678
11923POPC   O1193168   5.120   1.625  14.534
11923POPC    C193169   5.200   1.681  14.432
11923POPC    HA93170   5.284   1.739  14.474
11923POPC    HB93171   5.137   1.756  14.379
11923POPC    C293172   5.251   1.581  14.322
11923POPC    HS93173   5.282   1.647  14.238
11923POPC   O2193174   5.145   1.489  14.287
11923POPC   C2193175   5.148   1.460  14.158
11923POPC   O2293176   5.180   1.537  14.069
11923POPC   C2293177   5.122   1.311  14.145
11923POPC   H2R93178   5.016   1.290  14.172
11923POPC   H2S93179   5.189   1.262  14.219
11923POPC    C393180   5.378   1.497  14.358
11923POPC    HX93181   5.360   1.430  14.442
11923POPC    HY93182   5.456   1.568  14.392
11923POPC   O3193183   5.424   1.419  14.245
11923POPC   C3193184   5.554   1.388  14.245
11923POPC   O3293185   5.633   1.413  14.334
11923POPC   C3293186   5.581   1.298  14.126
11923POPC   H2X93187   5.499   1.224  14.126
11923POPC   H2Y93188   5.674   1.242  14.143
11923POPC   C2393189   5.155   1.256  14.005
11923POPC   H3R93190   5.247   1.302  13.963
11923POPC   H3S93191   5.070   1.280  13.936
11923POPC   C2493192   5.175   1.104  14.008
11923POPC   H4R93193   5.162   1.065  13.905
11923POPC   H4S93194   5.096   1.063  14.073
11923POPC   C2593195   5.312   1.057  14.061
11923POPC   H5R93196   5.322   1.086  14.168
11923POPC   H5S93197   5.391   1.110  14.006
11923POPC   C2693198   5.338   0.907  14.043
11923POPC   H6R93199   5.242   0.859  14.018
11923POPC   H6S93200   5.370   0.864  14.140
11923POPC   C2793201   5.441   0.868  13.934
11923POPC   H7R93202   5.430   0.759  13.914
11923POPC   H7S93203   5.545   0.884  13.973
11923POPC   C2893204   5.423   0.948  13.804
11923POPC   H8R93205   5.461   1.049  13.822
11923POPC   H8S93206   5.314   0.959  13.789
11923POPC   C2993207   5.494   0.900  13.680
11923POPC   H9193208   5.599   0.869  13.694
11923POPC  C21093209   5.441   0.901  13.557
11923POPC  H10193210   5.500   0.861  13.473
11923POPC  C21193211   5.302   0.949  13.520
11923POPC  H11R93212   5.233   0.950  13.607
11923POPC  H11S93213   5.258   0.879  13.445
11923POPC  C21293214   5.294   1.087  13.454
11923POPC  H12R93215   5.337   1.163  13.523
11923POPC  H12S93216   5.187   1.114  13.437
11923POPC  C21393217   5.368   1.087  13.320
11923POPC  H13R93218   5.309   1.034  13.243
11923POPC  H13S93219   5.464   1.032  13.333
11923POPC  C21493220   5.407   1.226  13.270
11923POPC  H14R93221   5.447   1.287  13.354
11923POPC  H14S93222   5.317   1.279  13.232
11923POPC  C21593223   5.514   1.211  13.162
11923POPC  H15R93224   5.477   1.141  13.083
11923POPC  H15S93225   5.604   1.165  13.209
11923POPC  C21693226   5.555   1.342  13.096
11923POPC  H16R93227   5.647   1.324  13.036
11923POPC  H16S93228   5.578   1.415  13.176
11923POPC  C21793229   5.448   1.399  13.002
11923POPC  H17R93230   5.456   1.510  13.008
11923POPC  H17S93231   5.347   1.372  13.038
11923POPC  C21893232   5.465   1.357  12.856
11923POPC  H18R93233   5.564   1.390  12.818
11923POPC  H18S93234   5.386   1.402  12.792
11923POPC  H18T93235   5.459   1.246  12.847
11923POPC   C3393236   5.584   1.372  13.991
11923POPC   H3X93237   5.675   1.434  13.981
11923POPC   H3Y93238   5.497   1.442  13.986
11923POPC   C3493239   5.571   1.269  13.879
11923POPC   H4X93240   5.466   1.236  13.883
11923POPC   H4Y93241   5.635   1.181  13.902
11923POPC   C3593242   5.597   1.310  13.734
11923POPC   H5X93243   5.571   1.222  13.670
11923POPC   H5Y93244   5.704   1.330  13.717
11923POPC   C3693245   5.511   1.427  13.688
11923POPC   H6X93246   5.523   1.439  13.577
11923POPC   H6Y93247   5.545   1.521  13.736
11923POPC   C3793248   5.364   1.402  13.721
11923POPC   H7X93249   5.348   1.418  13.830
11923POPC   H7Y93250   5.339   1.296  13.698
11923POPC   C3893251   5.265   1.491  13.647
11923POPC   H8X93252   5.299   1.506  13.542
11923POPC   H8Y93253   5.263   1.590  13.695
11923POPC   C3993254   5.123   1.436  13.652
11923POPC   H9X93255   5.104   1.396  13.754
11923POPC   H9Y93256   5.115   1.351  13.581
11923POPC  C31093257   5.016   1.542  13.623
11923POPC  H10X93258   4.999   1.606  13.712
11923POPC  H10Y93259   4.923   1.486  13.602
11923POPC  C31193260   5.043   1.631  13.500
11923POPC  H11X93261   5.129   1.698  13.518
11923POPC  H11Y93262   4.953   1.695  13.483
11923POPC  C31293263   5.066   1.542  13.378
11923POPC  H12X93264   4.981   1.470  13.371
11923POPC  H12Y93265   5.158   1.481  13.391
11923POPC  C31393266   5.076   1.614  13.245
11923POPC  H13X93267   5.168   1.677  13.243
11923POPC  H13Y93268   4.988   1.681  13.230
11923POPC  C31493269   5.080   1.508  13.134
11923POPC  H14X93270   4.985   1.450  13.138
11923POPC  H14Y93271   5.164   1.438  13.155
11923POPC  C31593272   5.095   1.568  12.995
11923POPC  H15X93273   5.195   1.618  12.989
11923POPC  H15Y93274   5.015   1.644  12.985
11923POPC  C31693275   5.077   1.470  12.879
11923POPC  H16X93276   5.103   1.521  12.784
11923POPC  H16Y93277   4.970   1.439  12.874
11923POPC  H16Z93278   5.141   1.381  12.892
11924POPC     N93279   3.271   7.672  14.763
11924POPC   C1293280   3.230   7.723  14.625
11924POPC  H12A93281   3.280   7.665  14.549
11924POPC  H12B93282   3.262   7.827  14.613
11924POPC   C1393283   3.420   7.664  14.775
11924POPC  H13A93284   3.450   7.628  14.873
11924POPC  H13B93285   3.462   7.601  14.699
11924POPC  H13C93286   3.465   7.764  14.766
11924POPC   C1493287   3.219   7.765  14.869
11924POPC  H14A93288   3.111   7.771  14.861
11924POPC  H14B93289   3.244   7.731  14.968
11924POPC  H14C93290   3.256   7.866  14.852
11924POPC   C1593291   3.210   7.539  14.791
11924POPC  H15A93292   3.243   7.464  14.719
11924POPC  H15B93293   3.101   7.546  14.784
11924POPC  H15C93294   3.234   7.504  14.891
11924POPC   C1193295   3.080   7.722  14.593
11924POPC  H11A93296   3.033   7.623  14.614
11924POPC  H11B93297   3.065   7.740  14.483
11924POPC     P93298   2.984   7.962  14.609
11924POPC   O1393299   2.984   8.062  14.718
11924POPC   O1493300   2.865   7.952  14.522
11924POPC   O1293301   3.015   7.820  14.672
11924POPC   O1193302   3.113   7.992  14.520
11924POPC    C193303   3.114   8.111  14.439
11924POPC    HA93304   3.216   8.121  14.396
11924POPC    HB93305   3.095   8.202  14.499
11924POPC    C293306   3.015   8.106  14.319
11924POPC    HS93307   2.912   8.124  14.361
11924POPC   O2193308   3.026   7.975  14.263
11924POPC   C2193309   2.919   7.944  14.193
11924POPC   O2293310   2.816   8.007  14.183
11924POPC   C2293311   2.957   7.827  14.104
11924POPC   H2R93312   2.899   7.738  14.136
11924POPC   H2S93313   3.066   7.805  14.110
11924POPC    C393314   3.043   8.211  14.209
11924POPC    HX93315   3.014   8.311  14.247
11924POPC    HY93316   2.974   8.193  14.123
11924POPC   O3193317   3.184   8.207  14.174
11924POPC   C3193318   3.213   8.174  14.050
11924POPC   O3293319   3.134   8.161  13.958
11924POPC   C3293320   3.365   8.160  14.036
11924POPC   H2X93321   3.406   8.123  14.132
11924POPC   H2Y93322   3.404   8.262  14.016
11924POPC   C2393323   2.920   7.875  13.964
11924POPC   H3R93324   2.968   7.972  13.938
11924POPC   H3S93325   2.810   7.896  13.966
11924POPC   C2493326   2.950   7.774  13.855
11924POPC   H4R93327   2.991   7.681  13.901
11924POPC   H4S93328   3.025   7.815  13.785
11924POPC   C2593329   2.820   7.741  13.785
11924POPC   H5R93330   2.754   7.716  13.869
11924POPC   H5S93331   2.830   7.654  13.717
11924POPC   C2693332   2.755   7.860  13.714
11924POPC   H6R93333   2.727   7.942  13.784
11924POPC   H6S93334   2.661   7.825  13.667
11924POPC   C2793335   2.853   7.915  13.611
11924POPC   H7R93336   2.920   7.832  13.578
11924POPC   H7S93337   2.918   7.991  13.659
11924POPC   C2893338   2.783   7.972  13.490
11924POPC   H8R93339   2.864   8.027  13.437
11924POPC   H8S93340   2.706   8.046  13.521
11924POPC   C2993341   2.722   7.861  13.408
11924POPC   H9193342   2.646   7.800  13.458
11924POPC  C21093343   2.752   7.833  13.280
11924POPC  H10193344   2.702   7.750  13.229
11924POPC  C21193345   2.853   7.911  13.200
11924POPC  H11R93346   2.872   7.863  13.102
11924POPC  H11S93347   2.950   7.918  13.253
11924POPC  C21293348   2.803   8.054  13.177
11924POPC  H12R93349   2.787   8.107  13.273
11924POPC  H12S93350   2.703   8.049  13.129
11924POPC  C21393351   2.899   8.139  13.095
11924POPC  H13R93352   3.002   8.099  13.098
11924POPC  H13S93353   2.904   8.240  13.143
11924POPC  C21493354   2.849   8.154  12.951
11924POPC  H14R93355   2.738   8.153  12.954
11924POPC  H14S93356   2.879   8.069  12.890
11924POPC  C21593357   2.891   8.284  12.885
11924POPC  H15R93358   2.948   8.348  12.956
11924POPC  H15S93359   2.794   8.335  12.866
11924POPC  C21693360   2.956   8.278  12.746
11924POPC  H16R93361   2.961   8.382  12.707
11924POPC  H16S93362   2.886   8.219  12.683
11924POPC  C21793363   3.092   8.213  12.729
11924POPC  H17R93364   3.078   8.106  12.752
11924POPC  H17S93365   3.170   8.246  12.799
11924POPC  C21893366   3.147   8.235  12.587
11924POPC  H18R93367   3.233   8.169  12.567
11924POPC  H18S93368   3.180   8.341  12.575
11924POPC  H18T93369   3.068   8.215  12.512
11924POPC   C3393370   3.405   8.066  13.919
11924POPC   H3X93371   3.515   8.070  13.905
11924POPC   H3Y93372   3.359   8.103  13.824
11924POPC   C3493373   3.363   7.920  13.942
11924POPC   H4X93374   3.255   7.916  13.969
11924POPC   H4Y93375   3.421   7.877  14.026
11924POPC   C3593376   3.382   7.834  13.816
11924POPC   H5X93377   3.489   7.820  13.794
11924POPC   H5Y93378   3.336   7.890  13.731
11924POPC   C3693379   3.312   7.698  13.830
11924POPC   H6X93380   3.204   7.718  13.848
11924POPC   H6Y93381   3.350   7.645  13.919
11924POPC   C3793382   3.325   7.606  13.708
11924POPC   H7X93383   3.245   7.529  13.716
11924POPC   H7Y93384   3.423   7.553  13.712
11924POPC   C3893385   3.312   7.674  13.571
11924POPC   H8X93386   3.330   7.597  13.492
11924POPC   H8Y93387   3.391   7.750  13.561
11924POPC   C3993388   3.174   7.737  13.546
11924POPC   H9X93389   3.159   7.823  13.615
11924POPC   H9Y93390   3.094   7.664  13.569
11924POPC  C31093391   3.160   7.786  13.402
11924POPC  H10X93392   3.054   7.815  13.388
11924POPC  H10Y93393   3.182   7.704  13.330
11924POPC  C31193394   3.252   7.906  13.378
11924POPC  H11X93395   3.358   7.876  13.391
11924POPC  H11Y93396   3.228   7.980  13.458
11924POPC  C31293397   3.238   7.974  13.242
11924POPC  H12X93398   3.306   8.061  13.240
11924POPC  H12Y93399   3.136   8.013  13.228
11924POPC  C31393400   3.280   7.886  13.124
11924POPC  H13X93401   3.200   7.811  13.102
11924POPC  H13Y93402   3.373   7.832  13.151
11924POPC  C31493403   3.307   7.972  13.000
11924POPC  H14X93404   3.386   8.047  13.023
11924POPC  H14Y93405   3.215   8.030  12.976
11924POPC  C31593406   3.351   7.891  12.878
11924POPC  H15X93407   3.346   7.957  12.789
11924POPC  H15Y93408   3.280   7.807  12.862
11924POPC  C31693409   3.493   7.836  12.893
11924POPC  H16X93410   3.523   7.777  12.803
11924POPC  H16Y93411   3.501   7.769  12.981
11924POPC  H16Z93412   3.566   7.919  12.905
11925POPC     N93413   6.853   7.472  14.526
11925POPC   C1293414   6.751   7.364  14.565
11925POPC  H12A93415   6.793   7.265  14.551
11925POPC  H12B93416   6.666   7.372  14.496
11925POPC   C1393417   6.774   7.596  14.495
11925POPC  H13A93418   6.709   7.579  14.411
11925POPC  H13B93419   6.710   7.618  14.581
11925POPC  H13C93420   6.837   7.681  14.477
11925POPC   C1493421   6.943   7.502  14.642
11925POPC  H14A93422   6.881   7.536  14.725
11925POPC  H14B93423   6.993   7.413  14.677
11925POPC  H14C93424   7.017   7.578  14.620
11925POPC   C1593425   6.930   7.427  14.406
11925POPC  H15A93426   6.991   7.506  14.366
11925POPC  H15B93427   6.861   7.394  14.328
11925POPC  H15C93428   6.994   7.342  14.431
11925POPC   C1193429   6.690   7.373  14.706
11925POPC  H11A93430   6.768   7.357  14.785
11925POPC  H11B93431   6.615   7.291  14.717
11925POPC     P93432   6.536   7.520  14.851
11925POPC   O1393433   6.563   7.657  14.897
11925POPC   O1493434   6.555   7.411  14.948
11925POPC   O1293435   6.629   7.499  14.723
11925POPC   O1193436   6.390   7.508  14.787
11925POPC    C193437   6.357   7.548  14.653
11925POPC    HA93438   6.442   7.596  14.599
11925POPC    HB93439   6.275   7.623  14.658
11925POPC    C293440   6.305   7.430  14.565
11925POPC    HS93441   6.213   7.392  14.615
11925POPC   O2193442   6.408   7.330  14.553
11925POPC   C2193443   6.374   7.209  14.591
11925POPC   O2293444   6.272   7.176  14.648
11925POPC   C2293445   6.473   7.106  14.536
11925POPC   H2R93446   6.426   7.007  14.548
11925POPC   H2S93447   6.566   7.108  14.595
11925POPC    C393448   6.263   7.472  14.420
11925POPC    HX93449   6.157   7.504  14.422
11925POPC    HY93450   6.265   7.382  14.354
11925POPC   O3193451   6.340   7.580  14.363
11925POPC   C3193452   6.455   7.552  14.306
11925POPC   O3293453   6.514   7.445  14.308
11925POPC   C3293454   6.514   7.681  14.245
11925POPC   H2X93455   6.589   7.721  14.316
11925POPC   H2Y93456   6.432   7.756  14.239
11925POPC   C2393457   6.501   7.134  14.386
11925POPC   H3R93458   6.575   7.217  14.383
11925POPC   H3S93459   6.410   7.171  14.334
11925POPC   C2493460   6.555   7.013  14.310
11925POPC   H4R93461   6.470   6.949  14.277
11925POPC   H4S93462   6.620   6.953  14.378
11925POPC   C2593463   6.639   7.052  14.188
11925POPC   H5R93464   6.578   7.108  14.114
11925POPC   H5S93465   6.674   6.958  14.140
11925POPC   C2693466   6.763   7.137  14.224
11925POPC   H6R93467   6.802   7.102  14.323
11925POPC   H6S93468   6.733   7.243  14.234
11925POPC   C2793469   6.878   7.124  14.123
11925POPC   H7R93470   6.915   7.019  14.127
11925POPC   H7S93471   6.962   7.189  14.153
11925POPC   C2893472   6.836   7.154  13.977
11925POPC   H8R93473   6.752   7.087  13.952
11925POPC   H8S93474   6.919   7.122  13.911
11925POPC   C2993475   6.802   7.299  13.954
11925POPC   H9193476   6.870   7.371  14.003
11925POPC  C21093477   6.701   7.347  13.878
11925POPC  H10193478   6.690   7.456  13.867
11925POPC  C21193479   6.601   7.265  13.800
11925POPC  H11R93480   6.497   7.295  13.828
11925POPC  H11S93481   6.610   7.157  13.823
11925POPC  C21293482   6.619   7.282  13.648
11925POPC  H12R93483   6.727   7.280  13.622
11925POPC  H12S93484   6.578   7.380  13.616
11925POPC  C21393485   6.551   7.168  13.571
11925POPC  H13R93486   6.442   7.166  13.594
11925POPC  H13S93487   6.594   7.072  13.607
11925POPC  C21493488   6.572   7.174  13.419
11925POPC  H14R93489   6.543   7.075  13.378
11925POPC  H14S93490   6.680   7.189  13.397
11925POPC  C21593491   6.490   7.284  13.350
11925POPC  H15R93492   6.521   7.383  13.387
11925POPC  H15S93493   6.382   7.271  13.376
11925POPC  C21693494   6.504   7.280  13.197
11925POPC  H16R93495   6.610   7.291  13.167
11925POPC  H16S93496   6.448   7.367  13.154
11925POPC  C21793497   6.444   7.154  13.134
11925POPC  H17R93498   6.341   7.142  13.176
11925POPC  H17S93499   6.504   7.065  13.165
11925POPC  C21893500   6.434   7.156  12.982
11925POPC  H18R93501   6.364   7.077  12.946
11925POPC  H18S93502   6.533   7.138  12.936
11925POPC  H18T93503   6.394   7.253  12.948
11925POPC   C3393504   6.578   7.664  14.104
11925POPC   H3X93505   6.548   7.567  14.058
11925POPC   H3Y93506   6.689   7.663  14.113
11925POPC   C3493507   6.534   7.778  14.009
11925POPC   H4X93508   6.569   7.875  14.050
11925POPC   H4Y93509   6.423   7.782  14.008
11925POPC   C3593510   6.582   7.763  13.864
11925POPC   H5X93511   6.532   7.844  13.804
11925POPC   H5Y93512   6.548   7.666  13.821
11925POPC   C3693513   6.734   7.779  13.848
11925POPC   H6X93514   6.787   7.691  13.889
11925POPC   H6Y93515   6.764   7.869  13.907
11925POPC   C3793516   6.779   7.806  13.703
11925POPC   H7X93517   6.882   7.849  13.705
11925POPC   H7Y93518   6.712   7.883  13.660
11925POPC   C3893519   6.784   7.684  13.611
11925POPC   H8X93520   6.694   7.620  13.625
11925POPC   H8Y93521   6.872   7.621  13.638
11925POPC   C3993522   6.797   7.725  13.462
11925POPC   H9X93523   6.818   7.634  13.402
11925POPC   H9Y93524   6.883   7.794  13.450
11925POPC  C31093525   6.671   7.790  13.405
11925POPC  H10X93526   6.688   7.815  13.298
11925POPC  H10Y93527   6.648   7.886  13.457
11925POPC  C31193528   6.549   7.698  13.416
11925POPC  H11X93529   6.526   7.681  13.524
11925POPC  H11Y93530   6.574   7.599  13.372
11925POPC  C31293531   6.423   7.754  13.352
11925POPC  H12X93532   6.401   7.853  13.399
11925POPC  H12Y93533   6.340   7.684  13.375
11925POPC  C31393534   6.427   7.772  13.201
11925POPC  H13X93535   6.501   7.850  13.173
11925POPC  H13Y93536   6.326   7.808  13.173
11925POPC  C31493537   6.456   7.642  13.128
11925POPC  H14X93538   6.383   7.565  13.161
11925POPC  H14Y93539   6.558   7.606  13.154
11925POPC  C31593540   6.446   7.658  12.977
11925POPC  H15X93541   6.504   7.748  12.946
11925POPC  H15Y93542   6.338   7.675  12.952
11925POPC  C31693543   6.494   7.538  12.897
11925POPC  H16X93544   6.592   7.502  12.933
11925POPC  H16Y93545   6.504   7.565  12.790
11925POPC  H16Z93546   6.420   7.455  12.904
11926POPC     N93547   8.098   4.138  14.890
11926POPC   C1293548   8.041   4.009  14.830
11926POPC  H12A93549   7.942   3.993  14.870
11926POPC  H12B93550   8.104   3.928  14.865
11926POPC   C1393551   8.037   4.257  14.824
11926POPC  H13A93552   7.930   4.262  14.841
11926POPC  H13B93553   8.083   4.349  14.857
11926POPC  H13C93554   8.051   4.248  14.716
11926POPC   C1493555   8.069   4.143  15.035
11926POPC  H14A93556   7.962   4.145  15.051
11926POPC  H14B93557   8.111   4.058  15.087
11926POPC  H14C93558   8.109   4.234  15.081
11926POPC   C1593559   8.245   4.139  14.864
11926POPC  H15A93560   8.293   4.223  14.912
11926POPC  H15B93561   8.258   4.146  14.756
11926POPC  H15C93562   8.292   4.047  14.898
11926POPC   C1193563   8.031   3.997  14.675
11926POPC  H11A93564   7.927   4.025  14.647
11926POPC  H11B93565   8.045   3.890  14.647
11926POPC     P93566   8.090   4.130  14.461
11926POPC   O1393567   8.031   4.264  14.483
11926POPC   O1493568   8.007   4.029  14.391
11926POPC   O1293569   8.128   4.075  14.606
11926POPC   O1193570   8.233   4.143  14.394
11926POPC    C193571   8.348   4.166  14.476
11926POPC    HA93572   8.354   4.088  14.556
11926POPC    HB93573   8.343   4.267  14.522
11926POPC    C293574   8.485   4.153  14.401
11926POPC    HS93575   8.564   4.157  14.478
11926POPC   O2193576   8.500   4.263  14.310
11926POPC   C2193577   8.621   4.287  14.261
11926POPC   O2293578   8.723   4.228  14.294
11926POPC   C2293579   8.608   4.397  14.155
11926POPC   H2R93580   8.705   4.450  14.151
11926POPC   H2S93581   8.532   4.470  14.189
11926POPC    C393582   8.494   4.017  14.327
11926POPC    HX93583   8.470   3.938  14.403
11926POPC    HY93584   8.599   4.002  14.294
11926POPC   O3193585   8.408   4.012  14.212
11926POPC   C3193586   8.337   3.903  14.192
11926POPC   O3293587   8.345   3.800  14.258
11926POPC   C3293588   8.259   3.920  14.062
11926POPC   H2X93589   8.263   4.026  14.031
11926POPC   H2Y93590   8.154   3.894  14.085
11926POPC   C2393591   8.572   4.344  14.013
11926POPC   H3R93592   8.644   4.264  13.985
11926POPC   H3S93593   8.584   4.426  13.940
11926POPC   C2493594   8.429   4.288  13.999
11926POPC   H4R93595   8.402   4.227  14.088
11926POPC   H4S93596   8.427   4.219  13.911
11926POPC   C2593597   8.319   4.393  13.975
11926POPC   H5R93598   8.342   4.446  13.880
11926POPC   H5S93599   8.319   4.468  14.057
11926POPC   C2693600   8.179   4.332  13.961
11926POPC   H6R93601   8.185   4.243  13.895
11926POPC   H6S93602   8.111   4.406  13.913
11926POPC   C2793603   8.113   4.290  14.094
11926POPC   H7R93604   8.106   4.380  14.159
11926POPC   H7S93605   8.178   4.217  14.147
11926POPC   C2893606   7.970   4.233  14.077
11926POPC   H8R93607   7.907   4.307  14.024
11926POPC   H8S93608   7.928   4.221  14.180
11926POPC   C2993609   7.969   4.098  14.010
11926POPC   H9193610   7.995   4.016  14.079
11926POPC  C21093611   7.934   4.070  13.883
11926POPC  H10193612   7.933   3.964  13.851
11926POPC  C21193613   7.888   4.168  13.779
11926POPC  H11R93614   7.842   4.259  13.824
11926POPC  H11S93615   7.809   4.116  13.720
11926POPC  C21293616   7.989   4.210  13.673
11926POPC  H12R93617   8.032   4.116  13.634
11926POPC  H12S93618   8.070   4.275  13.713
11926POPC  C21393619   7.918   4.277  13.557
11926POPC  H13R93620   7.877   4.376  13.586
11926POPC  H13S93621   7.834   4.206  13.541
11926POPC  C21493622   7.992   4.281  13.423
11926POPC  H14R93623   8.092   4.329  13.437
11926POPC  H14S93624   7.934   4.343  13.352
11926POPC  C21593625   8.005   4.140  13.366
11926POPC  H15R93626   7.905   4.092  13.359
11926POPC  H15S93627   8.065   4.078  13.436
11926POPC  C21693628   8.075   4.131  13.230
11926POPC  H16R93629   8.140   4.041  13.230
11926POPC  H16S93630   8.140   4.220  13.214
11926POPC  C21793631   7.977   4.116  13.114
11926POPC  H17R93632   7.914   4.207  13.106
11926POPC  H17S93633   7.910   4.029  13.131
11926POPC  C21893634   8.054   4.096  12.985
11926POPC  H18R93635   8.130   4.016  12.995
11926POPC  H18S93636   8.108   4.190  12.964
11926POPC  H18T93637   7.988   4.071  12.900
11926POPC   C3393638   8.311   3.828  13.949
11926POPC   H3X93639   8.271   3.726  13.970
11926POPC   H3Y93640   8.423   3.823  13.950
11926POPC   C3493641   8.267   3.869  13.808
11926POPC   H4X93642   8.165   3.912  13.814
11926POPC   H4Y93643   8.257   3.777  13.747
11926POPC   C3593644   8.361   3.966  13.734
11926POPC   H5X93645   8.432   3.909  13.670
11926POPC   H5Y93646   8.422   4.025  13.807
11926POPC   C3693647   8.276   4.062  13.651
11926POPC   H6X93648   8.217   4.119  13.726
11926POPC   H6Y93649   8.205   4.000  13.592
11926POPC   C3793650   8.340   4.165  13.556
11926POPC   H7X93651   8.358   4.260  13.611
11926POPC   H7Y93652   8.265   4.187  13.477
11926POPC   C3893653   8.470   4.118  13.490
11926POPC   H8X93654   8.456   4.015  13.452
11926POPC   H8Y93655   8.549   4.114  13.568
11926POPC   C3993656   8.519   4.208  13.374
11926POPC   H9X93657   8.611   4.160  13.335
11926POPC   H9Y93658   8.547   4.308  13.414
11926POPC  C31093659   8.423   4.226  13.255
11926POPC  H10X93660   8.345   4.300  13.283
11926POPC  H10Y93661   8.371   4.130  13.234
11926POPC  C31193662   8.495   4.273  13.127
11926POPC  H11X93663   8.575   4.200  13.100
11926POPC  H11Y93664   8.545   4.370  13.150
11926POPC  C31293665   8.401   4.292  13.006
11926POPC  H12X93666   8.422   4.389  12.958
11926POPC  H12Y93667   8.298   4.293  13.047
11926POPC  C31393668   8.406   4.178  12.903
11926POPC  H13X93669   8.375   4.090  12.963
11926POPC  H13Y93670   8.509   4.163  12.867
11926POPC  C31493671   8.306   4.176  12.785
11926POPC  H14X93672   8.219   4.238  12.810
11926POPC  H14Y93673   8.271   4.071  12.773
11926POPC  C31593674   8.353   4.224  12.647
11926POPC  H15X93675   8.352   4.334  12.650
11926POPC  H15Y93676   8.276   4.192  12.572
11926POPC  C31693677   8.489   4.175  12.599
11926POPC  H16X93678   8.570   4.217  12.662
11926POPC  H16Y93679   8.508   4.204  12.494
11926POPC  H16Z93680   8.494   4.064  12.607
11927POPC     N93681   1.106   4.585  14.645
11927POPC   C1293682   1.154   4.723  14.602
11927POPC  H12A93683   1.071   4.777  14.556
11927POPC  H12B93684   1.230   4.712  14.525
11927POPC   C1393685   1.210   4.514  14.726
11927POPC  H13A93686   1.230   4.576  14.813
11927POPC  H13B93687   1.172   4.418  14.758
11927POPC  H13C93688   1.301   4.499  14.671
11927POPC   C1493689   0.987   4.602  14.733
11927POPC  H14A93690   0.948   4.508  14.769
11927POPC  H14B93691   1.014   4.663  14.819
11927POPC  H14C93692   0.910   4.655  14.678
11927POPC   C1593693   1.065   4.502  14.528
11927POPC  H15A93694   0.976   4.540  14.477
11927POPC  H15B93695   1.039   4.401  14.559
11927POPC  H15C93696   1.142   4.491  14.451
11927POPC   C1193697   1.210   4.819  14.712
11927POPC  H11A93698   1.260   4.905  14.661
11927POPC  H11B93699   1.291   4.768  14.769
11927POPC     P93700   1.019   4.987  14.765
11927POPC   O1393701   1.111   5.100  14.737
11927POPC   O1493702   0.916   5.012  14.870
11927POPC   O1293703   1.110   4.862  14.806
11927POPC   O1193704   0.956   4.930  14.629
11927POPC    C193705   0.930   5.018  14.520
11927POPC    HA93706   1.020   5.078  14.492
11927POPC    HB93707   0.849   5.089  14.549
11927POPC    C293708   0.881   4.942  14.393
11927POPC    HS93709   0.797   4.875  14.426
11927POPC   O2193710   0.987   4.871  14.326
11927POPC   C2193711   0.965   4.744  14.298
11927POPC   O2293712   0.888   4.670  14.358
11927POPC   C2293713   1.059   4.699  14.187
11927POPC   H2R93714   1.065   4.588  14.193
11927POPC   H2S93715   1.159   4.741  14.209
11927POPC    C393716   0.825   5.042  14.289
11927POPC    HX93717   0.910   5.108  14.259
11927POPC    HY93718   0.750   5.107  14.339
11927POPC   O3193719   0.763   4.972  14.179
11927POPC   C3193720   0.798   5.008  14.057
11927POPC   O3293721   0.890   5.083  14.028
11927POPC   C3293722   0.707   4.942  13.952
11927POPC   H2X93723   0.615   4.905  14.002
11927POPC   H2Y93724   0.762   4.856  13.911
11927POPC   C2393725   1.020   4.739  14.042
11927POPC   H3R93726   1.023   4.850  14.030
11927POPC   H3S93727   0.918   4.703  14.016
11927POPC   C2493728   1.121   4.675  13.946
11927POPC   H4R93729   1.112   4.565  13.959
11927POPC   H4S93730   1.223   4.706  13.978
11927POPC   C2593731   1.110   4.703  13.795
11927POPC   H5R93732   1.100   4.812  13.778
11927POPC   H5S93733   1.020   4.653  13.754
11927POPC   C2693734   1.238   4.651  13.727
11927POPC   H6R93735   1.263   4.556  13.777
11927POPC   H6S93736   1.321   4.722  13.747
11927POPC   C2793737   1.231   4.619  13.577
11927POPC   H7R93738   1.157   4.537  13.562
11927POPC   H7S93739   1.329   4.580  13.543
11927POPC   C2893740   1.190   4.737  13.489
11927POPC   H8R93741   1.092   4.770  13.527
11927POPC   H8S93742   1.173   4.700  13.385
11927POPC   C2993743   1.293   4.847  13.486
11927POPC   H9193744   1.392   4.817  13.449
11927POPC  C21093745   1.274   4.976  13.524
11927POPC  H10193746   1.359   5.045  13.516
11927POPC  C21193747   1.145   5.036  13.576
11927POPC  H11R93748   1.168   5.119  13.646
11927POPC  H11S93749   1.089   4.961  13.636
11927POPC  C21293750   1.049   5.086  13.466
11927POPC  H12R93751   1.099   5.159  13.400
11927POPC  H12S93752   0.963   5.137  13.516
11927POPC  C21393753   0.993   4.969  13.384
11927POPC  H13R93754   0.952   4.895  13.456
11927POPC  H13S93755   1.074   4.920  13.326
11927POPC  C21493756   0.879   5.005  13.290
11927POPC  H14R93757   0.805   5.070  13.341
11927POPC  H14S93758   0.829   4.911  13.260
11927POPC  C21593759   0.930   5.069  13.162
11927POPC  H15R93760   1.005   5.003  13.114
11927POPC  H15S93761   0.983   5.163  13.188
11927POPC  C21693762   0.815   5.095  13.066
11927POPC  H16R93763   0.732   5.148  13.118
11927POPC  H16S93764   0.777   4.998  13.028
11927POPC  C21793765   0.863   5.178  12.949
11927POPC  H17R93766   0.925   5.258  12.991
11927POPC  H17S93767   0.778   5.229  12.899
11927POPC  C21893768   0.945   5.094  12.851
11927POPC  H18R93769   0.886   5.006  12.818
11927POPC  H18S93770   1.038   5.057  12.898
11927POPC  H18T93771   0.973   5.153  12.762
11927POPC   C3393772   0.671   5.041  13.838
11927POPC   H3X93773   0.764   5.095  13.806
11927POPC   H3Y93774   0.600   5.117  13.877
11927POPC   C3493775   0.611   4.978  13.712
11927POPC   H4X93776   0.572   5.059  13.647
11927POPC   H4Y93777   0.525   4.913  13.739
11927POPC   C3593778   0.716   4.898  13.634
11927POPC   H5X93779   0.749   4.812  13.697
11927POPC   H5Y93780   0.805   4.962  13.614
11927POPC   C3693781   0.660   4.845  13.502
11927POPC   H6X93782   0.670   4.922  13.423
11927POPC   H6Y93783   0.552   4.828  13.517
11927POPC   C3793784   0.725   4.713  13.458
11927POPC   H7X93785   0.689   4.633  13.527
11927POPC   H7Y93786   0.835   4.721  13.471
11927POPC   C3893787   0.692   4.672  13.314
11927POPC   H8X93788   0.713   4.752  13.241
11927POPC   H8Y93789   0.583   4.651  13.309
11927POPC   C3993790   0.761   4.543  13.270
11927POPC   H9X93791   0.721   4.513  13.171
11927POPC   H9Y93792   0.731   4.466  13.344
11927POPC  C31093793   0.914   4.552  13.262
11927POPC  H10X93794   0.955   4.449  13.254
11927POPC  H10Y93795   0.958   4.594  13.355
11927POPC  C31193796   0.963   4.634  13.142
11927POPC  H11X93797   0.956   4.741  13.169
11927POPC  H11Y93798   0.897   4.617  13.054
11927POPC  C31293799   1.107   4.600  13.102
11927POPC  H12X93800   1.110   4.506  13.042
11927POPC  H12Y93801   1.165   4.581  13.195
11927POPC  C31393802   1.175   4.713  13.024
11927POPC  H13X93803   1.118   4.807  13.039
11927POPC  H13Y93804   1.174   4.691  12.915
11927POPC  C31493805   1.320   4.738  13.070
11927POPC  H14X93806   1.376   4.643  13.064
11927POPC  H14Y93807   1.321   4.772  13.176
11927POPC  C31593808   1.390   4.843  12.984
11927POPC  H15X93809   1.369   4.820  12.877
11927POPC  H15Y93810   1.500   4.832  12.997
11927POPC  C31693811   1.348   4.987  13.013
11927POPC  H16X93812   1.375   5.015  13.117
11927POPC  H16Y93813   1.238   4.998  13.002
11927POPC  H16Z93814   1.397   5.057  12.942
11928POPC     N93815   5.913   1.388  14.837
11928POPC   C1293816   6.014   1.410  14.725
11928POPC  H12A93817   6.021   1.515  14.701
11928POPC  H12B93818   5.978   1.358  14.636
11928POPC   C1393819   5.976   1.419  14.969
11928POPC  H13A93820   5.905   1.407  15.051
11928POPC  H13B93821   6.058   1.349  14.982
11928POPC  H13C93822   6.018   1.519  14.970
11928POPC   C1493823   5.789   1.469  14.816
11928POPC  H14A93824   5.809   1.576  14.823
11928POPC  H14B93825   5.750   1.452  14.716
11928POPC  H14C93826   5.714   1.443  14.889
11928POPC   C1593827   5.879   1.243  14.834
11928POPC  H15A93828   5.819   1.211  14.918
11928POPC  H15B93829   5.974   1.189  14.836
11928POPC  H15C93830   5.834   1.212  14.740
11928POPC   C1193831   6.158   1.353  14.747
11928POPC  H11A93832   6.201   1.392  14.842
11928POPC  H11B93833   6.223   1.395  14.669
11928POPC     P93834   6.137   1.132  14.611
11928POPC   O1393835   5.991   1.148  14.591
11928POPC   O1493836   6.185   0.992  14.625
11928POPC   O1293837   6.168   1.211  14.746
11928POPC   O1193838   6.215   1.211  14.495
11928POPC    C193839   6.347   1.175  14.451
11928POPC    HA93840   6.350   1.069  14.415
11928POPC    HB93841   6.419   1.184  14.535
11928POPC    C293842   6.403   1.265  14.333
11928POPC    HS93843   6.513   1.246  14.328
11928POPC   O2193844   6.383   1.406  14.346
11928POPC   C2193845   6.357   1.458  14.462
11928POPC   O2293846   6.422   1.445  14.565
11928POPC   C2293847   6.235   1.548  14.445
11928POPC   H2R93848   6.270   1.645  14.408
11928POPC   H2S93849   6.191   1.564  14.545
11928POPC    C393850   6.347   1.232  14.190
11928POPC    HX93851   6.383   1.133  14.155
11928POPC    HY93852   6.393   1.307  14.120
11928POPC   O3193853   6.204   1.248  14.183
11928POPC   C3193854   6.136   1.137  14.208
11928POPC   O3293855   6.184   1.025  14.208
11928POPC   C3293856   5.992   1.169  14.246
11928POPC   H2X93857   5.983   1.153  14.355
11928POPC   H2Y93858   5.972   1.275  14.227
11928POPC   C2393859   6.129   1.499  14.343
11928POPC   H3R93860   6.089   1.401  14.375
11928POPC   H3S93861   6.174   1.488  14.242
11928POPC   C2493862   6.018   1.603  14.337
11928POPC   H4R93863   6.062   1.702  14.308
11928POPC   H4S93864   5.981   1.611  14.442
11928POPC   C2593865   5.896   1.575  14.248
11928POPC   H5R93866   5.806   1.592  14.311
11928POPC   H5S93867   5.893   1.469  14.217
11928POPC   C2693868   5.884   1.666  14.123
11928POPC   H6R93869   5.895   1.601  14.034
11928POPC   H6S93870   5.969   1.738  14.119
11928POPC   C2793871   5.750   1.742  14.116
11928POPC   H7R93872   5.761   1.840  14.167
11928POPC   H7S93873   5.674   1.683  14.171
11928POPC   C2893874   5.692   1.760  13.974
11928POPC   H8R93875   5.597   1.817  13.982
11928POPC   H8S93876   5.661   1.660  13.937
11928POPC   C2993877   5.779   1.831  13.875
11928POPC   H9193878   5.780   1.941  13.885
11928POPC  C21093879   5.855   1.774  13.780
11928POPC  H10193880   5.914   1.841  13.716
11928POPC  C21193881   5.870   1.626  13.752
11928POPC  H11R93882   5.817   1.566  13.828
11928POPC  H11S93883   5.978   1.598  13.763
11928POPC  C21293884   5.822   1.575  13.613
11928POPC  H12R93885   5.718   1.610  13.594
11928POPC  H12S93886   5.822   1.464  13.615
11928POPC  C21393887   5.914   1.616  13.497
11928POPC  H13R93888   6.017   1.585  13.527
11928POPC  H13S93889   5.910   1.727  13.487
11928POPC  C21493890   5.892   1.557  13.358
11928POPC  H14R93891   5.898   1.447  13.358
11928POPC  H14S93892   5.979   1.595  13.298
11928POPC  C21593893   5.765   1.606  13.289
11928POPC  H15R93894   5.741   1.708  13.326
11928POPC  H15S93895   5.681   1.540  13.320
11928POPC  C21693896   5.772   1.613  13.134
11928POPC  H16R93897   5.814   1.711  13.102
11928POPC  H16S93898   5.666   1.610  13.100
11928POPC  C21793899   5.846   1.500  13.061
11928POPC  H17R93900   5.792   1.482  12.965
11928POPC  H17S93901   5.839   1.406  13.120
11928POPC  C21893902   5.992   1.530  13.024
11928POPC  H18R93903   6.038   1.442  12.973
11928POPC  H18S93904   6.053   1.553  13.113
11928POPC  H18T93905   5.998   1.616  12.955
11928POPC   C3393906   5.891   1.077  14.173
11928POPC   H3X93907   5.791   1.100  14.215
11928POPC   H3Y93908   5.913   0.971  14.199
11928POPC   C3493909   5.888   1.095  14.020
11928POPC   H4X93910   5.790   1.058  13.981
11928POPC   H4Y93911   5.966   1.030  13.973
11928POPC   C3593912   5.912   1.240  13.976
11928POPC   H5X93913   6.004   1.282  14.022
11928POPC   H5Y93914   5.830   1.304  14.011
11928POPC   C3693915   5.935   1.255  13.826
11928POPC   H6X93916   5.902   1.355  13.791
11928POPC   H6Y93917   5.877   1.178  13.770
11928POPC   C3793918   6.085   1.243  13.799
11928POPC   H7X93919   6.128   1.178  13.879
11928POPC   H7Y93920   6.133   1.343  13.810
11928POPC   C3893921   6.120   1.179  13.666
11928POPC   H8X93922   6.089   1.245  13.583
11928POPC   H8Y93923   6.065   1.083  13.656
11928POPC   C3993924   6.271   1.151  13.662
11928POPC   H9X93925   6.295   1.080  13.745
11928POPC   H9Y93926   6.327   1.245  13.681
11928POPC  C31093927   6.316   1.089  13.530
11928POPC  H10X93928   6.246   1.006  13.505
11928POPC  H10Y93929   6.418   1.045  13.542
11928POPC  C31193930   6.320   1.190  13.415
11928POPC  H11X93931   6.408   1.256  13.428
11928POPC  H11Y93932   6.229   1.254  13.416
11928POPC  C31293933   6.328   1.118  13.280
11928POPC  H12X93934   6.244   1.045  13.275
11928POPC  H12Y93935   6.422   1.059  13.278
11928POPC  C31393936   6.320   1.209  13.157
11928POPC  H13X93937   6.213   1.224  13.129
11928POPC  H13Y93938   6.371   1.153  13.076
11928POPC  C31493939   6.386   1.347  13.167
11928POPC  H14X93940   6.494   1.331  13.191
11928POPC  H14Y93941   6.342   1.405  13.252
11928POPC  C31593942   6.371   1.430  13.039
11928POPC  H15X93943   6.439   1.518  13.045
11928POPC  H15Y93944   6.267   1.470  13.034
11928POPC  C31693945   6.398   1.354  12.908
11928POPC  H16X93946   6.431   1.423  12.827
11928POPC  H16Y93947   6.306   1.301  12.874
11928POPC  H16Z93948   6.478   1.278  12.923
11929POPC     N93949   2.525   1.556  14.894
11929POPC   C1293950   2.546   1.439  14.799
11929POPC  H12A93951   2.464   1.369  14.810
11929POPC  H12B93952   2.635   1.385  14.830
11929POPC   C1393953   2.644   1.644  14.906
11929POPC  H13A93954   2.661   1.697  14.811
11929POPC  H13B93955   2.630   1.721  14.980
11929POPC  H13C93956   2.733   1.589  14.932
11929POPC   C1493957   2.412   1.644  14.849
11929POPC  H14A93958   2.431   1.672  14.745
11929POPC  H14B93959   2.317   1.595  14.856
11929POPC  H14C93960   2.413   1.736  14.906
11929POPC   C1593961   2.499   1.498  15.027
11929POPC  H15A93962   2.589   1.453  15.068
11929POPC  H15B93963   2.421   1.423  15.024
11929POPC  H15C93964   2.466   1.577  15.094
11929POPC   C1193965   2.560   1.464  14.648
11929POPC  H11A93966   2.460   1.490  14.606
11929POPC  H11B93967   2.589   1.365  14.605
11929POPC     P93968   2.634   1.690  14.532
11929POPC   O1393969   2.663   1.797  14.628
11929POPC   O1493970   2.496   1.684  14.477
11929POPC   O1293971   2.662   1.558  14.617
11929POPC   O1193972   2.743   1.678  14.417
11929POPC    C193973   2.869   1.611  14.429
11929POPC    HA93974   2.892   1.588  14.535
11929POPC    HB93975   2.949   1.680  14.393
11929POPC    C293976   2.884   1.477  14.348
11929POPC    HS93977   2.975   1.425  14.386
11929POPC   O2193978   2.895   1.499  14.206
11929POPC   C2193979   3.021   1.521  14.164
11929POPC   O2293980   3.118   1.527  14.238
11929POPC   C2293981   3.022   1.534  14.012
11929POPC   H2R93982   2.928   1.492  13.971
11929POPC   H2S93983   3.108   1.476  13.972
11929POPC    C393984   2.769   1.372  14.371
11929POPC    HX93985   2.779   1.334  14.475
11929POPC    HY93986   2.791   1.290  14.301
11929POPC   O3193987   2.634   1.418  14.348
11929POPC   C3193988   2.543   1.321  14.362
11929POPC   O3293989   2.569   1.205  14.388
11929POPC   C3293990   2.403   1.376  14.339
11929POPC   H2X93991   2.403   1.485  14.361
11929POPC   H2Y93992   2.334   1.323  14.408
11929POPC   C2393993   3.035   1.682  13.970
11929POPC   H3R93994   3.025   1.690  13.860
11929POPC   H3S93995   3.137   1.717  13.996
11929POPC   C2493996   2.933   1.777  14.036
11929POPC   H4R93997   2.967   1.881  14.019
11929POPC   H4S93998   2.929   1.763  14.146
11929POPC   C2593999   2.792   1.771  13.979
11929POPC   H5R94000   2.748   1.670  13.995
11929POPC   H5S94001   2.797   1.789  13.869
11929POPC   C2694002   2.704   1.878  14.044
11929POPC   H6R94003   2.750   1.979  14.028
11929POPC   H6S94004   2.703   1.859  14.154
11929POPC   C2794005   2.560   1.881  13.992
11929POPC   H7R94006   2.502   1.950  14.058
11929POPC   H7S94007   2.515   1.779  14.004
11929POPC   C2894008   2.547   1.926  13.846
11929POPC   H8R94009   2.596   1.851  13.781
11929POPC   H8S94010   2.602   2.021  13.833
11929POPC   C2994011   2.401   1.945  13.812
11929POPC   H9194012   2.349   2.020  13.874
11929POPC  C21094013   2.331   1.881  13.717
11929POPC  H10194014   2.225   1.906  13.703
11929POPC  C21194015   2.382   1.776  13.621
11929POPC  H11R94016   2.306   1.695  13.612
11929POPC  H11S94017   2.477   1.728  13.655
11929POPC  C21294018   2.404   1.839  13.483
11929POPC  H12R94019   2.497   1.901  13.484
11929POPC  H12S94020   2.319   1.908  13.459
11929POPC  C21394021   2.411   1.735  13.371
11929POPC  H13R94022   2.326   1.664  13.383
11929POPC  H13S94023   2.505   1.677  13.379
11929POPC  C21494024   2.398   1.802  13.234
11929POPC  H14R94025   2.485   1.869  13.216
11929POPC  H14S94026   2.306   1.864  13.234
11929POPC  C21594027   2.386   1.701  13.119
11929POPC  H15R94028   2.356   1.759  13.029
11929POPC  H15S94029   2.305   1.628  13.142
11929POPC  C21694030   2.517   1.628  13.087
11929POPC  H16R94031   2.556   1.579  13.179
11929POPC  H16S94032   2.588   1.706  13.053
11929POPC  C21794033   2.506   1.522  12.977
11929POPC  H17R94034   2.481   1.424  13.022
11929POPC  H17S94035   2.606   1.511  12.929
11929POPC  C21894036   2.402   1.558  12.872
11929POPC  H18R94037   2.397   1.478  12.795
11929POPC  H18S94038   2.426   1.655  12.823
11929POPC  H18T94039   2.302   1.564  12.919
11929POPC   C3394040   2.363   1.351  14.193
11929POPC   H3X94041   2.260   1.389  14.175
11929POPC   H3Y94042   2.365   1.242  14.172
11929POPC   C3494043   2.459   1.420  14.096
11929POPC   H4X94044   2.562   1.379  14.107
11929POPC   H4Y94045   2.463   1.529  14.118
11929POPC   C3594046   2.416   1.400  13.951
11929POPC   H5X94047   2.313   1.440  13.938
11929POPC   H5Y94048   2.412   1.291  13.928
11929POPC   C3694049   2.511   1.471  13.856
11929POPC   H6X94050   2.525   1.576  13.888
11929POPC   H6Y94051   2.463   1.472  13.756
11929POPC   C3794052   2.648   1.402  13.845
11929POPC   H7X94053   2.631   1.292  13.847
11929POPC   H7Y94054   2.714   1.425  13.931
11929POPC   C3894055   2.715   1.434  13.711
11929POPC   H8X94056   2.635   1.425  13.634
11929POPC   H8Y94057   2.795   1.360  13.687
11929POPC   C3994058   2.768   1.576  13.701
11929POPC   H9X94059   2.865   1.585  13.754
11929POPC   H9Y94060   2.695   1.644  13.750
11929POPC  C31094061   2.780   1.618  13.555
11929POPC  H10X94062   2.685   1.594  13.502
11929POPC  H10Y94063   2.862   1.560  13.507
11929POPC  C31194064   2.804   1.769  13.542
11929POPC  H11X94065   2.901   1.793  13.590
11929POPC  H11Y94066   2.725   1.823  13.598
11929POPC  C31294067   2.803   1.817  13.398
11929POPC  H12X94068   2.825   1.925  13.396
11929POPC  H12Y94069   2.700   1.806  13.356
11929POPC  C31394070   2.901   1.738  13.309
11929POPC  H13X94071   2.977   1.687  13.370
11929POPC  H13Y94072   2.954   1.806  13.239
11929POPC  C31494073   2.823   1.638  13.226
11929POPC  H14X94074   2.741   1.697  13.180
11929POPC  H14Y94075   2.779   1.559  13.289
11929POPC  C31594076   2.899   1.574  13.111
11929POPC  H15X94077   2.822   1.508  13.064
11929POPC  H15Y94078   2.983   1.511  13.148
11929POPC  C31694079   2.946   1.670  13.002
11929POPC  H16X94080   2.981   1.612  12.915
11929POPC  H16Y94081   3.029   1.734  13.038
11929POPC  H16Z94082   2.863   1.734  12.967
11930POPC     N94083   1.594   7.045  14.804
11930POPC   C1294084   1.595   7.197  14.796
11930POPC  H12A94085   1.577   7.238  14.895
11930POPC  H12B94086   1.508   7.226  14.736
11930POPC   C1394087   1.716   6.977  14.857
11930POPC  H13A94088   1.697   6.870  14.862
11930POPC  H13B94089   1.801   6.992  14.791
11930POPC  H13C94090   1.744   7.010  14.957
11930POPC   C1494091   1.477   6.998  14.885
11930POPC  H14A94092   1.465   6.891  14.870
11930POPC  H14B94093   1.490   7.015  14.991
11930POPC  H14C94094   1.385   7.044  14.850
11930POPC   C1594095   1.574   6.994  14.664
11930POPC  H15A94096   1.563   6.885  14.665
11930POPC  H15B94097   1.656   7.026  14.600
11930POPC  H15C94098   1.483   7.036  14.623
11930POPC   C1194099   1.716   7.268  14.732
11930POPC  H11A94100   1.809   7.222  14.773
11930POPC  H11B94101   1.713   7.376  14.763
11930POPC     P94102   1.848   7.303  14.516
11930POPC   O1394103   1.906   7.179  14.461
11930POPC   O1494104   1.929   7.375  14.617
11930POPC   O1294105   1.710   7.264  14.588
11930POPC   O1194106   1.820   7.411  14.404
11930POPC    C194107   1.736   7.525  14.430
11930POPC    HA94108   1.788   7.619  14.401
11930POPC    HB94109   1.711   7.535  14.538
11930POPC    C294110   1.600   7.512  14.357
11930POPC    HS94111   1.523   7.562  14.419
11930POPC   O2194112   1.578   7.370  14.349
11930POPC   C2194113   1.473   7.323  14.295
11930POPC   O2294114   1.380   7.388  14.251
11930POPC   C2294115   1.476   7.172  14.310
11930POPC   H2R94116   1.373   7.137  14.315
11930POPC   H2S94117   1.527   7.149  14.406
11930POPC    C394118   1.589   7.581  14.218
11930POPC    HX94119   1.625   7.686  14.226
11930POPC    HY94120   1.482   7.591  14.190
11930POPC   O3194121   1.654   7.500  14.119
11930POPC   C3194122   1.780   7.533  14.100
11930POPC   O3294123   1.828   7.641  14.130
11930POPC   C3294124   1.853   7.423  14.025
11930POPC   H2X94125   1.942   7.469  13.977
11930POPC   H2Y94126   1.787   7.386  13.944
11930POPC   C2394127   1.551   7.108  14.192
11930POPC   H3R94128   1.561   6.999  14.207
11930POPC   H3S94129   1.653   7.150  14.189
11930POPC   C2494130   1.480   7.136  14.060
11930POPC   H4R94131   1.456   7.245  14.057
11930POPC   H4S94132   1.383   7.083  14.055
11930POPC   C2594133   1.566   7.105  13.938
11930POPC   H5R94134   1.591   6.996  13.937
11930POPC   H5S94135   1.662   7.160  13.950
11930POPC   C2694136   1.501   7.145  13.805
11930POPC   H6R94137   1.418   7.074  13.782
11930POPC   H6S94138   1.575   7.138  13.724
11930POPC   C2794139   1.441   7.287  13.803
11930POPC   H7R94140   1.356   7.288  13.873
11930POPC   H7S94141   1.402   7.309  13.701
11930POPC   C2894142   1.537   7.397  13.849
11930POPC   H8R94143   1.621   7.405  13.778
11930POPC   H8S94144   1.581   7.365  13.945
11930POPC   C2994145   1.466   7.527  13.873
11930POPC   H9194146   1.419   7.539  13.972
11930POPC  C21094147   1.451   7.623  13.780
11930POPC  H10194148   1.399   7.717  13.805
11930POPC  C21194149   1.503   7.610  13.641
11930POPC  H11R94150   1.449   7.678  13.572
11930POPC  H11S94151   1.480   7.508  13.602
11930POPC  C21294152   1.655   7.629  13.633
11930POPC  H12R94153   1.703   7.620  13.733
11930POPC  H12S94154   1.678   7.732  13.598
11930POPC  C21394155   1.719   7.522  13.542
11930POPC  H13R94156   1.690   7.420  13.574
11930POPC  H13S94157   1.828   7.531  13.552
11930POPC  C21494158   1.683   7.542  13.395
11930POPC  H14R94159   1.645   7.645  13.389
11930POPC  H14S94160   1.603   7.472  13.362
11930POPC  C21594161   1.806   7.533  13.305
11930POPC  H15R94162   1.883   7.602  13.346
11930POPC  H15S94163   1.780   7.569  13.203
11930POPC  C21694164   1.867   7.393  13.303
11930POPC  H16R94165   1.785   7.324  13.330
11930POPC  H16S94166   1.942   7.384  13.384
11930POPC  C21794167   1.931   7.350  13.169
11930POPC  H17R94168   1.953   7.241  13.177
11930POPC  H17S94169   2.029   7.403  13.160
11930POPC  C21894170   1.849   7.377  13.042
11930POPC  H18R94171   1.851   7.484  13.015
11930POPC  H18S94172   1.743   7.348  13.052
11930POPC  H18T94173   1.889   7.318  12.957
11930POPC   C3394174   1.900   7.308  14.116
11930POPC   H3X94175   1.817   7.253  14.164
11930POPC   H3Y94176   1.959   7.352  14.200
11930POPC   C3494177   1.994   7.213  14.042
11930POPC   H4X94178   2.037   7.138  14.111
11930POPC   H4Y94179   2.075   7.283  14.012
11930POPC   C3594180   1.943   7.149  13.911
11930POPC   H5X94181   2.022   7.160  13.834
11930POPC   H5Y94182   1.854   7.202  13.873
11930POPC   C3694183   1.913   6.999  13.923
11930POPC   H6X94184   1.816   6.985  13.976
11930POPC   H6Y94185   1.992   6.951  13.985
11930POPC   C3794186   1.909   6.928  13.786
11930POPC   H7X94187   1.853   6.833  13.801
11930POPC   H7Y94188   2.012   6.902  13.755
11930POPC   C3894189   1.846   7.007  13.670
11930POPC   H8X94190   1.921   7.075  13.627
11930POPC   H8Y94191   1.764   7.069  13.711
11930POPC   C3994192   1.789   6.914  13.561
11930POPC   H9X94193   1.704   6.859  13.606
11930POPC   H9Y94194   1.867   6.839  13.534
11930POPC  C31094195   1.740   6.983  13.433
11930POPC  H10X94196   1.694   6.905  13.368
11930POPC  H10Y94197   1.828   7.023  13.378
11930POPC  C31194198   1.638   7.095  13.457
11930POPC  H11X94199   1.692   7.180  13.504
11930POPC  H11Y94200   1.561   7.059  13.529
11930POPC  C31294201   1.563   7.148  13.333
11930POPC  H12X94202   1.534   7.253  13.358
11930POPC  H12Y94203   1.468   7.095  13.316
11930POPC  C31394204   1.644   7.153  13.202
11930POPC  H13X94205   1.752   7.159  13.227
11930POPC  H13Y94206   1.613   7.247  13.153
11930POPC  C31494207   1.630   7.039  13.101
11930POPC  H14X94208   1.612   6.944  13.155
11930POPC  H14Y94209   1.727   7.027  13.048
11930POPC  C31594210   1.523   7.064  12.993
11930POPC  H15X94211   1.426   7.085  13.043
11930POPC  H15Y94212   1.510   6.969  12.934
11930POPC  C31694213   1.557   7.176  12.894
11930POPC  H16X94214   1.564   7.274  12.945
11930POPC  H16Y94215   1.479   7.184  12.816
11930POPC  H16Z94216   1.654   7.155  12.844
11931POPC     N94217   1.208   6.253  14.719
11931POPC   C1294218   1.347   6.276  14.661
11931POPC  H12A94219   1.368   6.203  14.585
11931POPC  H12B94220   1.419   6.262  14.741
11931POPC   C1394221   1.198   6.334  14.845
11931POPC  H13A94222   1.108   6.315  14.902
11931POPC  H13B94223   1.283   6.316  14.911
11931POPC  H13C94224   1.201   6.440  14.818
11931POPC   C1494225   1.103   6.298  14.622
11931POPC  H14A94226   1.120   6.403  14.597
11931POPC  H14B94227   1.104   6.242  14.529
11931POPC  H14C94228   1.002   6.293  14.662
11931POPC   C1594229   1.198   6.108  14.753
11931POPC  H15A94230   1.195   6.044  14.666
11931POPC  H15B94231   1.110   6.088  14.813
11931POPC  H15C94232   1.284   6.080  14.814
11931POPC   C1194233   1.379   6.414  14.602
11931POPC  H11A94234   1.316   6.430  14.511
11931POPC  H11B94235   1.487   6.415  14.571
11931POPC     P94236   1.362   6.664  14.656
11931POPC   O1394237   1.445   6.738  14.752
11931POPC   O1494238   1.225   6.717  14.640
11931POPC   O1294239   1.356   6.514  14.700
11931POPC   O1194240   1.436   6.658  14.517
11931POPC    C194241   1.423   6.754  14.414
11931POPC    HA94242   1.500   6.731  14.336
11931POPC    HB94243   1.444   6.858  14.450
11931POPC    C294244   1.284   6.749  14.346
11931POPC    HS94245   1.211   6.793  14.418
11931POPC   O2194246   1.251   6.612  14.313
11931POPC   C2194247   1.121   6.595  14.295
11931POPC   O2294248   1.034   6.678  14.319
11931POPC   C2294249   1.094   6.458  14.234
11931POPC   H2R94250   1.043   6.399  14.314
11931POPC   H2S94251   1.189   6.409  14.209
11931POPC    C394252   1.281   6.836  14.219
11931POPC    HX94253   1.310   6.940  14.242
11931POPC    HY94254   1.176   6.836  14.180
11931POPC   O3194255   1.375   6.780  14.125
11931POPC   C3194256   1.343   6.806  14.001
11931POPC   O3294257   1.269   6.895  13.964
11931POPC   C3294258   1.403   6.704  13.907
11931POPC   H2X94259   1.316   6.646  13.870
11931POPC   H2Y94260   1.471   6.636  13.962
11931POPC   C2394261   1.000   6.463  14.111
11931POPC   H3R94262   0.908   6.520  14.133
11931POPC   H3S94263   0.963   6.360  14.090
11931POPC   C2494264   1.067   6.505  13.979
11931POPC   H4R94265   1.174   6.475  13.981
11931POPC   H4S94266   1.063   6.615  13.972
11931POPC   C2594267   0.999   6.436  13.858
11931POPC   H5R94268   0.893   6.467  13.852
11931POPC   H5S94269   1.001   6.326  13.876
11931POPC   C2694270   1.067   6.463  13.723
11931POPC   H6R94271   1.013   6.403  13.645
11931POPC   H6S94272   1.171   6.427  13.726
11931POPC   C2794273   1.063   6.610  13.680
11931POPC   H7R94274   1.122   6.670  13.753
11931POPC   H7S94275   0.957   6.640  13.684
11931POPC   C2894276   1.112   6.640  13.537
11931POPC   H8R94277   1.041   6.594  13.466
11931POPC   H8S94278   1.211   6.591  13.522
11931POPC   C2994279   1.119   6.788  13.512
11931POPC   H9194280   1.057   6.851  13.577
11931POPC  C21094281   1.190   6.846  13.413
11931POPC  H10194282   1.193   6.956  13.406
11931POPC  C21194283   1.274   6.770  13.313
11931POPC  H11R94284   1.237   6.794  13.210
11931POPC  H11S94285   1.264   6.660  13.324
11931POPC  C21294286   1.424   6.804  13.319
11931POPC  H12R94287   1.463   6.805  13.422
11931POPC  H12S94288   1.436   6.906  13.278
11931POPC  C21394289   1.509   6.710  13.233
11931POPC  H13R94290   1.505   6.607  13.274
11931POPC  H13S94291   1.615   6.743  13.235
11931POPC  C21494292   1.457   6.712  13.089
11931POPC  H14R94293   1.426   6.816  13.064
11931POPC  H14S94294   1.366   6.650  13.084
11931POPC  C21594295   1.557   6.665  12.984
11931POPC  H15R94296   1.651   6.724  12.989
11931POPC  H15S94297   1.508   6.686  12.887
11931POPC  C21694298   1.587   6.515  12.996
11931POPC  H16R94299   1.572   6.492  13.104
11931POPC  H16S94300   1.691   6.491  12.972
11931POPC  C21794301   1.488   6.425  12.922
11931POPC  H17R94302   1.409   6.486  12.875
11931POPC  H17S94303   1.441   6.370  13.005
11931POPC  C21894304   1.535   6.316  12.827
11931POPC  H18R94305   1.449   6.269  12.776
11931POPC  H18S94306   1.584   6.234  12.884
11931POPC  H18T94307   1.605   6.355  12.750
11931POPC   C3394308   1.475   6.772  13.790
11931POPC   H3X94309   1.581   6.793  13.818
11931POPC   H3Y94310   1.428   6.870  13.764
11931POPC   C3494311   1.470   6.689  13.662
11931POPC   H4X94312   1.560   6.710  13.602
11931POPC   H4Y94313   1.382   6.721  13.602
11931POPC   C3594314   1.459   6.539  13.686
11931POPC   H5X94315   1.352   6.509  13.691
11931POPC   H5Y94316   1.507   6.511  13.781
11931POPC   C3694317   1.530   6.462  13.576
11931POPC   H6X94318   1.636   6.492  13.586
11931POPC   H6Y94319   1.495   6.495  13.476
11931POPC   C3794320   1.522   6.310  13.591
11931POPC   H7X94321   1.485   6.289  13.695
11931POPC   H7Y94322   1.622   6.262  13.584
11931POPC   C3894323   1.424   6.248  13.492
11931POPC   H8X94324   1.330   6.304  13.513
11931POPC   H8Y94325   1.412   6.142  13.520
11931POPC   C3994326   1.446   6.257  13.339
11931POPC   H9X94327   1.534   6.198  13.308
11931POPC   H9Y94328   1.462   6.362  13.308
11931POPC  C31094329   1.317   6.202  13.274
11931POPC  H10X94330   1.234   6.243  13.336
11931POPC  H10Y94331   1.318   6.091  13.285
11931POPC  C31194332   1.275   6.237  13.130
11931POPC  H11X94333   1.187   6.174  13.106
11931POPC  H11Y94334   1.354   6.206  13.059
11931POPC  C31294335   1.224   6.382  13.110
11931POPC  H12X94336   1.304   6.454  13.132
11931POPC  H12Y94337   1.144   6.403  13.184
11931POPC  C31394338   1.166   6.404  12.968
11931POPC  H13X94339   1.075   6.341  12.962
11931POPC  H13Y94340   1.233   6.363  12.891
11931POPC  C31494341   1.134   6.552  12.934
11931POPC  H14X94342   1.229   6.610  12.931
11931POPC  H14Y94343   1.072   6.596  13.015
11931POPC  C31594344   1.063   6.574  12.799
11931POPC  H15X94345   0.979   6.503  12.791
11931POPC  H15Y94346   1.133   6.550  12.715
11931POPC  C31694347   1.005   6.714  12.778
11931POPC  H16X94348   1.085   6.788  12.756
11931POPC  H16Y94349   0.949   6.747  12.868
11931POPC  H16Z94350   0.933   6.714  12.693
11932POPC     N94351   7.927   6.830  14.793
11932POPC   C1294352   7.936   6.797  14.644
11932POPC  H12A94353   8.037   6.763  14.622
11932POPC  H12B94354   7.918   6.886  14.586
11932POPC   C1394355   8.015   6.944  14.834
11932POPC  H13A94356   7.987   7.039  14.791
11932POPC  H13B94357   8.016   6.954  14.943
11932POPC  H13C94358   8.119   6.924  14.810
11932POPC   C1494359   7.785   6.863  14.830
11932POPC  H14A94360   7.779   6.911  14.927
11932POPC  H14B94361   7.741   6.929  14.757
11932POPC  H14C94362   7.726   6.772  14.836
11932POPC   C1594363   7.966   6.708  14.871
11932POPC  H15A94364   8.069   6.684  14.852
11932POPC  H15B94365   7.908   6.623  14.833
11932POPC  H15C94366   7.951   6.720  14.977
11932POPC   C1194367   7.845   6.684  14.585
11932POPC  H11A94368   7.869   6.675  14.476
11932POPC  H11B94369   7.738   6.714  14.593
11932POPC     P94370   7.825   6.420  14.583
11932POPC   O1394371   7.697   6.436  14.510
11932POPC   O1494372   7.837   6.311  14.684
11932POPC   O1294373   7.865   6.560  14.652
11932POPC   O1194374   7.942   6.404  14.477
11932POPC    C194375   8.079   6.422  14.511
11932POPC    HA94376   8.122   6.324  14.541
11932POPC    HB94377   8.091   6.493  14.596
11932POPC    C294378   8.164   6.481  14.393
11932POPC    HS94379   8.267   6.497  14.434
11932POPC   O2194380   8.107   6.607  14.354
11932POPC   C2194381   8.178   6.678  14.269
11932POPC   O2294382   8.298   6.668  14.251
11932POPC   C2294383   8.088   6.786  14.209
11932POPC   H2R94384   8.113   6.881  14.260
11932POPC   H2S94385   7.981   6.761  14.229
11932POPC    C394386   8.175   6.385  14.270
11932POPC    HX94387   8.213   6.286  14.304
11932POPC    HY94388   8.251   6.425  14.199
11932POPC   O3194389   8.048   6.377  14.201
11932POPC   C3194390   7.974   6.269  14.222
11932POPC   O3294391   8.015   6.161  14.261
11932POPC   C3294392   7.826   6.301  14.194
11932POPC   H2X94393   7.812   6.411  14.194
11932POPC   H2Y94394   7.771   6.261  14.282
11932POPC   C2394395   8.112   6.799  14.058
11932POPC   H3R94396   8.221   6.803  14.035
11932POPC   H3S94397   8.068   6.895  14.022
11932POPC   C2494398   8.047   6.685  13.978
11932POPC   H4R94399   7.939   6.677  14.003
11932POPC   H4S94400   8.095   6.589  14.009
11932POPC   C2594401   8.064   6.707  13.827
11932POPC   H5R94402   8.163   6.754  13.808
11932POPC   H5S94403   7.986   6.779  13.792
11932POPC   C2694404   8.057   6.578  13.744
11932POPC   H6R94405   8.065   6.608  13.637
11932POPC   H6S94406   7.958   6.529  13.757
11932POPC   C2794407   8.171   6.480  13.776
11932POPC   H7R94408   8.135   6.410  13.855
11932POPC   H7S94409   8.256   6.536  13.820
11932POPC   C2894410   8.220   6.400  13.654
11932POPC   H8R94411   8.131   6.353  13.606
11932POPC   H8S94412   8.283   6.316  13.691
11932POPC   C2994413   8.300   6.487  13.560
11932POPC   H9194414   8.393   6.527  13.602
11932POPC  C21094415   8.265   6.520  13.434
11932POPC  H10194416   8.331   6.586  13.375
11932POPC  C21194417   8.138   6.474  13.367
11932POPC  H11R94418   8.050   6.517  13.420
11932POPC  H11S94419   8.129   6.363  13.373
11932POPC  C21294420   8.125   6.514  13.218
11932POPC  H12R94421   8.127   6.625  13.209
11932POPC  H12S94422   8.025   6.481  13.184
11932POPC  C21394423   8.231   6.451  13.127
11932POPC  H13R94424   8.234   6.341  13.145
11932POPC  H13S94425   8.331   6.492  13.154
11932POPC  C21494426   8.206   6.476  12.977
11932POPC  H14R94427   8.293   6.436  12.921
11932POPC  H14S94428   8.201   6.585  12.957
11932POPC  C21594429   8.079   6.408  12.923
11932POPC  H15R94430   7.988   6.460  12.961
11932POPC  H15S94431   8.077   6.304  12.963
11932POPC  C21694432   8.077   6.403  12.770
11932POPC  H16R94433   8.165   6.344  12.737
11932POPC  H16S94434   8.090   6.506  12.729
11932POPC  C21794435   7.951   6.341  12.706
11932POPC  H17R94436   7.982   6.290  12.612
11932POPC  H17S94437   7.883   6.424  12.676
11932POPC  C21894438   7.872   6.242  12.792
11932POPC  H18R94439   7.803   6.184  12.728
11932POPC  H18S94440   7.812   6.296  12.869
11932POPC  H18T94441   7.939   6.171  12.844
11932POPC   C3394442   7.767   6.236  14.066
11932POPC   H3X94443   7.657   6.225  14.081
11932POPC   H3Y94444   7.806   6.132  14.061
11932POPC   C3494445   7.787   6.315  13.935
11932POPC   H4X94446   7.883   6.371  13.939
11932POPC   H4Y94447   7.705   6.390  13.927
11932POPC   C3594448   7.789   6.226  13.808
11932POPC   H5X94449   7.716   6.143  13.820
11932POPC   H5Y94450   7.891   6.184  13.800
11932POPC   C3694451   7.762   6.295  13.673
11932POPC   H6X94452   7.835   6.378  13.660
11932POPC   H6Y94453   7.660   6.338  13.671
11932POPC   C3794454   7.780   6.196  13.555
11932POPC   H7X94455   7.691   6.131  13.546
11932POPC   H7Y94456   7.868   6.131  13.578
11932POPC   C3894457   7.814   6.262  13.421
11932POPC   H8X94458   7.833   6.182  13.345
11932POPC   H8Y94459   7.909   6.319  13.433
11932POPC   C3994460   7.706   6.356  13.368
11932POPC   H9X94461   7.671   6.423  13.449
11932POPC   H9Y94462   7.619   6.295  13.334
11932POPC  C31094463   7.757   6.442  13.252
11932POPC  H10X94464   7.810   6.378  13.177
11932POPC  H10Y94465   7.830   6.517  13.291
11932POPC  C31194466   7.641   6.512  13.183
11932POPC  H11X94467   7.587   6.575  13.257
11932POPC  H11Y94468   7.573   6.431  13.146
11932POPC  C31294469   7.675   6.599  13.063
11932POPC  H12X94470   7.597   6.585  12.986
11932POPC  H12Y94471   7.770   6.565  13.017
11932POPC  C31394472   7.674   6.748  13.097
11932POPC  H13X94473   7.754   6.772  13.171
11932POPC  H13Y94474   7.576   6.772  13.145
11932POPC  C31494475   7.690   6.834  12.972
11932POPC  H14X94476   7.626   6.925  12.980
11932POPC  H14Y94477   7.653   6.779  12.882
11932POPC  C31594478   7.835   6.877  12.953
11932POPC  H15X94479   7.869   6.934  13.042
11932POPC  H15Y94480   7.835   6.945  12.867
11932POPC  C31694481   7.932   6.761  12.927
11932POPC  H16X94482   7.904   6.708  12.833
11932POPC  H16Y94483   7.930   6.688  13.010
11932POPC  H16Z94484   8.036   6.796  12.918
11933POPC     N94485   5.353   8.590  14.749
11933POPC   C1294486   5.396   8.554  14.608
11933POPC  H12A94487   5.490   8.603  14.586
11933POPC  H12B94488   5.323   8.592  14.537
11933POPC   C1394489   5.225   8.516  14.781
11933POPC  H13A94490   5.147   8.535  14.708
11933POPC  H13B94491   5.245   8.409  14.782
11933POPC  H13C94492   5.184   8.544  14.878
11933POPC   C1494493   5.460   8.552  14.845
11933POPC  H14A94494   5.485   8.447  14.830
11933POPC  H14B94495   5.552   8.607  14.826
11933POPC  H14C94496   5.430   8.569  14.948
11933POPC   C1594497   5.333   8.738  14.752
11933POPC  H15A94498   5.312   8.774  14.853
11933POPC  H15B94499   5.250   8.766  14.689
11933POPC  H15C94500   5.421   8.792  14.719
11933POPC   C1194501   5.414   8.405  14.576
11933POPC  H11A94502   5.435   8.397  14.466
11933POPC  H11B94503   5.318   8.351  14.594
11933POPC     P94504   5.616   8.244  14.590
11933POPC   O1394505   5.676   8.156  14.694
11933POPC   O1494506   5.710   8.316  14.502
11933POPC   O1294507   5.517   8.348  14.658
11933POPC   O1194508   5.509   8.161  14.507
11933POPC    C194509   5.405   8.087  14.574
11933POPC    HA94510   5.350   8.148  14.649
11933POPC    HB94511   5.454   8.003  14.627
11933POPC    C294512   5.298   8.017  14.480
11933POPC    HS94513   5.287   7.911  14.514
11933POPC   O2194514   5.342   8.019  14.343
11933POPC   C2194515   5.462   7.965  14.333
11933POPC   O2294516   5.504   7.875  14.405
11933POPC   C2294517   5.539   8.044  14.228
11933POPC   H2R94518   5.646   8.043  14.256
11933POPC   H2S94519   5.506   8.150  14.233
11933POPC    C394520   5.154   8.077  14.487
11933POPC    HX94521   5.110   8.063  14.587
11933POPC    HY94522   5.090   8.019  14.416
11933POPC   O3194523   5.158   8.218  14.459
11933POPC   C3194524   5.085   8.258  14.357
11933POPC   O3294525   5.002   8.194  14.296
11933POPC   C3294526   5.147   8.388  14.306
11933POPC   H2X94527   5.221   8.428  14.378
11933POPC   H2Y94528   5.066   8.463  14.295
11933POPC   C2394529   5.519   7.991  14.084
11933POPC   H3R94530   5.411   7.995  14.056
11933POPC   H3S94531   5.552   7.885  14.080
11933POPC   C2494532   5.600   8.073  13.984
11933POPC   H4R94533   5.706   8.076  14.019
11933POPC   H4S94534   5.562   8.177  13.983
11933POPC   C2594535   5.598   8.016  13.842
11933POPC   H5R94536   5.659   8.083  13.777
11933POPC   H5S94537   5.494   8.016  13.802
11933POPC   C2694538   5.657   7.874  13.834
11933POPC   H6R94539   5.580   7.799  13.864
11933POPC   H6S94540   5.741   7.868  13.907
11933POPC   C2794541   5.716   7.836  13.697
11933POPC   H7R94542   5.766   7.737  13.708
11933POPC   H7S94543   5.795   7.909  13.675
11933POPC   C2894544   5.614   7.827  13.582
11933POPC   H8R94545   5.526   7.769  13.618
11933POPC   H8S94546   5.659   7.767  13.499
11933POPC   C2994547   5.581   7.965  13.533
11933POPC   H9194548   5.666   8.034  13.524
11933POPC  C21094549   5.459   8.011  13.504
11933POPC  H10194550   5.447   8.115  13.469
11933POPC  C21194551   5.333   7.931  13.516
11933POPC  H11R94552   5.283   7.953  13.612
11933POPC  H11S94553   5.353   7.822  13.509
11933POPC  C21294554   5.237   7.969  13.404
11933POPC  H12R94555   5.194   8.069  13.424
11933POPC  H12S94556   5.154   7.894  13.406
11933POPC  C21394557   5.297   7.967  13.264
11933POPC  H13R94558   5.346   7.868  13.247
11933POPC  H13S94559   5.376   8.045  13.252
11933POPC  C21494560   5.187   7.991  13.163
11933POPC  H14R94561   5.097   7.930  13.186
11933POPC  H14S94562   5.223   7.960  13.064
11933POPC  C21594563   5.151   8.139  13.148
11933POPC  H15R94564   5.244   8.197  13.133
11933POPC  H15S94565   5.098   8.176  13.238
11933POPC  C21694566   5.064   8.151  13.024
11933POPC  H16R94567   4.983   8.074  13.032
11933POPC  H16S94568   5.125   8.126  12.934
11933POPC  C21794569   4.998   8.285  13.002
11933POPC  H17R94570   5.072   8.358  12.961
11933POPC  H17S94571   4.958   8.326  13.097
11933POPC  C21894572   4.885   8.260  12.903
11933POPC  H18R94573   4.853   8.351  12.850
11933POPC  H18S94574   4.797   8.215  12.956
11933POPC  H18T94575   4.917   8.185  12.828
11933POPC   C3394576   5.214   8.354  14.172
11933POPC   H3X94577   5.135   8.316  14.102
11933POPC   H3Y94578   5.287   8.271  14.187
11933POPC   C3494579   5.284   8.469  14.102
11933POPC   H4X94580   5.372   8.503  14.162
11933POPC   H4Y94581   5.215   8.555  14.091
11933POPC   C3594582   5.332   8.423  13.964
11933POPC   H5X94583   5.252   8.365  13.913
11933POPC   H5Y94584   5.418   8.355  13.978
11933POPC   C3694585   5.372   8.540  13.874
11933POPC   H6X94586   5.425   8.615  13.937
11933POPC   H6Y94587   5.281   8.589  13.833
11933POPC   C3794588   5.468   8.498  13.761
11933POPC   H7X94589   5.557   8.450  13.806
11933POPC   H7Y94590   5.502   8.591  13.709
11933POPC   C3894591   5.408   8.403  13.656
11933POPC   H8X94592   5.381   8.305  13.703
11933POPC   H8Y94593   5.488   8.382  13.581
11933POPC   C3994594   5.287   8.461  13.583
11933POPC   H9X94595   5.295   8.572  13.578
11933POPC   H9Y94596   5.196   8.437  13.643
11933POPC  C31094597   5.273   8.407  13.440
11933POPC  H10X94598   5.166   8.406  13.410
11933POPC  H10Y94599   5.309   8.302  13.436
11933POPC  C31194600   5.351   8.493  13.339
11933POPC  H11X94601   5.453   8.514  13.380
11933POPC  H11Y94602   5.298   8.590  13.327
11933POPC  C31294603   5.365   8.425  13.203
11933POPC  H12X94604   5.263   8.404  13.163
11933POPC  H12Y94605   5.417   8.328  13.219
11933POPC  C31394606   5.441   8.508  13.098
11933POPC  H13X94607   5.540   8.538  13.137
11933POPC  H13Y94608   5.383   8.600  13.078
11933POPC  C31494609   5.459   8.433  12.964
11933POPC  H14X94610   5.498   8.504  12.889
11933POPC  H14Y94611   5.359   8.398  12.929
11933POPC  C31594612   5.553   8.313  12.976
11933POPC  H15X94613   5.521   8.250  13.062
11933POPC  H15Y94614   5.654   8.351  13.000
11933POPC  C31694615   5.558   8.222  12.852
11933POPC  H16X94616   5.581   8.118  12.882
11933POPC  H16Y94617   5.637   8.255  12.781
11933POPC  H16Z94618   5.460   8.223  12.800
11934POPC     N94619   4.449   8.596  14.827
11934POPC   C1294620   4.450   8.447  14.792
11934POPC  H12A94621   4.349   8.409  14.796
11934POPC  H12B94622   4.507   8.394  14.868
11934POPC   C1394623   4.590   8.647  14.822
11934POPC  H13A94624   4.597   8.753  14.840
11934POPC  H13B94625   4.656   8.593  14.889
11934POPC  H13C94626   4.631   8.624  14.724
11934POPC   C1494627   4.368   8.680  14.733
11934POPC  H14A94628   4.263   8.655  14.734
11934POPC  H14B94629   4.380   8.786  14.756
11934POPC  H14C94630   4.404   8.669  14.630
11934POPC   C1594631   4.400   8.611  14.968
11934POPC  H15A94632   4.457   8.550  15.037
11934POPC  H15B94633   4.296   8.581  14.976
11934POPC  H15C94634   4.409   8.712  15.003
11934POPC   C1194635   4.515   8.399  14.660
11934POPC  H11A94636   4.470   8.456  14.575
11934POPC  H11B94637   4.491   8.291  14.645
11934POPC     P94638   4.738   8.394  14.532
11934POPC   O1394639   4.701   8.266  14.470
11934POPC   O1494640   4.880   8.425  14.561
11934POPC   O1294641   4.657   8.415  14.668
11934POPC   O1194642   4.676   8.511  14.446
11934POPC    C194643   4.667   8.642  14.500
11934POPC    HA94644   4.742   8.663  14.579
11934POPC    HB94645   4.567   8.657  14.545
11934POPC    C294646   4.687   8.746  14.389
11934POPC    HS94647   4.659   8.844  14.433
11934POPC   O2194648   4.605   8.720  14.273
11934POPC   C2194649   4.476   8.716  14.298
11934POPC   O2294650   4.418   8.765  14.393
11934POPC   C2294651   4.407   8.636  14.187
11934POPC   H2R94652   4.439   8.678  14.090
11934POPC   H2S94653   4.297   8.651  14.198
11934POPC    C394654   4.839   8.750  14.349
11934POPC    HX94655   4.897   8.752  14.444
11934POPC    HY94656   4.865   8.843  14.296
11934POPC   O3194657   4.884   8.636  14.275
11934POPC   C3194658   4.858   8.644  14.145
11934POPC   O3294659   4.816   8.743  14.088
11934POPC   C3294660   4.897   8.515  14.079
11934POPC   H2X94661   4.882   8.431  14.150
11934POPC   H2Y94662   5.004   8.521  14.052
11934POPC   C2394663   4.443   8.486  14.196
11934POPC   H3R94664   4.406   8.443  14.292
11934POPC   H3S94665   4.554   8.476  14.198
11934POPC   C2494666   4.391   8.403  14.078
11934POPC   H4R94667   4.435   8.445  13.985
11934POPC   H4S94668   4.280   8.414  14.071
11934POPC   C2594669   4.427   8.254  14.089
11934POPC   H5R94670   4.352   8.203  14.153
11934POPC   H5S94671   4.526   8.245  14.140
11934POPC   C2694672   4.437   8.184  13.952
11934POPC   H6R94673   4.461   8.077  13.967
11934POPC   H6S94674   4.522   8.230  13.897
11934POPC   C2794675   4.309   8.197  13.867
11934POPC   H7R94676   4.279   8.304  13.861
11934POPC   H7S94677   4.227   8.143  13.918
11934POPC   C2894678   4.323   8.142  13.723
11934POPC   H8R94679   4.222   8.147  13.676
11934POPC   H8S94680   4.350   8.034  13.727
11934POPC   C2994681   4.423   8.218  13.639
11934POPC   H9194682   4.522   8.171  13.627
11934POPC  C21094683   4.400   8.336  13.578
11934POPC  H10194684   4.481   8.383  13.519
11934POPC  C21194685   4.271   8.413  13.583
11934POPC  H11R94686   4.291   8.522  13.595
11934POPC  H11S94687   4.209   8.383  13.671
11934POPC  C21294688   4.186   8.391  13.457
11934POPC  H12R94689   4.084   8.431  13.478
11934POPC  H12S94690   4.174   8.282  13.436
11934POPC  C21394691   4.241   8.465  13.334
11934POPC  H13R94692   4.338   8.421  13.302
11934POPC  H13S94693   4.260   8.570  13.364
11934POPC  C21494694   4.143   8.466  13.217
11934POPC  H14R94695   4.039   8.464  13.256
11934POPC  H14S94696   4.156   8.375  13.155
11934POPC  C21594697   4.159   8.593  13.131
11934POPC  H15R94698   4.263   8.600  13.091
11934POPC  H15S94699   4.141   8.681  13.196
11934POPC  C21694700   4.058   8.595  13.016
11934POPC  H16R94701   4.036   8.700  12.986
11934POPC  H16S94702   3.966   8.548  13.054
11934POPC  C21794703   4.104   8.516  12.894
11934POPC  H17R94704   4.017   8.463  12.849
11934POPC  H17S94705   4.178   8.440  12.927
11934POPC  C21894706   4.167   8.605  12.787
11934POPC  H18R94707   4.092   8.677  12.747
11934POPC  H18S94708   4.206   8.544  12.702
11934POPC  H18T94709   4.251   8.663  12.831
11934POPC   C3394710   4.814   8.492  13.952
11934POPC   H3X94711   4.841   8.570  13.878
11934POPC   H3Y94712   4.705   8.503  13.973
11934POPC   C3494713   4.840   8.353  13.895
11934POPC   H4X94714   4.794   8.279  13.965
11934POPC   H4Y94715   4.950   8.333  13.892
11934POPC   C3594716   4.780   8.335  13.756
11934POPC   H5X94717   4.691   8.400  13.742
11934POPC   H5Y94718   4.740   8.233  13.750
11934POPC   C3694719   4.884   8.357  13.644
11934POPC   H6X94720   4.840   8.324  13.547
11934POPC   H6Y94721   4.975   8.296  13.664
11934POPC   C3794722   4.931   8.502  13.628
11934POPC   H7X94723   5.002   8.507  13.542
11934POPC   H7Y94724   4.987   8.533  13.719
11934POPC   C3894725   4.816   8.599  13.603
11934POPC   H8X94726   4.742   8.598  13.685
11934POPC   H8Y94727   4.762   8.564  13.512
11934POPC   C3994728   4.870   8.741  13.587
11934POPC   H9X94729   4.954   8.739  13.513
11934POPC   H9Y94730   4.913   8.774  13.684
11934POPC  C31094731   4.764   8.842  13.542
11934POPC  H10X94732   4.815   8.940  13.529
11934POPC  H10Y94733   4.689   8.854  13.623
11934POPC  C31194734   4.692   8.804  13.413
11934POPC  H11X94735   4.639   8.894  13.374
11934POPC  H11Y94736   4.614   8.727  13.434
11934POPC  C31294737   4.786   8.749  13.305
11934POPC  H12X94738   4.827   8.649  13.334
11934POPC  H12Y94739   4.873   8.816  13.294
11934POPC  C31394740   4.713   8.730  13.173
11934POPC  H13X94741   4.665   8.824  13.139
11934POPC  H13Y94742   4.628   8.661  13.193
11934POPC  C31494743   4.806   8.677  13.064
11934POPC  H14X94744   4.897   8.634  13.110
11934POPC  H14Y94745   4.839   8.760  12.998
11934POPC  C31594746   4.738   8.570  12.980
11934POPC  H15X94747   4.812   8.535  12.905
11934POPC  H15Y94748   4.656   8.620  12.924
11934POPC  C31694749   4.677   8.453  13.058
11934POPC  H16X94750   4.747   8.416  13.136
11934POPC  H16Y94751   4.652   8.369  12.991
11934POPC  H16Z94752   4.582   8.483  13.107
11935POPC     N94753   8.403   5.962  14.670
11935POPC   C1294754   8.443   5.816  14.657
11935POPC  H12A94755   8.551   5.808  14.660
11935POPC  H12B94756   8.410   5.775  14.562
11935POPC   C1394757   8.417   6.002  14.815
11935POPC  H13A94758   8.510   5.964  14.857
11935POPC  H13B94759   8.411   6.108  14.834
11935POPC  H13C94760   8.340   5.950  14.873
11935POPC   C1494761   8.489   6.047  14.582
11935POPC  H14A94762   8.482   6.017  14.478
11935POPC  H14B94763   8.456   6.150  14.586
11935POPC  H14C94764   8.594   6.039  14.611
11935POPC   C1594765   8.260   5.976  14.627
11935POPC  H15A94766   8.248   5.961  14.520
11935POPC  H15B94767   8.220   6.072  14.654
11935POPC  H15C94768   8.200   5.897  14.674
11935POPC   C1194769   8.387   5.720  14.765
11935POPC  H11A94770   8.411   5.756  14.866
11935POPC  H11B94771   8.439   5.622  14.752
11935POPC     P94772   8.187   5.592  14.665
11935POPC   O1394773   8.040   5.607  14.662
11935POPC   O1494774   8.247   5.462  14.706
11935POPC   O1294775   8.246   5.706  14.757
11935POPC   O1194776   8.253   5.639  14.529
11935POPC    C194777   8.177   5.630  14.408
11935POPC    HA94778   8.102   5.712  14.401
11935POPC    HB94779   8.120   5.534  14.403
11935POPC    C294780   8.273   5.633  14.287
11935POPC    HS94781   8.345   5.550  14.306
11935POPC   O2194782   8.337   5.762  14.274
11935POPC   C2194783   8.467   5.756  14.255
11935POPC   O2294784   8.540   5.663  14.286
11935POPC   C2294785   8.513   5.886  14.189
11935POPC   H2R94786   8.555   5.953  14.266
11935POPC   H2S94787   8.425   5.935  14.143
11935POPC    C394788   8.199   5.602  14.155
11935POPC    HX94789   8.149   5.503  14.166
11935POPC    HY94790   8.272   5.594  14.071
11935POPC   O3194791   8.097   5.700  14.133
11935POPC   C3194792   8.120   5.794  14.045
11935POPC   O3294793   8.223   5.815  13.984
11935POPC   C3294794   7.987   5.864  14.025
11935POPC   H2X94795   7.956   5.909  14.122
11935POPC   H2Y94796   7.914   5.786  13.998
11935POPC   C2394797   8.617   5.858  14.079
11935POPC   H3R94798   8.709   5.810  14.120
11935POPC   H3S94799   8.647   5.955  14.033
11935POPC   C2494800   8.558   5.769  13.969
11935POPC   H4R94801   8.456   5.807  13.944
11935POPC   H4S94802   8.545   5.664  14.006
11935POPC   C2594803   8.638   5.768  13.839
11935POPC   H5R94804   8.738   5.721  13.856
11935POPC   H5S94805   8.654   5.873  13.807
11935POPC   C2694806   8.563   5.692  13.729
11935POPC   H6R94807   8.458   5.729  13.726
11935POPC   H6S94808   8.561   5.584  13.754
11935POPC   C2794809   8.626   5.713  13.590
11935POPC   H7R94810   8.719   5.653  13.584
11935POPC   H7S94811   8.652   5.821  13.580
11935POPC   C2894812   8.532   5.677  13.474
11935POPC   H8R94813   8.580   5.707  13.378
11935POPC   H8S94814   8.442   5.740  13.485
11935POPC   C2994815   8.496   5.531  13.476
11935POPC   H9194816   8.477   5.489  13.576
11935POPC  C21094817   8.478   5.452  13.370
11935POPC  H10194818   8.455   5.346  13.387
11935POPC  C21194819   8.489   5.490  13.224
11935POPC  H11R94820   8.582   5.451  13.178
11935POPC  H11S94821   8.486   5.600  13.208
11935POPC  C21294822   8.368   5.427  13.154
11935POPC  H12R94823   8.275   5.474  13.196
11935POPC  H12S94824   8.363   5.317  13.173
11935POPC  C21394825   8.364   5.448  13.004
11935POPC  H13R94826   8.390   5.553  12.983
11935POPC  H13S94827   8.260   5.430  12.969
11935POPC  C21494828   8.459   5.358  12.925
11935POPC  H14R94829   8.459   5.256  12.970
11935POPC  H14S94830   8.562   5.399  12.932
11935POPC  C21594831   8.416   5.346  12.779
11935POPC  H15R94832   8.327   5.279  12.776
11935POPC  H15S94833   8.499   5.298  12.722
11935POPC  C21694834   8.377   5.476  12.709
11935POPC  H16R94835   8.306   5.536  12.769
11935POPC  H16S94836   8.324   5.448  12.616
11935POPC  C21794837   8.498   5.560  12.669
11935POPC  H17R94838   8.562   5.500  12.600
11935POPC  H17S94839   8.559   5.583  12.760
11935POPC  C21894840   8.458   5.691  12.602
11935POPC  H18R94841   8.542   5.737  12.546
11935POPC  H18S94842   8.426   5.763  12.679
11935POPC  H18T94843   8.375   5.676  12.530
11935POPC   C3394844   7.982   5.967  13.912
11935POPC   H3X94845   8.065   6.041  13.915
11935POPC   H3Y94846   7.887   6.022  13.929
11935POPC   C3494847   7.962   5.906  13.774
11935POPC   H4X94848   7.911   5.982  13.711
11935POPC   H4Y94849   7.894   5.818  13.778
11935POPC   C3594850   8.092   5.871  13.704
11935POPC   H5X94851   8.133   5.776  13.746
11935POPC   H5Y94852   8.168   5.950  13.719
11935POPC   C3694853   8.061   5.856  13.556
11935POPC   H6X94854   8.072   5.955  13.506
11935POPC   H6Y94855   7.956   5.822  13.542
11935POPC   C3794856   8.150   5.752  13.490
11935POPC   H7X94857   8.137   5.653  13.539
11935POPC   H7Y94858   8.255   5.783  13.505
11935POPC   C3894859   8.119   5.743  13.341
11935POPC   H8X94860   8.009   5.734  13.325
11935POPC   H8Y94861   8.167   5.652  13.300
11935POPC   C3994862   8.174   5.865  13.269
11935POPC   H9X94863   8.277   5.885  13.309
11935POPC   H9Y94864   8.113   5.956  13.289
11935POPC  C31094865   8.186   5.840  13.120
11935POPC  H10X94866   8.099   5.888  13.069
11935POPC  H10Y94867   8.181   5.730  13.101
11935POPC  C31194868   8.319   5.889  13.062
11935POPC  H11X94869   8.403   5.851  13.125
11935POPC  H11Y94870   8.321   6.000  13.066
11935POPC  C31294871   8.339   5.839  12.919
11935POPC  H12X94872   8.364   5.732  12.921
11935POPC  H12Y94873   8.426   5.891  12.872
11935POPC  C31394874   8.215   5.855  12.831
11935POPC  H13X94875   8.126   5.806  12.877
11935POPC  H13Y94876   8.228   5.800  12.736
11935POPC  C31494877   8.186   6.003  12.810
11935POPC  H14X94878   8.255   6.065  12.872
11935POPC  H14Y94879   8.083   6.024  12.847
11935POPC  C31594880   8.197   6.053  12.666
11935POPC  H15X94881   8.230   6.158  12.673
11935POPC  H15Y94882   8.093   6.059  12.629
11935POPC  C31694883   8.287   5.977  12.568
11935POPC  H16X94884   8.249   5.877  12.540
11935POPC  H16Y94885   8.388   5.960  12.610
11935POPC  H16Z94886   8.294   6.034  12.473
11936POPC     N94887   7.848   2.710  14.551
11936POPC   C1294888   7.927   2.821  14.620
11936POPC  H12A94889   7.864   2.908  14.632
11936POPC  H12B94890   8.011   2.848  14.557
11936POPC   C1394891   7.950   2.615  14.495
11936POPC  H13A94892   8.011   2.665  14.421
11936POPC  H13B94893   8.018   2.589  14.577
11936POPC  H13C94894   7.908   2.525  14.455
11936POPC   C1494895   7.770   2.633  14.653
11936POPC  H14A94896   7.840   2.594  14.727
11936POPC  H14B94897   7.705   2.698  14.710
11936POPC  H14C94898   7.716   2.551  14.610
11936POPC   C1594899   7.763   2.761  14.441
11936POPC  H15A94900   7.709   2.680  14.393
11936POPC  H15B94901   7.822   2.810  14.364
11936POPC  H15C94902   7.690   2.832  14.479
11936POPC   C1194903   7.983   2.785  14.759
11936POPC  H11A94904   7.899   2.767  14.829
11936POPC  H11B94905   8.040   2.871  14.802
11936POPC     P94906   8.217   2.667  14.750
11936POPC   O1394907   8.261   2.528  14.774
11936POPC   O1494908   8.270   2.775  14.836
11936POPC   O1294909   8.059   2.665  14.757
11936POPC   O1194910   8.244   2.704  14.597
11936POPC    C194911   8.381   2.737  14.569
11936POPC    HA94912   8.445   2.648  14.590
11936POPC    HB94913   8.415   2.823  14.630
11936POPC    C294914   8.411   2.775  14.421
11936POPC    HS94915   8.378   2.880  14.402
11936POPC   O2194916   8.350   2.684  14.330
11936POPC   C2194917   8.225   2.702  14.299
11936POPC   O2294918   8.149   2.791  14.334
11936POPC   C2294919   8.186   2.588  14.205
11936POPC   H2R94920   8.119   2.521  14.263
11936POPC   H2S94921   8.277   2.530  14.179
11936POPC    C394922   8.565   2.765  14.397
11936POPC    HX94923   8.595   2.661  14.420
11936POPC    HY94924   8.617   2.832  14.469
11936POPC   O3194925   8.601   2.800  14.263
11936POPC   C3194926   8.581   2.706  14.171
11936POPC   O3294927   8.600   2.586  14.181
11936POPC   C3294928   8.520   2.779  14.053
11936POPC   H2X94929   8.599   2.846  14.012
11936POPC   H2Y94930   8.433   2.838  14.089
11936POPC   C2394931   8.115   2.630  14.074
11936POPC   H3R94932   8.182   2.695  14.013
11936POPC   H3S94933   8.022   2.688  14.095
11936POPC   C2494934   8.081   2.503  13.995
11936POPC   H4R94935   8.002   2.446  14.049
11936POPC   H4S94936   8.173   2.440  13.993
11936POPC   C2594937   8.038   2.525  13.849
11936POPC   H5R94938   8.108   2.595  13.800
11936POPC   H5S94939   7.936   2.570  13.846
11936POPC   C2694940   8.039   2.391  13.772
11936POPC   H6R94941   7.969   2.319  13.819
11936POPC   H6S94942   8.142   2.349  13.780
11936POPC   C2794943   8.007   2.404  13.622
11936POPC   H7R94944   8.022   2.306  13.573
11936POPC   H7S94945   8.079   2.476  13.579
11936POPC   C2894946   7.864   2.455  13.592
11936POPC   H8R94947   7.847   2.549  13.649
11936POPC   H8S94948   7.792   2.379  13.631
11936POPC   C2994949   7.841   2.479  13.445
11936POPC   H9194950   7.792   2.397  13.391
11936POPC  C21094951   7.879   2.588  13.376
11936POPC  H10194952   7.859   2.592  13.268
11936POPC  C21194953   7.952   2.709  13.431
11936POPC  H11R94954   8.037   2.674  13.495
11936POPC  H11S94955   7.887   2.768  13.498
11936POPC  C21294956   8.012   2.804  13.325
11936POPC  H12R94957   8.079   2.749  13.255
11936POPC  H12S94958   8.076   2.878  13.379
11936POPC  C21394959   7.914   2.882  13.238
11936POPC  H13R94960   7.858   2.954  13.302
11936POPC  H13S94961   7.841   2.814  13.189
11936POPC  C21494962   7.991   2.958  13.130
11936POPC  H14R94963   8.021   2.887  13.050
11936POPC  H14S94964   8.085   2.998  13.175
11936POPC  C21594965   7.916   3.077  13.069
11936POPC  H15R94966   7.901   3.154  13.148
11936POPC  H15S94967   7.816   3.047  13.031
11936POPC  C21694968   8.000   3.135  12.955
11936POPC  H16R94969   7.981   3.077  12.862
11936POPC  H16S94970   8.108   3.122  12.980
11936POPC  C21794971   7.976   3.284  12.931
11936POPC  H17R94972   7.997   3.339  13.025
11936POPC  H17S94973   7.869   3.300  12.905
11936POPC  C21894974   8.065   3.339  12.819
11936POPC  H18R94975   8.044   3.446  12.802
11936POPC  H18S94976   8.049   3.284  12.724
11936POPC  H18T94977   8.172   3.327  12.847
11936POPC   C3394978   8.478   2.688  13.937
11936POPC   H3X94979   8.394   2.621  13.966
11936POPC   H3Y94980   8.569   2.629  13.916
11936POPC   C3494981   8.448   2.766  13.810
11936POPC   H4X94982   8.545   2.812  13.780
11936POPC   H4Y94983   8.375   2.847  13.831
11936POPC   C3594984   8.394   2.684  13.691
11936POPC   H5X94985   8.283   2.682  13.698
11936POPC   H5Y94986   8.428   2.579  13.698
11936POPC   C3694987   8.441   2.741  13.556
11936POPC   H6X94988   8.550   2.762  13.563
11936POPC   H6Y94989   8.387   2.837  13.537
11936POPC   C3794990   8.425   2.648  13.435
11936POPC   H7X94991   8.499   2.565  13.448
11936POPC   H7Y94992   8.453   2.702  13.341
11936POPC   C3894993   8.284   2.590  13.419
11936POPC   H8X94994   8.226   2.655  13.351
11936POPC   H8Y94995   8.234   2.592  13.517
11936POPC   C3994996   8.283   2.446  13.367
11936POPC   H9X94997   8.213   2.385  13.429
11936POPC   H9Y94998   8.384   2.406  13.383
11936POPC  C31094999   8.244   2.431  13.219
11936POPC  H10X95000   8.274   2.329  13.187
11936POPC  H10Y95001   8.298   2.504  13.156
11936POPC  C31195002   8.092   2.442  13.198
11936POPC  H11X95003   8.066   2.550  13.186
11936POPC  H11Y95004   8.043   2.403  13.289
11936POPC  C31295005   8.033   2.361  13.081
11936POPC  H12X95006   7.929   2.395  13.061
11936POPC  H12Y95007   8.026   2.256  13.115
11936POPC  C31395008   8.116   2.367  12.953
11936POPC  H13X95009   8.075   2.293  12.881
11936POPC  H13Y95010   8.219   2.333  12.975
11936POPC  C31495011   8.119   2.507  12.891
11936POPC  H14X95012   8.090   2.581  12.968
11936POPC  H14Y95013   8.044   2.514  12.809
11936POPC  C31595014   8.257   2.545  12.839
11936POPC  H15X95015   8.267   2.505  12.736
11936POPC  H15Y95016   8.336   2.496  12.900
11936POPC  C31695017   8.283   2.696  12.841
11936POPC  H16X95018   8.347   2.725  12.755
11936POPC  H16Y95019   8.336   2.726  12.934
11936POPC  H16Z95020   8.188   2.753  12.834
11937POPC     N95021   8.557   4.913  14.837
11937POPC   C1295022   8.429   4.874  14.764
11937POPC  H12A95023   8.353   4.948  14.785
11937POPC  H12B95024   8.397   4.779  14.804
11937POPC   C1395025   8.607   5.047  14.795
11937POPC  H13A95026   8.530   5.123  14.809
11937POPC  H13B95027   8.695   5.076  14.851
11937POPC  H13C95028   8.631   5.044  14.689
11937POPC   C1495029   8.532   4.914  14.984
11937POPC  H14A95030   8.440   4.967  15.006
11937POPC  H14B95031   8.524   4.812  15.024
11937POPC  H14C95032   8.615   4.960  15.035
11937POPC   C1595033   8.660   4.810  14.807
11937POPC  H15A95034   8.680   4.808  14.700
11937POPC  H15B95035   8.624   4.710  14.830
11937POPC  H15C95036   8.753   4.828  14.858
11937POPC   C1195037   8.435   4.853  14.610
11937POPC  H11A95038   8.479   4.944  14.564
11937POPC  H11B95039   8.330   4.844  14.572
11937POPC     P95040   8.608   4.728  14.456
11937POPC   O1395041   8.543   4.777  14.333
11937POPC   O1495042   8.672   4.594  14.452
11937POPC   O1295043   8.503   4.733  14.575
11937POPC   O1195044   8.712   4.838  14.506
11937POPC    C195045   8.771   4.928  14.412
11937POPC    HA95046   8.765   4.890  14.307
11937POPC    HB95047   8.879   4.937  14.436
11937POPC    C295048   8.711   5.073  14.414
11937POPC    HS95049   8.730   5.112  14.517
11937POPC   O2195050   8.570   5.074  14.385
11937POPC   C2195051   8.510   5.190  14.412
11937POPC   O2295052   8.563   5.283  14.472
11937POPC   C2295053   8.369   5.193  14.351
11937POPC   H2R95054   8.301   5.238  14.427
11937POPC   H2S95055   8.335   5.090  14.331
11937POPC    C395056   8.789   5.162  14.312
11937POPC    HX95057   8.895   5.170  14.345
11937POPC    HY95058   8.747   5.265  14.314
11937POPC   O3195059   8.786   5.101  14.182
11937POPC   C3195060   8.745   5.175  14.081
11937POPC   O3295061   8.726   5.296  14.083
11937POPC   C3295062   8.729   5.085  13.959
11937POPC   H2X95063   8.651   5.127  13.893
11937POPC   H2Y95064   8.697   4.984  13.993
11937POPC   C2395065   8.363   5.279  14.221
11937POPC   H3R95066   8.423   5.372  14.232
11937POPC   H3S95067   8.257   5.308  14.205
11937POPC   C2495068   8.410   5.204  14.096
11937POPC   H4R95069   8.440   5.100  14.122
11937POPC   H4S95070   8.500   5.256  14.057
11937POPC   C2595071   8.310   5.201  13.980
11937POPC   H5R95072   8.287   5.305  13.948
11937POPC   H5S95073   8.215   5.154  14.015
11937POPC   C2695074   8.366   5.122  13.861
11937POPC   H6R95075   8.390   5.020  13.900
11937POPC   H6S95076   8.461   5.168  13.826
11937POPC   C2795077   8.271   5.111  13.742
11937POPC   H7R95078   8.255   5.213  13.699
11937POPC   H7S95079   8.173   5.075  13.778
11937POPC   C2895080   8.317   5.016  13.629
11937POPC   H8R95081   8.400   5.067  13.573
11937POPC   H8S95082   8.233   5.006  13.557
11937POPC   C2995083   8.366   4.882  13.678
11937POPC   H9195084   8.455   4.887  13.743
11937POPC  C21095085   8.320   4.759  13.647
11937POPC  H10195086   8.370   4.671  13.691
11937POPC  C21195087   8.205   4.728  13.555
11937POPC  H11R95088   8.133   4.810  13.558
11937POPC  H11S95089   8.153   4.636  13.591
11937POPC  C21295090   8.239   4.708  13.407
11937POPC  H12R95091   8.148   4.669  13.356
11937POPC  H12S95092   8.318   4.630  13.396
11937POPC  C21395093   8.282   4.835  13.332
11937POPC  H13R95094   8.374   4.876  13.378
11937POPC  H13S95095   8.203   4.913  13.340
11937POPC  C21495096   8.304   4.797  13.185
11937POPC  H14R95097   8.203   4.773  13.146
11937POPC  H14S95098   8.367   4.705  13.184
11937POPC  C21595099   8.370   4.897  13.090
11937POPC  H15R95100   8.457   4.943  13.140
11937POPC  H15S95101   8.302   4.979  13.064
11937POPC  C21695102   8.419   4.830  12.961
11937POPC  H16R95103   8.489   4.747  12.987
11937POPC  H16S95104   8.479   4.905  12.905
11937POPC  C21795105   8.310   4.773  12.868
11937POPC  H17R95106   8.299   4.664  12.884
11937POPC  H17S95107   8.351   4.784  12.765
11937POPC  C21895108   8.172   4.839  12.868
11937POPC  H18R95109   8.181   4.950  12.864
11937POPC  H18S95110   8.115   4.812  12.959
11937POPC  H18T95111   8.113   4.806  12.780
11937POPC   C3395112   8.863   5.076  13.884
11937POPC   H3X95113   8.944   5.060  13.959
11937POPC   H3Y95114   8.879   5.174  13.832
11937POPC   C3495115   8.873   4.964  13.781
11937POPC   H4X95116   8.860   4.866  13.832
11937POPC   H4Y95117   8.976   4.966  13.737
11937POPC   C3595118   8.772   4.979  13.668
11937POPC   H5X95119   8.784   5.079  13.623
11937POPC   H5Y95120   8.670   4.973  13.712
11937POPC   C3695121   8.788   4.870  13.562
11937POPC   H6X95122   8.809   4.774  13.614
11937POPC   H6Y95123   8.874   4.891  13.495
11937POPC   C3795124   8.663   4.852  13.476
11937POPC   H7X95125   8.574   4.878  13.537
11937POPC   H7Y95126   8.652   4.745  13.448
11937POPC   C3895127   8.661   4.936  13.348
11937POPC   H8X95128   8.558   4.933  13.308
11937POPC   H8Y95129   8.727   4.883  13.276
11937POPC   C3995130   8.702   5.083  13.365
11937POPC   H9X95131   8.812   5.091  13.378
11937POPC   H9Y95132   8.654   5.117  13.460
11937POPC  C31095133   8.654   5.183  13.257
11937POPC  H10X95134   8.666   5.284  13.301
11937POPC  H10Y95135   8.546   5.165  13.238
11937POPC  C31195136   8.731   5.185  13.124
11937POPC  H11X95137   8.833   5.228  13.141
11937POPC  H11Y95138   8.678   5.251  13.052
11937POPC  C31295139   8.746   5.044  13.068
11937POPC  H12X95140   8.647   4.994  13.067
11937POPC  H12Y95141   8.813   4.995  13.141
11937POPC  C31395142   8.812   5.026  12.931
11937POPC  H13X95143   8.915   5.070  12.937
11937POPC  H13Y95144   8.756   5.079  12.852
11937POPC  C31495145   8.823   4.875  12.896
11937POPC  H14X95146   8.903   4.864  12.821
11937POPC  H14Y95147   8.728   4.842  12.847
11937POPC  C31595148   8.850   4.783  13.016
11937POPC  H15X95149   8.754   4.768  13.071
11937POPC  H15Y95150   8.920   4.834  13.086
11937POPC  C31695151   8.910   4.646  12.986
11937POPC  H16X95152   8.925   4.589  13.081
11937POPC  H16Y95153   9.010   4.658  12.938
11937POPC  H16Z95154   8.845   4.586  12.919
11938POPC     N95155   1.515   2.511  14.832
11938POPC   C1295156   1.480   2.411  14.722
11938POPC  H12A95157   1.498   2.310  14.758
11938POPC  H12B95158   1.548   2.427  14.639
11938POPC   C1395159   1.418   2.493  14.946
11938POPC  H13A95160   1.426   2.395  14.992
11938POPC  H13B95161   1.429   2.568  15.022
11938POPC  H13C95162   1.318   2.504  14.907
11938POPC   C1495163   1.655   2.491  14.878
11938POPC  H14A95164   1.675   2.389  14.909
11938POPC  H14B95165   1.726   2.521  14.803
11938POPC  H14C95166   1.679   2.554  14.963
11938POPC   C1595167   1.499   2.653  14.784
11938POPC  H15A95168   1.550   2.669  14.690
11938POPC  H15B95169   1.530   2.727  14.856
11938POPC  H15C95170   1.394   2.672  14.760
11938POPC   C1195171   1.337   2.413  14.665
11938POPC  H11A95172   1.267   2.367  14.738
11938POPC  H11B95173   1.333   2.353  14.570
11938POPC     P95174   1.179   2.592  14.553
11938POPC   O1395175   1.154   2.732  14.589
11938POPC   O1495176   1.072   2.491  14.566
11938POPC   O1295177   1.297   2.546  14.644
11938POPC   O1195178   1.253   2.579  14.413
11938POPC    C195179   1.390   2.624  14.409
11938POPC    HA95180   1.457   2.548  14.454
11938POPC    HB95181   1.405   2.722  14.461
11938POPC    C295182   1.437   2.643  14.264
11938POPC    HS95183   1.377   2.728  14.224
11938POPC   O2195184   1.415   2.518  14.196
11938POPC   C2195185   1.315   2.524  14.109
11938POPC   O2295186   1.279   2.624  14.049
11938POPC   C2295187   1.254   2.386  14.091
11938POPC   H2R95188   1.189   2.365  14.179
11938POPC   H2S95189   1.335   2.310  14.086
11938POPC    C395190   1.588   2.681  14.257
11938POPC    HX95191   1.646   2.595  14.297
11938POPC    HY95192   1.607   2.768  14.323
11938POPC   O3195193   1.631   2.707  14.122
11938POPC   C3195194   1.580   2.820  14.074
11938POPC   O3295195   1.518   2.902  14.138
11938POPC   C3295196   1.615   2.837  13.926
11938POPC   H2X95197   1.723   2.819  13.912
11938POPC   H2Y95198   1.590   2.942  13.903
11938POPC   C2395199   1.171   2.384  13.961
11938POPC   H3R95200   1.239   2.420  13.881
11938POPC   H3S95201   1.087   2.457  13.969
11938POPC   C2495202   1.115   2.247  13.923
11938POPC   H4R95203   1.052   2.207  14.005
11938POPC   H4S95204   1.201   2.177  13.909
11938POPC   C2595205   1.035   2.251  13.792
11938POPC   H5R95206   0.933   2.292  13.811
11938POPC   H5S95207   1.022   2.147  13.754
11938POPC   C2695208   1.104   2.338  13.687
11938POPC   H6R95209   1.213   2.321  13.696
11938POPC   H6S95210   1.085   2.446  13.707
11938POPC   C2795211   1.068   2.306  13.542
11938POPC   H7R95212   1.120   2.213  13.517
11938POPC   H7S95213   1.114   2.381  13.476
11938POPC   C2895214   0.918   2.292  13.514
11938POPC   H8R95215   0.873   2.213  13.578
11938POPC   H8S95216   0.904   2.258  13.409
11938POPC   C2995217   0.852   2.424  13.541
11938POPC   H9195218   0.833   2.446  13.647
11938POPC  C21095219   0.814   2.513  13.448
11938POPC  H10195220   0.766   2.607  13.481
11938POPC  C21195221   0.828   2.497  13.299
11938POPC  H11R95222   0.734   2.532  13.250
11938POPC  H11S95223   0.842   2.392  13.266
11938POPC  C21295224   0.942   2.582  13.240
11938POPC  H12R95225   0.952   2.678  13.291
11938POPC  H12S95226   0.912   2.605  13.135
11938POPC  C21395227   1.084   2.526  13.249
11938POPC  H13R95228   1.087   2.420  13.216
11938POPC  H13S95229   1.117   2.533  13.355
11938POPC  C21495230   1.183   2.611  13.167
11938POPC  H14R95231   1.282   2.560  13.166
11938POPC  H14S95232   1.196   2.709  13.219
11938POPC  C21595233   1.137   2.641  13.024
11938POPC  H15R95234   1.221   2.686  12.966
11938POPC  H15S95235   1.058   2.719  13.029
11938POPC  C21695236   1.082   2.519  12.948
11938POPC  H16R95237   1.005   2.465  13.007
11938POPC  H16S95238   1.165   2.447  12.930
11938POPC  C21795239   1.018   2.559  12.815
11938POPC  H17R95240   0.995   2.467  12.757
11938POPC  H17S95241   1.096   2.617  12.760
11938POPC  C21895242   0.892   2.646  12.822
11938POPC  H18R95243   0.918   2.748  12.856
11938POPC  H18S95244   0.817   2.603  12.892
11938POPC  H18T95245   0.846   2.655  12.721
11938POPC   C3395246   1.528   2.754  13.831
11938POPC   H3X95247   1.544   2.793  13.728
11938POPC   H3Y95248   1.420   2.765  13.856
11938POPC   C3495249   1.568   2.607  13.834
11938POPC   H4X95250   1.540   2.562  13.932
11938POPC   H4Y95251   1.678   2.597  13.822
11938POPC   C3595252   1.501   2.529  13.721
11938POPC   H5X95253   1.538   2.570  13.625
11938POPC   H5Y95254   1.390   2.545  13.724
11938POPC   C3695255   1.532   2.380  13.733
11938POPC   H6X95256   1.482   2.341  13.825
11938POPC   H6Y95257   1.641   2.366  13.746
11938POPC   C3795258   1.486   2.300  13.612
11938POPC   H7X95259   1.380   2.323  13.588
11938POPC   H7Y95260   1.495   2.192  13.634
11938POPC   C3895261   1.568   2.334  13.488
11938POPC   H8X95262   1.677   2.326  13.510
11938POPC   H8Y95263   1.548   2.440  13.459
11938POPC   C3995264   1.532   2.243  13.371
11938POPC   H9X95265   1.423   2.247  13.352
11938POPC   H9Y95266   1.558   2.138  13.399
11938POPC  C31095267   1.606   2.282  13.244
11938POPC  H10X95268   1.580   2.205  13.169
11938POPC  H10Y95269   1.716   2.279  13.260
11938POPC  C31195270   1.563   2.417  13.186
11938POPC  H11X95271   1.581   2.498  13.260
11938POPC  H11Y95272   1.454   2.414  13.164
11938POPC  C31295273   1.641   2.453  13.060
11938POPC  H12X95274   1.650   2.367  12.992
11938POPC  H12Y95275   1.745   2.474  13.092
11938POPC  C31395276   1.583   2.571  12.980
11938POPC  H13X95277   1.664   2.616  12.919
11938POPC  H13Y95278   1.546   2.650  13.049
11938POPC  C31495279   1.471   2.524  12.885
11938POPC  H14X95280   1.374   2.534  12.938
11938POPC  H14Y95281   1.485   2.417  12.862
11938POPC  C31595282   1.463   2.598  12.750
11938POPC  H15X95283   1.436   2.703  12.772
11938POPC  H15Y95284   1.379   2.553  12.693
11938POPC  C31695285   1.588   2.594  12.661
11938POPC  H16X95286   1.634   2.493  12.660
11938POPC  H16Y95287   1.666   2.665  12.696
11938POPC  H16Z95288   1.562   2.621  12.557
11939POPC     N95289   2.311   7.909  14.905
11939POPC   C1295290   2.235   7.991  14.800
11939POPC  H12A95291   2.282   8.087  14.791
11939POPC  H12B95292   2.133   8.007  14.832
11939POPC   C1395293   2.245   7.776  14.920
11939POPC  H13A95294   2.241   7.723  14.825
11939POPC  H13B95295   2.297   7.714  14.993
11939POPC  H13C95296   2.143   7.784  14.954
11939POPC   C1495297   2.452   7.886  14.860
11939POPC  H14A95298   2.453   7.859  14.754
11939POPC  H14B95299   2.512   7.976  14.865
11939POPC  H14C95300   2.502   7.808  14.915
11939POPC   C1595301   2.311   7.982  15.036
11939POPC  H15A95302   2.211   8.009  15.067
11939POPC  H15B95303   2.369   8.073  15.030
11939POPC  H15C95304   2.356   7.919  15.112
11939POPC   C1195305   2.229   7.936  14.655
11939POPC  H11A95306   2.159   8.001  14.598
11939POPC  H11B95307   2.185   7.833  14.655
11939POPC     P95308   2.371   7.926  14.439
11939POPC   O1395309   2.511   7.908  14.395
11939POPC   O1495310   2.288   8.033  14.380
11939POPC   O1295311   2.360   7.936  14.597
11939POPC   O1195312   2.298   7.788  14.428
11939POPC    C195313   2.352   7.674  14.494
11939POPC    HA95314   2.312   7.665  14.597
11939POPC    HB95315   2.463   7.678  14.503
11939POPC    C295316   2.309   7.551  14.413
11939POPC    HS95317   2.341   7.459  14.469
11939POPC   O2195318   2.372   7.554  14.284
11939POPC   C2195319   2.502   7.550  14.282
11939POPC   O2295320   2.574   7.509  14.371
11939POPC   C2295321   2.550   7.604  14.147
11939POPC   H2R95322   2.659   7.588  14.145
11939POPC   H2S95323   2.530   7.713  14.148
11939POPC    C395324   2.152   7.546  14.397
11939POPC    HX95325   2.110   7.571  14.497
11939POPC    HY95326   2.112   7.446  14.373
11939POPC   O3195327   2.103   7.644  14.304
11939POPC   C3195328   2.120   7.617  14.176
11939POPC   O3295329   2.149   7.510  14.126
11939POPC   C3295330   2.096   7.741  14.093
11939POPC   H2X95331   2.054   7.821  14.159
11939POPC   H2Y95332   2.021   7.717  14.015
11939POPC   C2395333   2.485   7.538  14.021
11939POPC   H3R95334   2.375   7.551  14.018
11939POPC   H3S95335   2.508   7.430  14.025
11939POPC   C2495336   2.554   7.594  13.897
11939POPC   H4R95337   2.659   7.561  13.917
11939POPC   H4S95338   2.547   7.705  13.899
11939POPC   C2595339   2.525   7.543  13.755
11939POPC   H5R95340   2.498   7.437  13.756
11939POPC   H5S95341   2.621   7.551  13.698
11939POPC   C2695342   2.424   7.627  13.677
11939POPC   H6R95343   2.443   7.736  13.692
11939POPC   H6S95344   2.324   7.605  13.719
11939POPC   C2795345   2.429   7.599  13.525
11939POPC   H7R95346   2.428   7.489  13.511
11939POPC   H7S95347   2.525   7.635  13.483
11939POPC   C2895348   2.313   7.662  13.447
11939POPC   H8R95349   2.321   7.642  13.338
11939POPC   H8S95350   2.317   7.772  13.462
11939POPC   C2995351   2.188   7.599  13.504
11939POPC   H9195352   2.198   7.490  13.518
11939POPC  C21095353   2.072   7.656  13.536
11939POPC  H10195354   2.003   7.594  13.595
11939POPC  C21195355   2.028   7.800  13.526
11939POPC  H11R95356   2.067   7.859  13.612
11939POPC  H11S95357   1.917   7.803  13.534
11939POPC  C21295358   2.062   7.874  13.394
11939POPC  H12R95359   2.170   7.893  13.388
11939POPC  H12S95360   2.011   7.973  13.396
11939POPC  C21395361   2.018   7.799  13.268
11939POPC  H13R95362   1.909   7.787  13.275
11939POPC  H13S95363   2.063   7.697  13.266
11939POPC  C21495364   2.054   7.866  13.134
11939POPC  H14R95365   2.164   7.872  13.128
11939POPC  H14S95366   2.014   7.970  13.131
11939POPC  C21595367   2.003   7.786  13.014
11939POPC  H15R95368   1.895   7.807  13.000
11939POPC  H15S95369   2.013   7.678  13.036
11939POPC  C21695370   2.079   7.818  12.884
11939POPC  H16R95371   2.183   7.777  12.891
11939POPC  H16S95372   2.088   7.928  12.871
11939POPC  C21795373   2.012   7.759  12.759
11939POPC  H17R95374   2.059   7.801  12.668
11939POPC  H17S95375   1.904   7.786  12.757
11939POPC  C21895376   2.026   7.608  12.756
11939POPC  H18R95377   1.978   7.567  12.664
11939POPC  H18S95378   1.978   7.561  12.844
11939POPC  H18T95379   2.134   7.580  12.755
11939POPC   C3395380   2.223   7.788  14.024
11939POPC   H3X95381   2.254   7.716  13.945
11939POPC   H3Y95382   2.307   7.798  14.098
11939POPC   C3495383   2.197   7.924  13.962
11939POPC   H4X95384   2.157   7.993  14.041
11939POPC   H4Y95385   2.118   7.913  13.884
11939POPC   C3595386   2.323   7.984  13.904
11939POPC   H5X95387   2.373   7.912  13.836
11939POPC   H5Y95388   2.394   8.004  13.989
11939POPC   C3695389   2.296   8.115  13.831
11939POPC   H6X95390   2.395   8.151  13.795
11939POPC   H6Y95391   2.252   8.188  13.904
11939POPC   C3795392   2.203   8.106  13.710
11939POPC   H7X95393   2.099   8.083  13.741
11939POPC   H7Y95394   2.239   8.019  13.651
11939POPC   C3895395   2.206   8.235  13.627
11939POPC   H8X95396   2.300   8.290  13.650
11939POPC   H8Y95397   2.122   8.301  13.660
11939POPC   C3995398   2.201   8.213  13.475
11939POPC   H9X95399   2.203   8.313  13.425
11939POPC   H9Y95400   2.104   8.165  13.450
11939POPC  C31095401   2.317   8.128  13.422
11939POPC  H10X95402   2.312   8.026  13.465
11939POPC  H10Y95403   2.414   8.171  13.454
11939POPC  C31195404   2.314   8.112  13.269
11939POPC  H11X95405   2.357   8.203  13.222
11939POPC  H11Y95406   2.209   8.101  13.235
11939POPC  C31295407   2.392   7.988  13.223
11939POPC  H12X95408   2.340   7.896  13.260
11939POPC  H12Y95409   2.493   7.988  13.269
11939POPC  C31395410   2.406   7.978  13.070
11939POPC  H13X95411   2.476   8.059  13.039
11939POPC  H13Y95412   2.309   7.997  13.020
11939POPC  C31495413   2.463   7.843  13.025
11939POPC  H14X95414   2.382   7.777  12.986
11939POPC  H14Y95415   2.505   7.791  13.114
11939POPC  C31595416   2.574   7.858  12.921
11939POPC  H15X95417   2.636   7.946  12.946
11939POPC  H15Y95418   2.528   7.877  12.822
11939POPC  C31695419   2.666   7.737  12.915
11939POPC  H16X95420   2.726   7.727  13.008
11939POPC  H16Y95421   2.735   7.746  12.829
11939POPC  H16Z95422   2.607   7.644  12.903
11940POPC     N95423   7.432   2.078  14.834
11940POPC   C1295424   7.517   2.130  14.719
11940POPC  H12A95425   7.572   2.218  14.748
11940POPC  H12B95426   7.452   2.155  14.636
11940POPC   C1395427   7.397   1.935  14.806
11940POPC  H13A95428   7.489   1.876  14.799
11940POPC  H13B95429   7.333   1.890  14.879
11940POPC  H13C95430   7.358   1.924  14.704
11940POPC   C1495431   7.511   2.084  14.962
11940POPC  H14A95432   7.453   2.051  15.048
11940POPC  H14B95433   7.599   2.021  14.957
11940POPC  H14C95434   7.546   2.185  14.986
11940POPC   C1595435   7.307   2.158  14.851
11940POPC  H15A95436   7.242   2.144  14.764
11940POPC  H15B95437   7.325   2.264  14.864
11940POPC  H15C95438   7.254   2.122  14.938
11940POPC   C1195439   7.615   2.030  14.654
11940POPC  H11A95440   7.668   1.971  14.733
11940POPC  H11B95441   7.692   2.085  14.595
11940POPC     P95442   7.579   1.802  14.533
11940POPC   O1395443   7.574   1.728  14.662
11940POPC   O1495444   7.705   1.800  14.455
11940POPC   O1295445   7.538   1.951  14.565
11940POPC   O1195446   7.455   1.756  14.444
11940POPC    C195447   7.337   1.702  14.506
11940POPC    HA95448   7.331   1.727  14.615
11940POPC    HB95449   7.344   1.592  14.501
11940POPC    C295450   7.199   1.744  14.444
11940POPC    HS95451   7.124   1.669  14.477
11940POPC   O2195452   7.203   1.748  14.300
11940POPC   C2195453   7.081   1.754  14.243
11940POPC   O2295454   6.977   1.754  14.305
11940POPC   C2295455   7.092   1.748  14.091
11940POPC   H2R95456   7.010   1.682  14.056
11940POPC   H2S95457   7.190   1.703  14.065
11940POPC    C395458   7.156   1.884  14.503
11940POPC    HX95459   7.150   1.871  14.613
11940POPC    HY95460   7.052   1.910  14.472
11940POPC   O3195461   7.253   1.987  14.474
11940POPC   C3195462   7.237   2.037  14.351
11940POPC   O3295463   7.130   2.038  14.292
11940POPC   C3295464   7.364   2.099  14.297
11940POPC   H2X95465   7.447   2.079  14.368
11940POPC   H2Y95466   7.347   2.209  14.289
11940POPC   C2395467   7.078   1.885  14.023
11940POPC   H3R95468   7.142   1.960  14.073
11940POPC   H3S95469   6.972   1.919  14.029
11940POPC   C2495470   7.124   1.879  13.878
11940POPC   H4R95471   7.069   1.797  13.827
11940POPC   H4S95472   7.233   1.856  13.872
11940POPC   C2595473   7.094   2.012  13.809
11940POPC   H5R95474   7.150   2.096  13.856
11940POPC   H5S95475   6.986   2.032  13.826
11940POPC   C2695476   7.120   2.006  13.659
11940POPC   H6R95477   7.151   1.903  13.630
11940POPC   H6S95478   7.205   2.071  13.630
11940POPC   C2795479   6.991   2.041  13.585
11940POPC   H7R95480   6.913   1.974  13.628
11940POPC   H7S95481   7.001   2.015  13.477
11940POPC   C2895482   6.946   2.186  13.603
11940POPC   H8R95483   6.938   2.214  13.710
11940POPC   H8S95484   6.847   2.202  13.556
11940POPC   C2995485   7.054   2.262  13.534
11940POPC   H9195486   7.139   2.295  13.596
11940POPC  C21095487   7.053   2.289  13.404
11940POPC  H10195488   7.146   2.328  13.360
11940POPC  C21195489   6.949   2.254  13.301
11940POPC  H11R95490   6.873   2.335  13.294
11940POPC  H11S95491   6.896   2.161  13.326
11940POPC  C21295492   7.020   2.239  13.166
11940POPC  H12R95493   7.077   2.332  13.143
11940POPC  H12S95494   6.943   2.228  13.087
11940POPC  C21395495   7.115   2.118  13.161
11940POPC  H13R95496   7.053   2.028  13.141
11940POPC  H13S95497   7.162   2.101  13.261
11940POPC  C21495498   7.230   2.130  13.060
11940POPC  H14R95499   7.276   2.029  13.050
11940POPC  H14S95500   7.307   2.198  13.102
11940POPC  C21595501   7.195   2.183  12.919
11940POPC  H15R95502   7.279   2.157  12.850
11940POPC  H15S95503   7.187   2.294  12.920
11940POPC  C21695504   7.067   2.124  12.861
11940POPC  H16R95505   6.983   2.194  12.879
11940POPC  H16S95506   7.049   2.029  12.917
11940POPC  C21795507   7.071   2.088  12.712
11940POPC  H17R95508   7.133   2.160  12.655
11940POPC  H17S95509   6.967   2.095  12.672
11940POPC  C21895510   7.120   1.945  12.689
11940POPC  H18R95511   7.075   1.875  12.764
11940POPC  H18S95512   7.230   1.939  12.698
11940POPC  H18T95513   7.089   1.910  12.588
11940POPC   C3395514   7.401   2.043  14.157
11940POPC   H3X95515   7.322   2.071  14.084
11940POPC   H3Y95516   7.405   1.931  14.163
11940POPC   C3495517   7.536   2.093  14.106
11940POPC   H4X95518   7.613   2.069  14.183
11940POPC   H4Y95519   7.532   2.204  14.097
11940POPC   C3595520   7.580   2.032  13.971
11940POPC   H5X95521   7.588   1.922  13.985
11940POPC   H5Y95522   7.681   2.070  13.946
11940POPC   C3695523   7.485   2.062  13.854
11940POPC   H6X95524   7.473   2.173  13.846
11940POPC   H6Y95525   7.384   2.020  13.876
11940POPC   C3795526   7.531   2.008  13.718
11940POPC   H7X95527   7.632   2.048  13.695
11940POPC   H7Y95528   7.461   2.047  13.640
11940POPC   C3895529   7.533   1.854  13.709
11940POPC   H8X95530   7.433   1.814  13.738
11940POPC   H8Y95531   7.607   1.815  13.782
11940POPC   C3995532   7.570   1.800  13.569
11940POPC   H9X95533   7.582   1.690  13.578
11940POPC   H9Y95534   7.667   1.842  13.537
11940POPC  C31095535   7.463   1.827  13.461
11940POPC  H10X95536   7.453   1.936  13.443
11940POPC  H10Y95537   7.365   1.792  13.501
11940POPC  C31195538   7.490   1.754  13.328
11940POPC  H11X95539   7.395   1.745  13.271
11940POPC  H11Y95540   7.523   1.650  13.352
11940POPC  C31295541   7.595   1.821  13.237
11940POPC  H12X95542   7.631   1.746  13.163
11940POPC  H12Y95543   7.682   1.851  13.299
11940POPC  C31395544   7.540   1.942  13.160
11940POPC  H13X95545   7.491   2.011  13.232
11940POPC  H13Y95546   7.463   1.909  13.087
11940POPC  C31495547   7.651   2.020  13.085
11940POPC  H14X95548   7.691   1.959  13.002
11940POPC  H14Y95549   7.733   2.038  13.158
11940POPC  C31595550   7.605   2.157  13.032
11940POPC  H15X95551   7.692   2.226  13.032
11940POPC  H15Y95552   7.530   2.199  13.102
11940POPC  C31695553   7.548   2.154  12.890
11940POPC  H16X95554   7.494   2.249  12.867
11940POPC  H16Y95555   7.476   2.069  12.879
11940POPC  H16Z95556   7.629   2.141  12.815
11941POPC     N95557   0.883   3.367  14.849
11941POPC   C1295558   0.885   3.215  14.832
11941POPC  H12A95559   0.825   3.168  14.907
11941POPC  H12B95560   0.988   3.180  14.844
11941POPC   C1395561   0.880   3.408  14.993
11941POPC  H13A95562   0.779   3.408  15.033
11941POPC  H13B95563   0.944   3.348  15.056
11941POPC  H13C95564   0.914   3.511  15.002
11941POPC   C1495565   1.005   3.424  14.782
11941POPC  H14A95566   1.015   3.379  14.683
11941POPC  H14B95567   1.000   3.531  14.769
11941POPC  H14C95568   1.094   3.399  14.838
11941POPC   C1595569   0.764   3.427  14.782
11941POPC  H15A95570   0.751   3.531  14.814
11941POPC  H15B95571   0.674   3.374  14.808
11941POPC  H15C95572   0.777   3.424  14.675
11941POPC   C1195573   0.840   3.158  14.696
11941POPC  H11A95574   0.730   3.168  14.684
11941POPC  H11B95575   0.863   3.048  14.692
11941POPC     P95576   1.015   3.167  14.500
11941POPC   O1395577   0.953   3.063  14.414
11941POPC   O1495578   1.125   3.129  14.591
11941POPC   O1295579   0.904   3.229  14.593
11941POPC   O1195580   1.052   3.298  14.419
11941POPC    C195581   0.958   3.405  14.398
11941POPC    HA95582   1.001   3.477  14.325
11941POPC    HB95583   0.941   3.462  14.492
11941POPC    C295584   0.819   3.357  14.344
11941POPC    HS95585   0.767   3.309  14.430
11941POPC   O2195586   0.842   3.265  14.238
11941POPC   C2195587   0.756   3.166  14.231
11941POPC   O2295588   0.651   3.158  14.292
11941POPC   C2295589   0.810   3.073  14.124
11941POPC   H2R95590   0.774   2.971  14.142
11941POPC   H2S95591   0.921   3.070  14.135
11941POPC    C395592   0.724   3.469  14.294
11941POPC    HX95593   0.709   3.540  14.377
11941POPC    HY95594   0.625   3.422  14.272
11941POPC   O3195595   0.783   3.537  14.181
11941POPC   C3195596   0.721   3.522  14.065
11941POPC   O3295597   0.615   3.467  14.046
11941POPC   C3295598   0.807   3.585  13.955
11941POPC   H2X95599   0.907   3.611  13.994
11941POPC   H2Y95600   0.756   3.677  13.920
11941POPC   C2395601   0.771   3.131  13.988
11941POPC   H3R95602   0.806   3.237  13.982
11941POPC   H3S95603   0.660   3.134  13.977
11941POPC   C2495604   0.833   3.056  13.872
11941POPC   H4R95605   0.789   2.954  13.865
11941POPC   H4S95606   0.943   3.045  13.887
11941POPC   C2595607   0.805   3.137  13.746
11941POPC   H5R95608   0.868   3.227  13.749
11941POPC   H5S95609   0.699   3.170  13.748
11941POPC   C2695610   0.827   3.060  13.617
11941POPC   H6R95611   0.767   3.109  13.537
11941POPC   H6S95612   0.786   2.958  13.633
11941POPC   C2795613   0.971   3.052  13.566
11941POPC   H7R95614   1.030   2.984  13.632
11941POPC   H7S95615   1.019   3.153  13.571
11941POPC   C2895616   0.974   3.003  13.421
11941POPC   H8R95617   1.078   2.980  13.389
11941POPC   H8S95618   0.937   3.086  13.355
11941POPC   C2995619   0.886   2.883  13.410
11941POPC   H9195620   0.899   2.808  13.490
11941POPC  C21095621   0.792   2.860  13.317
11941POPC  H10195622   0.734   2.767  13.321
11941POPC  C21195623   0.757   2.950  13.202
11941POPC  H11R95624   0.754   3.057  13.234
11941POPC  H11S95625   0.657   2.923  13.166
11941POPC  C21295626   0.851   2.935  13.084
11941POPC  H12R95627   0.862   2.828  13.055
11941POPC  H12S95628   0.952   2.974  13.111
11941POPC  C21395629   0.799   3.012  12.962
11941POPC  H13R95630   0.876   3.004  12.885
11941POPC  H13S95631   0.786   3.120  12.986
11941POPC  C21495632   0.671   2.958  12.901
11941POPC  H14R95633   0.597   3.041  12.908
11941POPC  H14S95634   0.632   2.872  12.961
11941POPC  C21595635   0.673   2.911  12.754
11941POPC  H15R95636   0.575   2.932  12.704
11941POPC  H15S95637   0.686   2.801  12.753
11941POPC  C21695638   0.775   2.971  12.660
11941POPC  H16R95639   0.875   2.945  12.699
11941POPC  H16S95640   0.767   3.082  12.653
11941POPC  C21795641   0.762   2.902  12.525
11941POPC  H17R95642   0.676   2.941  12.466
11941POPC  H17S95643   0.746   2.793  12.544
11941POPC  C21895644   0.891   2.914  12.449
11941POPC  H18R95645   0.969   2.905  12.525
11941POPC  H18S95646   0.899   3.012  12.397
11941POPC  H18T95647   0.910   2.829  12.381
11941POPC   C3395648   0.820   3.484  13.840
11941POPC   H3X95649   0.722   3.435  13.819
11941POPC   H3Y95650   0.893   3.405  13.869
11941POPC   C3495651   0.865   3.547  13.708
11941POPC   H4X95652   0.967   3.590  13.719
11941POPC   H4Y95653   0.796   3.629  13.680
11941POPC   C3595654   0.865   3.440  13.600
11941POPC   H5X95655   0.765   3.390  13.596
11941POPC   H5Y95656   0.942   3.363  13.623
11941POPC   C3695657   0.897   3.496  13.464
11941POPC   H6X95658   1.002   3.533  13.464
11941POPC   H6Y95659   0.830   3.582  13.442
11941POPC   C3795660   0.881   3.390  13.357
11941POPC   H7X95661   0.776   3.352  13.354
11941POPC   H7Y95662   0.949   3.304  13.375
11941POPC   C3895663   0.917   3.457  13.227
11941POPC   H8X95664   1.026   3.478  13.228
11941POPC   H8Y95665   0.864   3.555  13.221
11941POPC   C3995666   0.882   3.378  13.102
11941POPC   H9X95667   0.772   3.370  13.090
11941POPC   H9Y95668   0.925   3.276  13.106
11941POPC  C31095669   0.944   3.460  12.990
11941POPC  H10X95670   1.054   3.457  13.008
11941POPC  H10Y95671   0.911   3.565  12.998
11941POPC  C31195672   0.917   3.405  12.852
11941POPC  H11X95673   0.827   3.340  12.847
11941POPC  H11Y95674   1.008   3.346  12.837
11941POPC  C31295675   0.924   3.505  12.739
11941POPC  H12X95676   0.995   3.585  12.772
11941POPC  H12Y95677   0.826   3.551  12.720
11941POPC  C31395678   0.979   3.443  12.610
11941POPC  H13X95679   1.058   3.369  12.632
11941POPC  H13Y95680   1.025   3.524  12.550
11941POPC  C31495681   0.873   3.376  12.527
11941POPC  H14X95682   0.824   3.295  12.586
11941POPC  H14Y95683   0.923   3.330  12.439
11941POPC  C31595684   0.767   3.476  12.480
11941POPC  H15X95685   0.701   3.509  12.564
11941POPC  H15Y95686   0.704   3.415  12.417
11941POPC  C31695687   0.817   3.596  12.399
11941POPC  H16X95688   0.730   3.656  12.363
11941POPC  H16Y95689   0.875   3.562  12.311
11941POPC  H16Z95690   0.881   3.661  12.461
11942POPC     N95691   7.350   7.379  14.845
11942POPC   C1295692   7.319   7.396  14.697
11942POPC  H12A95693   7.344   7.498  14.667
11942POPC  H12B95694   7.214   7.378  14.680
11942POPC   C1395695   7.484   7.441  14.873
11942POPC  H13A95696   7.559   7.396  14.807
11942POPC  H13B95697   7.488   7.547  14.851
11942POPC  H13C95698   7.515   7.427  14.975
11942POPC   C1495699   7.247   7.441  14.934
11942POPC  H14A95700   7.277   7.430  15.038
11942POPC  H14B95701   7.241   7.548  14.917
11942POPC  H14C95702   7.149   7.395  14.922
11942POPC   C1595703   7.364   7.234  14.877
11942POPC  H15A95704   7.406   7.217  14.975
11942POPC  H15B95705   7.431   7.188  14.805
11942POPC  H15C95706   7.269   7.181  14.871
11942POPC   C1195707   7.395   7.305  14.598
11942POPC  H11A95708   7.358   7.324  14.495
11942POPC  H11B95709   7.372   7.199  14.618
11942POPC     P95710   7.601   7.458  14.545
11942POPC   O1395711   7.686   7.518  14.651
11942POPC   O1495712   7.489   7.541  14.493
11942POPC   O1295713   7.536   7.327  14.609
11942POPC   O1195714   7.686   7.392  14.427
11942POPC    C195715   7.631   7.273  14.369
11942POPC    HA95716   7.522   7.283  14.352
11942POPC    HB95717   7.650   7.186  14.435
11942POPC    C295718   7.692   7.242  14.230
11942POPC    HS95719   7.797   7.209  14.247
11942POPC   O2195720   7.682   7.357  14.144
11942POPC   C2195721   7.795   7.401  14.094
11942POPC   O2295722   7.907   7.365  14.124
11942POPC   C2295723   7.759   7.488  13.972
11942POPC   H2R95724   7.767   7.594  14.002
11942POPC   H2S95725   7.653   7.469  13.944
11942POPC    C395726   7.612   7.127  14.163
11942POPC    HX95727   7.615   7.037  14.228
11942POPC    HY95728   7.666   7.103  14.069
11942POPC   O3195729   7.474   7.168  14.142
11942POPC   C3195730   7.425   7.137  14.023
11942POPC   O3295731   7.472   7.054  13.947
11942POPC   C3295732   7.305   7.226  13.991
11942POPC   H2X95733   7.327   7.329  14.025
11942POPC   H2Y95734   7.218   7.187  14.046
11942POPC   C2395735   7.850   7.457  13.851
11942POPC   H3R95736   7.826   7.354  13.815
11942POPC   H3S95737   7.956   7.456  13.884
11942POPC   C2495738   7.837   7.556  13.734
11942POPC   H4R95739   7.884   7.652  13.763
11942POPC   H4S95740   7.730   7.576  13.711
11942POPC   C2595741   7.908   7.504  13.608
11942POPC   H5R95742   8.004   7.458  13.640
11942POPC   H5S95743   7.933   7.589  13.540
11942POPC   C2695744   7.823   7.402  13.532
11942POPC   H6R95745   7.748   7.456  13.470
11942POPC   H6S95746   7.767   7.338  13.604
11942POPC   C2795747   7.906   7.311  13.441
11942POPC   H7R95748   7.973   7.246  13.501
11942POPC   H7S95749   7.971   7.376  13.377
11942POPC   C2895750   7.819   7.226  13.347
11942POPC   H8R95751   7.886   7.169  13.279
11942POPC   H8S95752   7.761   7.297  13.284
11942POPC   C2995753   7.727   7.132  13.420
11942POPC   H9195754   7.746   7.116  13.527
11942POPC  C21095755   7.626   7.067  13.360
11942POPC  H10195756   7.562   6.998  13.417
11942POPC  C21195757   7.596   7.082  13.213
11942POPC  H11R95758   7.664   7.016  13.158
11942POPC  H11S95759   7.617   7.185  13.176
11942POPC  C21295760   7.450   7.051  13.175
11942POPC  H12R95761   7.421   6.949  13.208
11942POPC  H12S95762   7.442   7.053  13.064
11942POPC  C21395763   7.353   7.155  13.232
11942POPC  H13R95764   7.395   7.257  13.214
11942POPC  H13S95765   7.345   7.141  13.342
11942POPC  C21495766   7.214   7.147  13.169
11942POPC  H14R95767   7.180   7.042  13.177
11942POPC  H14S95768   7.221   7.169  13.060
11942POPC  C21595769   7.111   7.240  13.235
11942POPC  H15R95770   7.097   7.210  13.341
11942POPC  H15S95771   7.013   7.226  13.184
11942POPC  C21695772   7.146   7.390  13.229
11942POPC  H16R95773   7.231   7.410  13.298
11942POPC  H16S95774   7.058   7.448  13.264
11942POPC  C21795775   7.185   7.437  13.088
11942POPC  H17R95776   7.111   7.394  13.016
11942POPC  H17S95777   7.285   7.394  13.062
11942POPC  C21895778   7.190   7.589  13.072
11942POPC  H18R95779   7.220   7.616  12.968
11942POPC  H18S95780   7.263   7.633  13.142
11942POPC  H18T95781   7.090   7.633  13.092
11942POPC   C3395782   7.277   7.224  13.838
11942POPC   H3X95783   7.267   7.118  13.805
11942POPC   H3Y95784   7.362   7.268  13.783
11942POPC   C3495785   7.147   7.297  13.798
11942POPC   H4X95786   7.064   7.251  13.853
11942POPC   H4Y95787   7.128   7.278  13.690
11942POPC   C3595788   7.144   7.448  13.825
11942POPC   H5X95789   7.161   7.466  13.933
11942POPC   H5Y95790   7.042   7.486  13.799
11942POPC   C3695791   7.247   7.529  13.744
11942POPC   H6X95792   7.349   7.498  13.774
11942POPC   H6Y95793   7.235   7.637  13.770
11942POPC   C3795794   7.230   7.513  13.592
11942POPC   H7X95795   7.124   7.531  13.565
11942POPC   H7Y95796   7.255   7.408  13.562
11942POPC   C3895797   7.319   7.608  13.511
11942POPC   H8X95798   7.293   7.714  13.535
11942POPC   H8Y95799   7.296   7.593  13.403
11942POPC   C3995800   7.469   7.584  13.535
11942POPC   H9X95801   7.491   7.476  13.523
11942POPC   H9Y95802   7.493   7.613  13.640
11942POPC  C31095803   7.559   7.663  13.439
11942POPC  H10X95804   7.663   7.661  13.479
11942POPC  H10Y95805   7.527   7.770  13.436
11942POPC  C31195806   7.561   7.604  13.298
11942POPC  H11X95807   7.461   7.618  13.251
11942POPC  H11Y95808   7.580   7.495  13.305
11942POPC  C31295809   7.668   7.667  13.208
11942POPC  H12X95810   7.768   7.645  13.250
11942POPC  H12Y95811   7.654   7.778  13.209
11942POPC  C31395812   7.661   7.619  13.062
11942POPC  H13X95813   7.745   7.665  13.006
11942POPC  H13Y95814   7.567   7.657  13.017
11942POPC  C31495815   7.667   7.466  13.046
11942POPC  H14X95816   7.574   7.420  13.086
11942POPC  H14Y95817   7.751   7.427  13.107
11942POPC  C31595818   7.686   7.424  12.900
11942POPC  H15X95819   7.703   7.314  12.896
11942POPC  H15Y95820   7.779   7.472  12.861
11942POPC  C31695821   7.568   7.462  12.811
11942POPC  H16X95822   7.596   7.449  12.705
11942POPC  H16Y95823   7.539   7.568  12.825
11942POPC  H16Z95824   7.480   7.397  12.833
11943POPC     N95825   3.811   8.436  14.790
11943POPC   C1295826   3.821   8.583  14.751
11943POPC  H12A95827   3.921   8.619  14.771
11943POPC  H12B95828   3.752   8.639  14.815
11943POPC   C1395829   3.870   8.348  14.684
11943POPC  H13A95830   3.860   8.242  14.708
11943POPC  H13B95831   3.816   8.366  14.591
11943POPC  H13C95832   3.976   8.367  14.667
11943POPC   C1495833   3.875   8.408  14.922
11943POPC  H14A95834   3.983   8.415  14.916
11943POPC  H14B95835   3.844   8.478  14.999
11943POPC  H14C95836   3.851   8.309  14.958
11943POPC   C1595837   3.665   8.403  14.804
11943POPC  H15A95838   3.646   8.301  14.831
11943POPC  H15B95839   3.616   8.427  14.710
11943POPC  H15C95840   3.617   8.470  14.876
11943POPC   C1195841   3.782   8.623  14.606
11943POPC  H11A95842   3.846   8.569  14.532
11943POPC  H11B95843   3.804   8.731  14.589
11943POPC     P95844   3.534   8.687  14.646
11943POPC   O1395845   3.535   8.824  14.591
11943POPC   O1495846   3.546   8.672  14.794
11943POPC   O1295847   3.645   8.594  14.578
11943POPC   O1195848   3.399   8.616  14.604
11943POPC    C195849   3.377   8.475  14.599
11943POPC    HA95850   3.299   8.447  14.672
11943POPC    HB95851   3.468   8.417  14.624
11943POPC    C295852   3.332   8.422  14.459
11943POPC    HS95853   3.324   8.311  14.469
11943POPC   O2195854   3.425   8.459  14.354
11943POPC   C2195855   3.528   8.377  14.348
11943POPC   O2295856   3.545   8.280  14.421
11943POPC   C2295857   3.621   8.413  14.232
11943POPC   H2R95858   3.615   8.522  14.215
11943POPC   H2S95859   3.584   8.361  14.142
11943POPC    C395860   3.190   8.464  14.410
11943POPC    HX95861   3.114   8.436  14.486
11943POPC    HY95862   3.176   8.402  14.320
11943POPC   O3195863   3.177   8.604  14.382
11943POPC   C3195864   3.131   8.639  14.263
11943POPC   O3295865   3.093   8.565  14.174
11943POPC   C3295866   3.154   8.789  14.253
11943POPC   H2X95867   3.119   8.835  14.348
11943POPC   H2Y95868   3.093   8.830  14.171
11943POPC   C2395869   3.767   8.370  14.262
11943POPC   H3R95870   3.777   8.261  14.242
11943POPC   H3S95871   3.789   8.384  14.370
11943POPC   C2495872   3.874   8.448  14.184
11943POPC   H4R95873   3.973   8.406  14.211
11943POPC   H4S95874   3.872   8.554  14.217
11943POPC   C2595875   3.859   8.444  14.031
11943POPC   H5R95876   3.942   8.504  13.987
11943POPC   H5S95877   3.763   8.493  14.002
11943POPC   C2695878   3.865   8.303  13.971
11943POPC   H6R95879   3.770   8.249  13.993
11943POPC   H6S95880   3.947   8.246  14.020
11943POPC   C2795881   3.890   8.303  13.820
11943POPC   H7R95882   3.887   8.197  13.785
11943POPC   H7S95883   3.994   8.341  13.801
11943POPC   C2895884   3.791   8.388  13.738
11943POPC   H8R95885   3.799   8.495  13.768
11943POPC   H8S95886   3.687   8.356  13.764
11943POPC   C2995887   3.818   8.373  13.591
11943POPC   H9195888   3.876   8.455  13.545
11943POPC  C21095889   3.777   8.270  13.515
11943POPC  H10195890   3.801   8.270  13.408
11943POPC  C21195891   3.696   8.153  13.565
11943POPC  H11R95892   3.680   8.155  13.675
11943POPC  H11S95893   3.750   8.058  13.543
11943POPC  C21295894   3.558   8.147  13.497
11943POPC  H12R95895   3.502   8.059  13.536
11943POPC  H12S95896   3.574   8.129  13.388
11943POPC  C21395897   3.470   8.272  13.515
11943POPC  H13R95898   3.525   8.363  13.479
11943POPC  H13S95899   3.443   8.288  13.621
11943POPC  C21495900   3.345   8.256  13.429
11943POPC  H14R95901   3.279   8.178  13.472
11943POPC  H14S95902   3.384   8.218  13.332
11943POPC  C21595903   3.262   8.381  13.399
11943POPC  H15R95904   3.329   8.470  13.389
11943POPC  H15S95905   3.191   8.400  13.483
11943POPC  C21695906   3.187   8.363  13.267
11943POPC  H16R95907   3.117   8.446  13.253
11943POPC  H16S95908   3.128   8.268  13.268
11943POPC  C21795909   3.279   8.370  13.145
11943POPC  H17R95910   3.353   8.287  13.146
11943POPC  H17S95911   3.334   8.466  13.149
11943POPC  C21895912   3.203   8.360  13.015
11943POPC  H18R95913   3.122   8.436  13.011
11943POPC  H18S95914   3.154   8.261  13.006
11943POPC  H18T95915   3.270   8.376  12.929
11943POPC   C3395916   3.304   8.819  14.231
11943POPC   H3X95917   3.365   8.774  14.313
11943POPC   H3Y95918   3.319   8.930  14.235
11943POPC   C3495919   3.352   8.768  14.095
11943POPC   H4X95920   3.280   8.804  14.017
11943POPC   H4Y95921   3.351   8.657  14.093
11943POPC   C3595922   3.493   8.816  14.056
11943POPC   H5X95923   3.569   8.767  14.120
11943POPC   H5Y95924   3.500   8.925  14.073
11943POPC   C3695925   3.522   8.786  13.908
11943POPC   H6X95926   3.431   8.813  13.850
11943POPC   H6Y95927   3.539   8.677  13.895
11943POPC   C3795928   3.642   8.864  13.852
11943POPC   H7X95929   3.730   8.845  13.918
11943POPC   H7Y95930   3.620   8.973  13.856
11943POPC   C3895931   3.677   8.823  13.709
11943POPC   H8X95932   3.701   8.714  13.709
11943POPC   H8Y95933   3.768   8.877  13.676
11943POPC   C3995934   3.565   8.847  13.606
11943POPC   H9X95935   3.563   8.955  13.578
11943POPC   H9Y95936   3.466   8.822  13.648
11943POPC  C31095937   3.583   8.761  13.480
11943POPC  H10X95938   3.496   8.776  13.412
11943POPC  H10Y95939   3.584   8.654  13.509
11943POPC  C31195940   3.712   8.794  13.404
11943POPC  H11X95941   3.798   8.788  13.473
11943POPC  H11Y95942   3.705   8.898  13.366
11943POPC  C31295943   3.738   8.698  13.288
11943POPC  H12X95944   3.724   8.593  13.323
11943POPC  H12Y95945   3.844   8.709  13.256
11943POPC  C31395946   3.649   8.726  13.166
11943POPC  H13X95947   3.670   8.829  13.130
11943POPC  H13Y95948   3.541   8.720  13.194
11943POPC  C31495949   3.679   8.627  13.054
11943POPC  H14X95950   3.643   8.525  13.081
11943POPC  H14Y95951   3.789   8.623  13.045
11943POPC  C31595952   3.628   8.668  12.916
11943POPC  H15X95953   3.672   8.599  12.841
11943POPC  H15Y95954   3.665   8.771  12.894
11943POPC  C31695955   3.476   8.665  12.902
11943POPC  H16X95956   3.437   8.564  12.923
11943POPC  H16Y95957   3.446   8.694  12.799
11943POPC  H16Z95958   3.430   8.737  12.973
11944POPC     N95959   6.094   8.267  14.674
11944POPC   C1295960   6.222   8.319  14.611
11944POPC  H12A95961   6.275   8.370  14.691
11944POPC  H12B95962   6.203   8.396  14.539
11944POPC   C1395963   5.986   8.243  14.574
11944POPC  H13A95964   5.895   8.209  14.623
11944POPC  H13B95965   5.955   8.335  14.524
11944POPC  H13C95966   6.013   8.169  14.500
11944POPC   C1495967   6.121   8.142  14.752
11944POPC  H14A95968   6.177   8.071  14.693
11944POPC  H14B95969   6.184   8.166  14.838
11944POPC  H14C95970   6.028   8.098  14.784
11944POPC   C1595971   6.046   8.369  14.775
11944POPC  H15A95972   6.112   8.370  14.863
11944POPC  H15B95973   5.947   8.343  14.812
11944POPC  H15C95974   6.040   8.469  14.736
11944POPC   C1195975   6.331   8.222  14.558
11944POPC  H11A95976   6.403   8.280  14.495
11944POPC  H11B95977   6.287   8.142  14.496
11944POPC     P95978   6.473   8.256  14.777
11944POPC   O1395979   6.612   8.209  14.796
11944POPC   O1495980   6.387   8.256  14.898
11944POPC   O1295981   6.401   8.166  14.667
11944POPC   O1195982   6.478   8.398  14.711
11944POPC    C195983   6.420   8.527  14.711
11944POPC    HA95984   6.482   8.592  14.777
11944POPC    HB95985   6.317   8.530  14.750
11944POPC    C295986   6.425   8.593  14.567
11944POPC    HS95987   6.428   8.703  14.582
11944POPC   O2195988   6.311   8.554  14.485
11944POPC   C2195989   6.310   8.623  14.368
11944POPC   O2295990   6.349   8.737  14.356
11944POPC   C2295991   6.259   8.537  14.252
11944POPC   H2R95992   6.176   8.473  14.288
11944POPC   H2S95993   6.343   8.472  14.221
11944POPC    C395994   6.559   8.555  14.495
11944POPC    HX95995   6.622   8.502  14.569
11944POPC    HY95996   6.612   8.649  14.467
11944POPC   O3195997   6.538   8.468  14.382
11944POPC   C3195998   6.624   8.480  14.283
11944POPC   O3295999   6.690   8.579  14.255
11944POPC   C3296000   6.639   8.344  14.220
11944POPC   H2X96001   6.560   8.275  14.255
11944POPC   H2Y96002   6.737   8.307  14.256
11944POPC   C2396003   6.216   8.623  14.130
11944POPC   H3R96004   6.299   8.692  14.101
11944POPC   H3S96005   6.129   8.687  14.157
11944POPC   C2496006   6.180   8.537  14.009
11944POPC   H4R96007   6.086   8.481  14.034
11944POPC   H4S96008   6.260   8.462  13.991
11944POPC   C2596009   6.156   8.617  13.880
11944POPC   H5R96010   6.100   8.710  13.905
11944POPC   H5S96011   6.091   8.557  13.811
11944POPC   C2696012   6.284   8.653  13.803
11944POPC   H6R96013   6.354   8.705  13.871
11944POPC   H6S96014   6.254   8.726  13.724
11944POPC   C2796015   6.352   8.533  13.735
11944POPC   H7R96016   6.277   8.486  13.666
11944POPC   H7S96017   6.378   8.457  13.811
11944POPC   C2896018   6.479   8.564  13.653
11944POPC   H8R96019   6.491   8.486  13.575
11944POPC   H8S96020   6.567   8.550  13.720
11944POPC   C2996021   6.481   8.704  13.596
11944POPC   H9196022   6.497   8.784  13.670
11944POPC  C21096023   6.463   8.737  13.467
11944POPC  H10196024   6.458   8.844  13.441
11944POPC  C21196025   6.439   8.640  13.354
11944POPC  H11R96026   6.380   8.689  13.273
11944POPC  H11S96027   6.378   8.555  13.392
11944POPC  C21296028   6.569   8.582  13.295
11944POPC  H12R96029   6.630   8.541  13.379
11944POPC  H12S96030   6.629   8.664  13.248
11944POPC  C21396031   6.548   8.469  13.192
11944POPC  H13R96032   6.506   8.511  13.098
11944POPC  H13S96033   6.476   8.396  13.233
11944POPC  C21496034   6.679   8.394  13.164
11944POPC  H14R96035   6.718   8.359  13.262
11944POPC  H14S96036   6.753   8.464  13.120
11944POPC  C21596037   6.671   8.268  13.076
11944POPC  H15R96038   6.625   8.187  13.137
11944POPC  H15S96039   6.776   8.238  13.053
11944POPC  C21696040   6.596   8.279  12.943
11944POPC  H16R96041   6.626   8.371  12.888
11944POPC  H16S96042   6.486   8.286  12.963
11944POPC  C21796043   6.622   8.156  12.855
11944POPC  H17R96044   6.725   8.164  12.811
11944POPC  H17S96045   6.550   8.155  12.770
11944POPC  C21896046   6.612   8.024  12.933
11944POPC  H18R96047   6.606   7.936  12.867
11944POPC  H18S96048   6.521   8.025  12.997
11944POPC  H18T96049   6.701   8.011  12.999
11944POPC   C3396050   6.645   8.345  14.068
11944POPC   H3X96051   6.721   8.418  14.029
11944POPC   H3Y96052   6.546   8.374  14.027
11944POPC   C3496053   6.684   8.205  14.023
11944POPC   H4X96054   6.670   8.133  14.107
11944POPC   H4Y96055   6.791   8.202  13.992
11944POPC   C3596056   6.596   8.157  13.910
11944POPC   H5X96057   6.489   8.165  13.939
11944POPC   H5Y96058   6.619   8.050  13.889
11944POPC   C3696059   6.623   8.237  13.784
11944POPC   H6X96060   6.733   8.249  13.772
11944POPC   H6Y96061   6.579   8.339  13.791
11944POPC   C3796062   6.564   8.162  13.667
11944POPC   H7X96063   6.605   8.059  13.664
11944POPC   H7Y96064   6.595   8.213  13.574
11944POPC   C3896065   6.412   8.154  13.684
11944POPC   H8X96066   6.374   8.249  13.726
11944POPC   H8Y96067   6.388   8.073  13.758
11944POPC   C3996068   6.339   8.126  13.554
11944POPC   H9X96069   6.230   8.117  13.575
11944POPC   H9Y96070   6.376   8.029  13.514
11944POPC  C31096071   6.361   8.237  13.452
11944POPC  H10X96072   6.469   8.254  13.431
11944POPC  H10Y96073   6.320   8.331  13.493
11944POPC  C31196074   6.295   8.205  13.318
11944POPC  H11X96075   6.231   8.114  13.328
11944POPC  H11Y96076   6.374   8.182  13.243
11944POPC  C31296077   6.210   8.322  13.272
11944POPC  H12X96078   6.267   8.417  13.282
11944POPC  H12Y96079   6.120   8.331  13.337
11944POPC  C31396080   6.167   8.307  13.126
11944POPC  H13X96081   6.258   8.306  13.061
11944POPC  H13Y96082   6.107   8.396  13.099
11944POPC  C31496083   6.089   8.177  13.105
11944POPC  H14X96084   6.011   8.168  13.184
11944POPC  H14Y96085   6.158   8.091  13.116
11944POPC  C31596086   6.020   8.173  12.968
11944POPC  H15X96087   5.984   8.070  12.949
11944POPC  H15Y96088   6.094   8.200  12.889
11944POPC  C31696089   5.901   8.268  12.963
11944POPC  H16X96090   5.826   8.236  13.038
11944POPC  H16Y96091   5.855   8.268  12.862
11944POPC  H16Z96092   5.931   8.372  12.988
11945POPC     N96093   3.711   0.813  14.830
11945POPC   C1296094   3.699   0.725  14.706
11945POPC  H12A96095   3.598   0.725  14.671
11945POPC  H12B96096   3.725   0.623  14.734
11945POPC   C1396097   3.840   0.786  14.900
11945POPC  H13A96098   3.848   0.683  14.933
11945POPC  H13B96099   3.925   0.802  14.833
11945POPC  H13C96100   3.851   0.852  14.985
11945POPC   C1496101   3.708   0.959  14.796
11945POPC  H14A96102   3.784   0.979  14.720
11945POPC  H14B96103   3.612   0.992  14.758
11945POPC  H14C96104   3.735   1.020  14.883
11945POPC   C1596105   3.603   0.783  14.928
11945POPC  H15A96106   3.611   0.680  14.963
11945POPC  H15B96107   3.505   0.794  14.884
11945POPC  H15C96108   3.613   0.846  15.017
11945POPC   C1196109   3.792   0.756  14.586
11945POPC  H11A96110   3.765   0.854  14.542
11945POPC  H11B96111   3.776   0.679  14.507
11945POPC     P96112   4.048   0.738  14.536
11945POPC   O1396113   4.048   0.600  14.484
11945POPC   O1496114   4.168   0.784  14.610
11945POPC   O1296115   3.926   0.755  14.633
11945POPC   O1196116   4.009   0.840  14.421
11945POPC    C196117   3.999   0.981  14.450
11945POPC    HA96118   4.065   1.012  14.535
11945POPC    HB96119   3.894   1.005  14.478
11945POPC    C296120   4.037   1.070  14.329
11945POPC    HS96121   3.992   1.171  14.343
11945POPC   O2196122   3.991   1.012  14.204
11945POPC   C2196123   3.859   1.008  14.192
11945POPC   O2296124   3.779   1.071  14.260
11945POPC   C2296125   3.818   0.916  14.077
11945POPC   H2R96126   3.721   0.870  14.106
11945POPC   H2S96127   3.892   0.834  14.068
11945POPC    C396128   4.191   1.091  14.325
11945POPC    HX96129   4.221   1.142  14.419
11945POPC    HY96130   4.217   1.159  14.242
11945POPC   O3196131   4.262   0.966  14.320
11945POPC   C3196132   4.292   0.920  14.200
11945POPC   O3296133   4.294   0.986  14.097
11945POPC   C3296134   4.334   0.775  14.212
11945POPC   H2X96135   4.299   0.736  14.310
11945POPC   H2Y96136   4.445   0.773  14.211
11945POPC   C2396137   3.802   0.990  13.942
11945POPC   H3R96138   3.738   1.080  13.957
11945POPC   H3S96139   3.750   0.923  13.869
11945POPC   C2496140   3.936   1.031  13.881
11945POPC   H4R96141   4.003   1.067  13.962
11945POPC   H4S96142   3.920   1.113  13.808
11945POPC   C2596143   4.005   0.915  13.808
11945POPC   H5R96144   3.933   0.876  13.733
11945POPC   H5S96145   4.027   0.833  13.877
11945POPC   C2696146   4.132   0.953  13.730
11945POPC   H6R96147   4.105   1.044  13.674
11945POPC   H6S96148   4.148   0.871  13.658
11945POPC   C2796149   4.267   0.974  13.801
11945POPC   H7R96150   4.293   0.884  13.861
11945POPC   H7S96151   4.256   1.058  13.872
11945POPC   C2896152   4.385   1.007  13.705
11945POPC   H8R96153   4.478   1.007  13.768
11945POPC   H8S96154   4.374   1.113  13.672
11945POPC   C2996155   4.408   0.919  13.584
11945POPC   H9196156   4.446   0.819  13.608
11945POPC  C21096157   4.374   0.943  13.456
11945POPC  H10196158   4.397   0.868  13.379
11945POPC  C21196159   4.305   1.066  13.403
11945POPC  H11R96160   4.329   1.084  13.296
11945POPC  H11S96161   4.343   1.156  13.457
11945POPC  C21296162   4.152   1.054  13.425
11945POPC  H12R96163   4.118   1.138  13.489
11945POPC  H12S96164   4.127   0.962  13.481
11945POPC  C21396165   4.058   1.049  13.306
11945POPC  H13R96166   3.952   1.050  13.342
11945POPC  H13S96167   4.072   0.952  13.254
11945POPC  C21496168   4.080   1.155  13.201
11945POPC  H14R96169   4.156   1.226  13.237
11945POPC  H14S96170   3.985   1.209  13.181
11945POPC  C21596171   4.133   1.085  13.076
11945POPC  H15R96172   4.067   0.997  13.059
11945POPC  H15S96173   4.236   1.046  13.094
11945POPC  C21696174   4.130   1.168  12.950
11945POPC  H16R96175   4.233   1.205  12.928
11945POPC  H16S96176   4.064   1.257  12.960
11945POPC  C21796177   4.078   1.084  12.832
11945POPC  H17R96178   4.113   1.142  12.747
11945POPC  H17S96179   3.968   1.081  12.826
11945POPC  C21896180   4.132   0.942  12.817
11945POPC  H18R96181   4.209   0.921  12.893
11945POPC  H18S96182   4.175   0.929  12.715
11945POPC  H18T96183   4.053   0.866  12.827
11945POPC   C3396184   4.277   0.689  14.098
11945POPC   H3X96185   4.301   0.583  14.123
11945POPC   H3Y96186   4.325   0.713  14.001
11945POPC   C3496187   4.125   0.697  14.085
11945POPC   H4X96188   4.098   0.798  14.050
11945POPC   H4Y96189   4.084   0.690  14.189
11945POPC   C3596190   4.062   0.581  14.006
11945POPC   H5X96191   3.954   0.576  14.035
11945POPC   H5Y96192   4.110   0.488  14.043
11945POPC   C3696193   4.066   0.574  13.851
11945POPC   H6X96194   3.990   0.642  13.806
11945POPC   H6Y96195   4.032   0.471  13.826
11945POPC   C3796196   4.200   0.595  13.779
11945POPC   H7X96197   4.284   0.552  13.835
11945POPC   H7Y96198   4.222   0.704  13.773
11945POPC   C3896199   4.202   0.534  13.638
11945POPC   H8X96200   4.139   0.443  13.633
11945POPC   H8Y96201   4.306   0.507  13.609
11945POPC   C3996202   4.152   0.638  13.539
11945POPC   H9X96203   4.221   0.725  13.545
11945POPC   H9Y96204   4.052   0.669  13.574
11945POPC  C31096205   4.146   0.598  13.393
11945POPC  H10X96206   4.087   0.507  13.380
11945POPC  H10Y96207   4.249   0.579  13.353
11945POPC  C31196208   4.082   0.713  13.317
11945POPC  H11X96209   4.097   0.702  13.208
11945POPC  H11Y96210   4.145   0.800  13.347
11945POPC  C31296211   3.934   0.743  13.353
11945POPC  H12X96212   3.894   0.814  13.279
11945POPC  H12Y96213   3.930   0.797  13.451
11945POPC  C31396214   3.839   0.623  13.361
11945POPC  H13X96215   3.734   0.662  13.366
11945POPC  H13Y96216   3.857   0.568  13.456
11945POPC  C31496217   3.848   0.523  13.245
11945POPC  H14X96218   3.762   0.452  13.250
11945POPC  H14Y96219   3.941   0.464  13.254
11945POPC  C31596220   3.853   0.587  13.107
11945POPC  H15X96221   3.946   0.648  13.097
11945POPC  H15Y96222   3.769   0.658  13.103
11945POPC  C31696223   3.851   0.488  12.991
11945POPC  H16X96224   3.749   0.450  12.972
11945POPC  H16Y96225   3.916   0.401  13.009
11945POPC  H16Z96226   3.890   0.537  12.899
11946POPC     N96227   4.784   0.896  14.588
11946POPC   C1296228   4.654   0.886  14.668
11946POPC  H12A96229   4.569   0.886  14.599
11946POPC  H12B96230   4.638   0.974  14.730
11946POPC   C1396231   4.764   0.805  14.471
11946POPC  H13A96232   4.853   0.800  14.410
11946POPC  H13B96233   4.747   0.705  14.513
11946POPC  H13C96234   4.677   0.831  14.414
11946POPC   C1496235   4.812   1.036  14.543
11946POPC  H14A96236   4.908   1.040  14.493
11946POPC  H14B96237   4.734   1.072  14.476
11946POPC  H14C96238   4.814   1.102  14.629
11946POPC   C1596239   4.897   0.842  14.671
11946POPC  H15A96240   4.871   0.741  14.707
11946POPC  H15B96241   4.912   0.899  14.761
11946POPC  H15C96242   4.991   0.831  14.616
11946POPC   C1196243   4.639   0.763  14.761
11946POPC  H11A96244   4.536   0.770  14.805
11946POPC  H11B96245   4.711   0.775  14.845
11946POPC     P96246   4.635   0.511  14.793
11946POPC   O1396247   4.515   0.536  14.878
11946POPC   O1496248   4.762   0.482  14.864
11946POPC   O1296249   4.660   0.636  14.695
11946POPC   O1196250   4.605   0.389  14.703
11946POPC    C196251   4.575   0.396  14.566
11946POPC    HA96252   4.546   0.497  14.529
11946POPC    HB96253   4.486   0.331  14.550
11946POPC    C296254   4.695   0.342  14.485
11946POPC    HS96255   4.732   0.250  14.535
11946POPC   O2196256   4.800   0.444  14.478
11946POPC   C2196257   4.876   0.456  14.370
11946POPC   O2296258   4.865   0.391  14.268
11946POPC   C2296259   4.978   0.568  14.372
11946POPC   H2R96260   5.078   0.528  14.397
11946POPC   H2S96261   4.951   0.644  14.446
11946POPC    C396262   4.628   0.301  14.351
11946POPC    HX96263   4.543   0.236  14.376
11946POPC    HY96264   4.697   0.235  14.294
11946POPC   O3196265   4.581   0.419  14.281
11946POPC   C3196266   4.611   0.414  14.151
11946POPC   O3296267   4.645   0.315  14.090
11946POPC   C3296268   4.598   0.552  14.090
11946POPC   H2X96269   4.616   0.630  14.168
11946POPC   H2Y96270   4.496   0.563  14.052
11946POPC   C2396271   4.976   0.618  14.225
11946POPC   H3R96272   4.870   0.624  14.192
11946POPC   H3S96273   5.028   0.544  14.159
11946POPC   C2496274   5.030   0.757  14.192
11946POPC   H4R96275   5.141   0.756  14.196
11946POPC   H4S96276   4.992   0.831  14.266
11946POPC   C2596277   4.979   0.796  14.052
11946POPC   H5R96278   5.003   0.902  14.034
11946POPC   H5S96279   4.868   0.791  14.049
11946POPC   C2696280   5.038   0.714  13.936
11946POPC   H6R96281   4.976   0.624  13.917
11946POPC   H6S96282   5.139   0.676  13.964
11946POPC   C2796283   5.051   0.797  13.807
11946POPC   H7R96284   5.159   0.810  13.787
11946POPC   H7S96285   5.007   0.898  13.821
11946POPC   C2896286   4.981   0.731  13.687
11946POPC   H8R96287   4.872   0.743  13.699
11946POPC   H8S96288   5.006   0.623  13.689
11946POPC   C2996289   5.026   0.789  13.557
11946POPC   H9196290   5.124   0.752  13.527
11946POPC  C21096291   4.962   0.868  13.470
11946POPC  H10196292   5.018   0.899  13.381
11946POPC  C21196293   4.822   0.922  13.480
11946POPC  H11R96294   4.819   1.031  13.457
11946POPC  H11S96295   4.780   0.909  13.582
11946POPC  C21296296   4.730   0.847  13.381
11946POPC  H12R96297   4.626   0.855  13.418
11946POPC  H12S96298   4.755   0.739  13.382
11946POPC  C21396299   4.732   0.895  13.234
11946POPC  H13R96300   4.687   0.996  13.227
11946POPC  H13S96301   4.666   0.827  13.175
11946POPC  C21496302   4.871   0.897  13.169
11946POPC  H14R96303   4.934   0.816  13.212
11946POPC  H14S96304   4.918   0.995  13.192
11946POPC  C21596305   4.870   0.872  13.018
11946POPC  H15R96306   4.782   0.922  12.972
11946POPC  H15S96307   4.858   0.763  13.000
11946POPC  C21696308   4.998   0.922  12.951
11946POPC  H16R96309   5.083   0.856  12.981
11946POPC  H16S96310   5.022   1.024  12.987
11946POPC  C21796311   4.987   0.926  12.798
11946POPC  H17R96312   5.087   0.951  12.755
11946POPC  H17S96313   4.916   1.007  12.770
11946POPC  C21896314   4.936   0.796  12.735
11946POPC  H18R96315   5.000   0.710  12.765
11946POPC  H18S96316   4.936   0.804  12.624
11946POPC  H18T96317   4.832   0.774  12.767
11946POPC   C3396318   4.694   0.566  13.971
11946POPC   H3X96319   4.698   0.473  13.911
11946POPC   H3Y96320   4.797   0.577  14.011
11946POPC   C3496321   4.661   0.685  13.881
11946POPC   H4X96322   4.756   0.736  13.857
11946POPC   H4Y96323   4.601   0.761  13.936
11946POPC   C3596324   4.589   0.651  13.748
11946POPC   H5X96325   4.610   0.736  13.679
11946POPC   H5Y96326   4.480   0.651  13.770
11946POPC   C3696327   4.621   0.520  13.672
11946POPC   H6X96328   4.551   0.515  13.586
11946POPC   H6Y96329   4.600   0.433  13.737
11946POPC   C3796330   4.764   0.508  13.618
11946POPC   H7X96331   4.834   0.489  13.702
11946POPC   H7Y96332   4.790   0.606  13.571
11946POPC   C3896333   4.784   0.403  13.507
11946POPC   H8X96334   4.747   0.304  13.540
11946POPC   H8Y96335   4.894   0.393  13.488
11946POPC   C3996336   4.716   0.446  13.376
11946POPC   H9X96337   4.680   0.550  13.387
11946POPC   H9Y96338   4.624   0.385  13.364
11946POPC  C31096339   4.802   0.440  13.249
11946POPC  H10X96340   4.825   0.334  13.224
11946POPC  H10Y96341   4.899   0.492  13.266
11946POPC  C31196342   4.729   0.509  13.131
11946POPC  H11X96343   4.726   0.618  13.149
11946POPC  H11Y96344   4.625   0.471  13.128
11946POPC  C31296345   4.793   0.483  12.994
11946POPC  H12X96346   4.811   0.374  12.985
11946POPC  H12Y96347   4.892   0.533  12.987
11946POPC  C31396348   4.706   0.526  12.873
11946POPC  H13X96349   4.705   0.636  12.867
11946POPC  H13Y96350   4.602   0.490  12.887
11946POPC  C31496351   4.763   0.463  12.745
11946POPC  H14X96352   4.732   0.358  12.745
11946POPC  H14Y96353   4.874   0.468  12.755
11946POPC  C31596354   4.732   0.521  12.606
11946POPC  H15X96355   4.815   0.487  12.540
11946POPC  H15Y96356   4.736   0.632  12.607
11946POPC  C31696357   4.605   0.470  12.537
11946POPC  H16X96358   4.516   0.481  12.602
11946POPC  H16Y96359   4.617   0.364  12.510
11946POPC  H16Z96360   4.587   0.526  12.443
11947POPC     N96361   0.452   5.573  14.779
11947POPC   C1296362   0.478   5.629  14.640
11947POPC  H12A96363   0.513   5.731  14.649
11947POPC  H12B96364   0.386   5.628  14.583
11947POPC   C1396365   0.560   5.620  14.871
11947POPC  H13A96366   0.576   5.551  14.954
11947POPC  H13B96367   0.655   5.619  14.816
11947POPC  H13C96368   0.543   5.719  14.911
11947POPC   C1496369   0.314   5.612  14.825
11947POPC  H14A96370   0.240   5.563  14.762
11947POPC  H14B96371   0.296   5.583  14.927
11947POPC  H14C96372   0.298   5.718  14.817
11947POPC   C1596373   0.462   5.423  14.774
11947POPC  H15A96374   0.567   5.394  14.760
11947POPC  H15B96375   0.409   5.387  14.687
11947POPC  H15C96376   0.425   5.374  14.862
11947POPC   C1196377   0.581   5.550  14.558
11947POPC  H11A96378   0.602   5.599  14.461
11947POPC  H11B96379   0.537   5.451  14.533
11947POPC     P96380   0.808   5.438  14.582
11947POPC   O1396381   0.738   5.314  14.544
11947POPC   O1496382   0.913   5.427  14.685
11947POPC   O1296383   0.700   5.540  14.634
11947POPC   O1196384   0.863   5.517  14.455
11947POPC    C196385   0.955   5.623  14.490
11947POPC    HA96386   1.056   5.581  14.501
11947POPC    HB96387   0.929   5.673  14.588
11947POPC    C296388   0.955   5.739  14.388
11947POPC    HS96389   0.993   5.832  14.438
11947POPC   O2196390   0.822   5.759  14.339
11947POPC   C2196391   0.742   5.815  14.426
11947POPC   O2296392   0.774   5.862  14.534
11947POPC   C2296393   0.604   5.839  14.363
11947POPC   H2R96394   0.587   5.949  14.362
11947POPC   H2S96395   0.528   5.794  14.429
11947POPC    C396396   1.053   5.714  14.269
11947POPC    HX96397   1.154   5.735  14.306
11947POPC    HY96398   1.045   5.788  14.186
11947POPC   O3196399   1.048   5.580  14.219
11947POPC   C3196400   0.948   5.563  14.134
11947POPC   O3296401   0.871   5.649  14.095
11947POPC   C3296402   0.956   5.422  14.079
11947POPC   H2X96403   0.917   5.351  14.155
11947POPC   H2Y96404   1.062   5.398  14.059
11947POPC   C2396405   0.587   5.786  14.218
11947POPC   H3R96406   0.612   5.677  14.215
11947POPC   H3S96407   0.659   5.835  14.149
11947POPC   C2496408   0.445   5.805  14.166
11947POPC   H4R96409   0.383   5.863  14.238
11947POPC   H4S96410   0.404   5.702  14.165
11947POPC   C2596411   0.429   5.867  14.026
11947POPC   H5R96412   0.328   5.840  13.990
11947POPC   H5S96413   0.502   5.823  13.955
11947POPC   C2696414   0.431   6.021  14.022
11947POPC   H6R96415   0.530   6.057  14.060
11947POPC   H6S96416   0.353   6.059  14.092
11947POPC   C2796417   0.402   6.083  13.883
11947POPC   H7R96418   0.496   6.090  13.824
11947POPC   H7S96419   0.368   6.188  13.901
11947POPC   C2896420   0.297   6.007  13.798
11947POPC   H8R96421   0.213   5.978  13.864
11947POPC   H8S96422   0.344   5.912  13.762
11947POPC   C2996423   0.242   6.088  13.683
11947POPC   H9196424   0.156   6.152  13.709
11947POPC  C21096425   0.287   6.088  13.556
11947POPC  H10196426   0.239   6.155  13.483
11947POPC  C21196427   0.402   6.007  13.502
11947POPC  H11R96428   0.433   5.927  13.572
11947POPC  H11S96429   0.490   6.076  13.490
11947POPC  C21296430   0.378   5.940  13.366
11947POPC  H12R96431   0.468   5.960  13.304
11947POPC  H12S96432   0.288   5.984  13.316
11947POPC  C21396433   0.359   5.788  13.368
11947POPC  H13R96434   0.258   5.769  13.408
11947POPC  H13S96435   0.432   5.745  13.440
11947POPC  C21496436   0.377   5.715  13.233
11947POPC  H14R96437   0.365   5.606  13.251
11947POPC  H14S96438   0.479   5.726  13.194
11947POPC  C21596439   0.280   5.757  13.122
11947POPC  H15R96440   0.297   5.863  13.093
11947POPC  H15S96441   0.176   5.751  13.161
11947POPC  C21696442   0.290   5.668  12.996
11947POPC  H16R96443   0.208   5.698  12.927
11947POPC  H16S96444   0.272   5.562  13.025
11947POPC  C21796445   0.422   5.672  12.918
11947POPC  H17R96446   0.500   5.615  12.974
11947POPC  H17S96447   0.457   5.777  12.908
11947POPC  C21896448   0.406   5.615  12.777
11947POPC  H18R96449   0.343   5.684  12.717
11947POPC  H18S96450   0.356   5.516  12.781
11947POPC  H18T96451   0.504   5.605  12.726
11947POPC   C3396452   0.877   5.411  13.947
11947POPC   H3X96453   0.913   5.321  13.892
11947POPC   H3Y96454   0.898   5.500  13.882
11947POPC   C3496455   0.727   5.396  13.971
11947POPC   H4X96456   0.687   5.487  14.023
11947POPC   H4Y96457   0.711   5.309  14.039
11947POPC   C3596458   0.647   5.373  13.842
11947POPC   H5X96459   0.544   5.341  13.870
11947POPC   H5Y96460   0.695   5.292  13.784
11947POPC   C3696461   0.638   5.496  13.752
11947POPC   H6X96462   0.739   5.527  13.718
11947POPC   H6Y96463   0.595   5.579  13.812
11947POPC   C3796464   0.547   5.470  13.630
11947POPC   H7X96465   0.521   5.568  13.585
11947POPC   H7Y96466   0.453   5.424  13.668
11947POPC   C3896467   0.604   5.380  13.519
11947POPC   H8X96468   0.523   5.365  13.444
11947POPC   H8Y96469   0.632   5.281  13.559
11947POPC   C3996470   0.725   5.444  13.448
11947POPC   H9X96471   0.813   5.437  13.515
11947POPC   H9Y96472   0.702   5.550  13.430
11947POPC  C31096473   0.758   5.386  13.310
11947POPC  H10X96474   0.693   5.434  13.233
11947POPC  H10Y96475   0.736   5.277  13.310
11947POPC  C31196476   0.906   5.404  13.269
11947POPC  H11X96477   0.920   5.360  13.169
11947POPC  H11Y96478   0.969   5.347  13.341
11947POPC  C31296479   0.960   5.548  13.262
11947POPC  H12X96480   0.939   5.596  13.359
11947POPC  H12Y96481   0.906   5.603  13.181
11947POPC  C31396482   1.113   5.554  13.237
11947POPC  H13X96483   1.145   5.453  13.202
11947POPC  H13Y96484   1.164   5.572  13.334
11947POPC  C31496485   1.165   5.655  13.133
11947POPC  H14X96486   1.135   5.621  13.031
11947POPC  H14Y96487   1.276   5.654  13.135
11947POPC  C31596488   1.119   5.801  13.143
11947POPC  H15X96489   1.139   5.841  13.245
11947POPC  H15Y96490   1.009   5.805  13.127
11947POPC  C31696491   1.188   5.888  13.037
11947POPC  H16X96492   1.297   5.895  13.058
11947POPC  H16Y96493   1.144   5.990  13.036
11947POPC  H16Z96494   1.176   5.844  12.936
11948POPC     N96495   0.338   4.130  14.689
11948POPC   C1296496   0.406   4.098  14.556
11948POPC  H12A96497   0.377   4.173  14.484
11948POPC  H12B96498   0.366   4.004  14.518
11948POPC   C1396499   0.373   4.023  14.787
11948POPC  H13A96500   0.327   3.929  14.758
11948POPC  H13B96501   0.481   4.009  14.785
11948POPC  H13C96502   0.339   4.046  14.886
11948POPC   C1496503   0.389   4.260  14.744
11948POPC  H14A96504   0.340   4.290  14.837
11948POPC  H14B96505   0.495   4.256  14.764
11948POPC  H14C96506   0.369   4.344  14.678
11948POPC   C1596507   0.188   4.141  14.678
11948POPC  H15A96508   0.139   4.045  14.669
11948POPC  H15B96509   0.158   4.206  14.597
11948POPC  H15C96510   0.151   4.188  14.769
11948POPC   C1196511   0.562   4.084  14.554
11948POPC  H11A96512   0.605   4.181  14.588
11948POPC  H11B96513   0.593   4.069  14.448
11948POPC     P96514   0.764   3.948  14.657
11948POPC   O1396515   0.779   3.806  14.698
11948POPC   O1496516   0.808   4.049  14.756
11948POPC   O1296517   0.608   3.975  14.633
11948POPC   O1196518   0.824   3.977  14.516
11948POPC    C196519   0.893   3.889  14.428
11948POPC    HA96520   0.886   3.782  14.458
11948POPC    HB96521   0.999   3.917  14.427
11948POPC    C296522   0.844   3.909  14.282
11948POPC    HS96523   0.920   3.868  14.211
11948POPC   O2196524   0.818   4.047  14.254
11948POPC   C2196525   0.920   4.130  14.254
11948POPC   O2296526   1.038   4.101  14.245
11948POPC   C2296527   0.860   4.270  14.242
11948POPC   H2R96528   0.946   4.340  14.229
11948POPC   H2S96529   0.808   4.293  14.337
11948POPC    C396530   0.711   3.835  14.261
11948POPC    HX96531   0.635   3.881  14.328
11948POPC    HY96532   0.725   3.732  14.298
11948POPC   O3196533   0.674   3.831  14.121
11948POPC   C3196534   0.586   3.922  14.086
11948POPC   O3296535   0.527   3.998  14.161
11948POPC   C3296536   0.565   3.917  13.934
11948POPC   H2X96537   0.497   3.832  13.911
11948POPC   H2Y96538   0.663   3.900  13.885
11948POPC   C2396539   0.764   4.274  14.121
11948POPC   H3R96540   0.671   4.217  14.143
11948POPC   H3S96541   0.815   4.220  14.038
11948POPC   C2496542   0.727   4.414  14.072
11948POPC   H4R96543   0.812   4.483  14.090
11948POPC   H4S96544   0.640   4.451  14.131
11948POPC   C2596545   0.693   4.418  13.921
11948POPC   H5R96546   0.665   4.523  13.895
11948POPC   H5S96547   0.604   4.354  13.902
11948POPC   C2696548   0.808   4.373  13.830
11948POPC   H6R96549   0.823   4.263  13.838
11948POPC   H6S96550   0.902   4.423  13.864
11948POPC   C2796551   0.785   4.408  13.682
11948POPC   H7R96552   0.767   4.518  13.679
11948POPC   H7S96553   0.694   4.357  13.645
11948POPC   C2896554   0.905   4.376  13.591
11948POPC   H8R96555   0.993   4.430  13.631
11948POPC   H8S96556   0.884   4.421  13.492
11948POPC   C2996557   0.939   4.229  13.577
11948POPC   H9196558   0.986   4.186  13.667
11948POPC  C21096559   0.918   4.148  13.471
11948POPC  H10196560   0.949   4.043  13.478
11948POPC  C21196561   0.855   4.184  13.338
11948POPC  H11R96562   0.811   4.285  13.343
11948POPC  H11S96563   0.770   4.116  13.318
11948POPC  C21296564   0.952   4.178  13.218
11948POPC  H12R96565   0.976   4.071  13.199
11948POPC  H12S96566   1.047   4.230  13.245
11948POPC  C21396567   0.900   4.240  13.087
11948POPC  H13R96568   0.945   4.187  13.001
11948POPC  H13S96569   0.933   4.346  13.078
11948POPC  C21496570   0.747   4.240  13.071
11948POPC  H14R96571   0.699   4.291  13.157
11948POPC  H14S96572   0.711   4.135  13.070
11948POPC  C21596573   0.702   4.313  12.944
11948POPC  H15R96574   0.746   4.258  12.857
11948POPC  H15S96575   0.741   4.417  12.943
11948POPC  C21696576   0.550   4.315  12.930
11948POPC  H16R96577   0.506   4.396  12.991
11948POPC  H16S96578   0.510   4.218  12.969
11948POPC  C21796579   0.506   4.326  12.784
11948POPC  H17R96580   0.396   4.313  12.783
11948POPC  H17S96581   0.551   4.240  12.729
11948POPC  C21896582   0.542   4.456  12.711
11948POPC  H18R96583   0.474   4.538  12.741
11948POPC  H18S96584   0.532   4.442  12.601
11948POPC  H18T96585   0.647   4.487  12.732
11948POPC   C3396586   0.504   4.049  13.885
11948POPC   H3X96587   0.574   4.133  13.909
11948POPC   H3Y96588   0.408   4.069  13.938
11948POPC   C3496589   0.476   4.051  13.734
11948POPC   H4X96590   0.399   3.975  13.710
11948POPC   H4Y96591   0.569   4.025  13.679
11948POPC   C3596592   0.426   4.190  13.689
11948POPC   H5X96593   0.507   4.264  13.704
11948POPC   H5Y96594   0.341   4.219  13.755
11948POPC   C3696595   0.378   4.194  13.544
11948POPC   H6X96596   0.330   4.292  13.525
11948POPC   H6Y96597   0.300   4.116  13.533
11948POPC   C3796598   0.490   4.173  13.441
11948POPC   H7X96599   0.547   4.080  13.464
11948POPC   H7Y96600   0.561   4.258  13.448
11948POPC   C3896601   0.436   4.164  13.297
11948POPC   H8X96602   0.521   4.169  13.226
11948POPC   H8Y96603   0.373   4.254  13.278
11948POPC   C3996604   0.355   4.036  13.269
11948POPC   H9X96605   0.295   4.051  13.177
11948POPC   H9Y96606   0.283   4.017  13.351
11948POPC  C31096607   0.444   3.913  13.249
11948POPC  H10X96608   0.389   3.821  13.280
11948POPC  H10Y96609   0.535   3.921  13.311
11948POPC  C31196610   0.482   3.900  13.101
11948POPC  H11X96611   0.516   4.000  13.065
11948POPC  H11Y96612   0.392   3.872  13.042
11948POPC  C31296613   0.595   3.801  13.072
11948POPC  H12X96614   0.569   3.698  13.105
11948POPC  H12Y96615   0.686   3.833  13.128
11948POPC  C31396616   0.624   3.805  12.922
11948POPC  H13X96617   0.615   3.910  12.887
11948POPC  H13Y96618   0.548   3.744  12.867
11948POPC  C31496619   0.764   3.757  12.887
11948POPC  H14X96620   0.756   3.647  12.877
11948POPC  H14Y96621   0.834   3.776  12.971
11948POPC  C31596622   0.823   3.823  12.761
11948POPC  H15X96623   0.919   3.773  12.734
11948POPC  H15Y96624   0.849   3.928  12.787
11948POPC  C31696625   0.732   3.825  12.638
11948POPC  H16X96626   0.788   3.859  12.548
11948POPC  H16Y96627   0.647   3.895  12.653
11948POPC  H16Z96628   0.690   3.724  12.618
11949POPC     N96629   8.652   3.303  14.833
11949POPC   C1296630   8.609   3.433  14.768
11949POPC  H12A96631   8.639   3.430  14.662
11949POPC  H12B96632   8.662   3.517  14.811
11949POPC   C1396633   8.688   3.323  14.977
11949POPC  H13A96634   8.783   3.372  14.988
11949POPC  H13B96635   8.612   3.381  15.029
11949POPC  H13C96636   8.696   3.226  15.027
11949POPC   C1496637   8.546   3.199  14.821
11949POPC  H14A96638   8.571   3.108  14.873
11949POPC  H14B96639   8.452   3.237  14.860
11949POPC  H14C96640   8.526   3.180  14.715
11949POPC   C1596641   8.769   3.254  14.757
11949POPC  H15A96642   8.741   3.242  14.652
11949POPC  H15B96643   8.805   3.158  14.793
11949POPC  H15C96644   8.849   3.328  14.760
11949POPC   C1196645   8.459   3.468  14.760
11949POPC  H11A96646   8.448   3.572  14.723
11949POPC  H11B96647   8.415   3.464  14.863
11949POPC     P96648   8.408   3.385  14.515
11949POPC   O1396649   8.300   3.470  14.460
11949POPC   O1496650   8.416   3.244  14.473
11949POPC   O1296651   8.391   3.378  14.674
11949POPC   O1196652   8.554   3.445  14.490
11949POPC    C196653   8.575   3.564  14.414
11949POPC    HA96654   8.672   3.609  14.445
11949POPC    HB96655   8.496   3.640  14.439
11949POPC    C296656   8.577   3.554  14.256
11949POPC    HS96657   8.564   3.660  14.223
11949POPC   O2196658   8.468   3.471  14.212
11949POPC   C2196659   8.420   3.510  14.094
11949POPC   O2296660   8.477   3.587  14.018
11949POPC   C2296661   8.282   3.451  14.067
11949POPC   H2R96662   8.206   3.531  14.077
11949POPC   H2S96663   8.263   3.376  14.148
11949POPC    C396664   8.708   3.501  14.189
11949POPC    HX96665   8.784   3.580  14.193
11949POPC    HY96666   8.687   3.490  14.080
11949POPC   O3196667   8.761   3.381  14.247
11949POPC   C3196668   8.800   3.291  14.158
11949POPC   O3296669   8.842   3.313  14.046
11949POPC   C3296670   8.763   3.157  14.214
11949POPC   H2X96671   8.703   3.168  14.307
11949POPC   H2Y96672   8.856   3.104  14.237
11949POPC   C2396673   8.271   3.378  13.930
11949POPC   H3R96674   8.191   3.300  13.941
11949POPC   H3S96675   8.368   3.328  13.912
11949POPC   C2496676   8.243   3.457  13.802
11949POPC   H4R96677   8.337   3.507  13.770
11949POPC   H4S96678   8.166   3.536  13.819
11949POPC   C2596679   8.194   3.362  13.690
11949POPC   H5R96680   8.101   3.313  13.727
11949POPC   H5S96681   8.268   3.282  13.672
11949POPC   C2696682   8.157   3.429  13.556
11949POPC   H6R96683   8.124   3.534  13.574
11949POPC   H6S96684   8.069   3.375  13.514
11949POPC   C2796685   8.267   3.423  13.448
11949POPC   H7R96686   8.223   3.457  13.352
11949POPC   H7S96687   8.298   3.317  13.433
11949POPC   C2896688   8.394   3.507  13.476
11949POPC   H8R96689   8.456   3.510  13.384
11949POPC   H8S96690   8.454   3.454  13.553
11949POPC   C2996691   8.363   3.646  13.523
11949POPC   H9196692   8.387   3.665  13.629
11949POPC  C21096693   8.316   3.748  13.448
11949POPC  H10196694   8.300   3.845  13.497
11949POPC  C21196695   8.285   3.747  13.301
11949POPC  H11R96696   8.188   3.797  13.280
11949POPC  H11S96697   8.279   3.644  13.259
11949POPC  C21296698   8.400   3.821  13.233
11949POPC  H12R96699   8.494   3.762  13.250
11949POPC  H12S96700   8.415   3.921  13.279
11949POPC  C21396701   8.384   3.847  13.084
11949POPC  H13R96702   8.303   3.920  13.066
11949POPC  H13S96703   8.355   3.756  13.029
11949POPC  C21496704   8.517   3.893  13.028
11949POPC  H14R96705   8.597   3.840  13.082
11949POPC  H14S96706   8.530   4.000  13.056
11949POPC  C21596707   8.543   3.874  12.878
11949POPC  H15R96708   8.460   3.914  12.816
11949POPC  H15S96709   8.552   3.765  12.857
11949POPC  C21696710   8.676   3.944  12.848
11949POPC  H16R96711   8.751   3.889  12.907
11949POPC  H16S96712   8.676   4.048  12.887
11949POPC  C21796713   8.726   3.945  12.704
11949POPC  H17R96714   8.834   3.959  12.706
11949POPC  H17S96715   8.690   4.034  12.649
11949POPC  C21896716   8.698   3.819  12.627
11949POPC  H18R96717   8.730   3.729  12.684
11949POPC  H18S96718   8.751   3.819  12.528
11949POPC  H18T96719   8.589   3.815  12.611
11949POPC   C3396720   8.681   3.086  14.105
11949POPC   H3X96721   8.661   2.985  14.143
11949POPC   H3Y96722   8.744   3.076  14.014
11949POPC   C3496723   8.547   3.156  14.072
11949POPC   H4X96724   8.562   3.265  14.058
11949POPC   H4Y96725   8.478   3.144  14.158
11949POPC   C3596726   8.482   3.103  13.943
11949POPC   H5X96727   8.377   3.138  13.933
11949POPC   H5Y96728   8.471   2.995  13.949
11949POPC   C3696729   8.563   3.139  13.819
11949POPC   H6X96730   8.665   3.095  13.832
11949POPC   H6Y96731   8.577   3.249  13.810
11949POPC   C3796732   8.507   3.084  13.688
11949POPC   H7X96733   8.460   3.165  13.629
11949POPC   H7Y96734   8.427   3.010  13.708
11949POPC   C3896735   8.619   3.017  13.607
11949POPC   H8X96736   8.578   2.972  13.514
11949POPC   H8Y96737   8.664   2.934  13.667
11949POPC   C3996738   8.733   3.112  13.571
11949POPC   H9X96739   8.803   3.051  13.512
11949POPC   H9Y96740   8.787   3.146  13.662
11949POPC  C31096741   8.693   3.231  13.485
11949POPC  H10X96742   8.776   3.305  13.486
11949POPC  H10Y96743   8.604   3.281  13.529
11949POPC  C31196744   8.667   3.186  13.342
11949POPC  H11X96745   8.617   3.087  13.338
11949POPC  H11Y96746   8.765   3.177  13.291
11949POPC  C31296747   8.584   3.286  13.264
11949POPC  H12X96748   8.622   3.388  13.290
11949POPC  H12Y96749   8.477   3.281  13.295
11949POPC  C31396750   8.597   3.266  13.113
11949POPC  H13X96751   8.548   3.172  13.079
11949POPC  H13Y96752   8.706   3.257  13.089
11949POPC  C31496753   8.542   3.387  13.041
11949POPC  H14X96754   8.607   3.415  12.956
11949POPC  H14Y96755   8.546   3.473  13.112
11949POPC  C31596756   8.399   3.372  12.991
11949POPC  H15X96757   8.334   3.333  13.074
11949POPC  H15Y96758   8.393   3.302  12.906
11949POPC  C31696759   8.351   3.510  12.953
11949POPC  H16X96760   8.242   3.518  12.938
11949POPC  H16Y96761   8.405   3.548  12.863
11949POPC  H16Z96762   8.379   3.573  13.040
11950POPC     N96763   7.035   1.452  14.794
11950POPC   C1296764   6.899   1.448  14.727
11950POPC  H12A96765   6.871   1.548  14.697
11950POPC  H12B96766   6.823   1.424  14.802
11950POPC   C1396767   7.137   1.495  14.694
11950POPC  H13A96768   7.232   1.519  14.741
11950POPC  H13B96769   7.156   1.412  14.624
11950POPC  H13C96770   7.101   1.579  14.638
11950POPC   C1496771   7.028   1.542  14.911
11950POPC  H14A96772   6.971   1.631  14.888
11950POPC  H14B96773   6.978   1.491  14.994
11950POPC  H14C96774   7.127   1.564  14.948
11950POPC   C1596775   7.073   1.316  14.845
11950POPC  H15A96776   7.174   1.311  14.883
11950POPC  H15B96777   7.069   1.246  14.761
11950POPC  H15C96778   7.004   1.276  14.919
11950POPC   C1196779   6.874   1.352  14.609
11950POPC  H11A96780   6.956   1.355  14.533
11950POPC  H11B96781   6.780   1.384  14.558
11950POPC     P96782   6.928   1.094  14.620
11950POPC   O1396783   6.862   1.045  14.497
11950POPC   O1496784   6.927   1.006  14.741
11950POPC   O1296785   6.853   1.225  14.665
11950POPC   O1196786   7.076   1.146  14.594
11950POPC    C196787   7.188   1.075  14.649
11950POPC    HA96788   7.162   0.982  14.705
11950POPC    HB96789   7.243   1.141  14.720
11950POPC    C296790   7.293   1.034  14.543
11950POPC    HS96791   7.391   1.019  14.594
11950POPC   O2196792   7.312   1.130  14.439
11950POPC   C2196793   7.344   1.254  14.469
11950POPC   O2296794   7.371   1.299  14.580
11950POPC   C2296795   7.341   1.335  14.339
11950POPC   H2R96796   7.431   1.308  14.279
11950POPC   H2S96797   7.348   1.442  14.365
11950POPC    C396798   7.258   0.897  14.476
11950POPC    HX96799   7.287   0.818  14.550
11950POPC    HY96800   7.328   0.888  14.390
11950POPC   O3196801   7.121   0.868  14.438
11950POPC   C3196802   7.070   0.927  14.330
11950POPC   O3296803   7.114   1.027  14.277
11950POPC   C3296804   6.959   0.842  14.266
11950POPC   H2X96805   6.881   0.822  14.342
11950POPC   H2Y96806   7.009   0.747  14.236
11950POPC   C2396807   7.211   1.306  14.261
11950POPC   H3R96808   7.129   1.286  14.334
11950POPC   H3S96809   7.225   1.213  14.202
11950POPC   C2496810   7.158   1.416  14.167
11950POPC   H4R96811   7.181   1.515  14.211
11950POPC   H4S96812   7.047   1.405  14.161
11950POPC   C2596813   7.216   1.404  14.026
11950POPC   H5R96814   7.236   1.296  14.008
11950POPC   H5S96815   7.314   1.456  14.020
11950POPC   C2696816   7.125   1.443  13.909
11950POPC   H6R96817   7.082   1.544  13.920
11950POPC   H6S96818   7.040   1.371  13.908
11950POPC   C2796819   7.205   1.438  13.778
11950POPC   H7R96820   7.281   1.356  13.785
11950POPC   H7S96821   7.262   1.533  13.771
11950POPC   C2896822   7.126   1.418  13.647
11950POPC   H8R96823   7.135   1.316  13.606
11950POPC   H8S96824   7.180   1.478  13.571
11950POPC   C2996825   6.980   1.453  13.662
11950POPC   H9196826   6.915   1.376  13.707
11950POPC  C21096827   6.929   1.572  13.628
11950POPC  H10196828   6.824   1.596  13.649
11950POPC  C21196829   7.016   1.680  13.571
11950POPC  H11R96830   7.106   1.692  13.636
11950POPC  H11S96831   6.962   1.776  13.572
11950POPC  C21296832   7.068   1.650  13.428
11950POPC  H12R96833   7.050   1.544  13.399
11950POPC  H12S96834   7.178   1.666  13.427
11950POPC  C21396835   7.005   1.740  13.323
11950POPC  H13R96836   7.011   1.846  13.358
11950POPC  H13S96837   6.898   1.715  13.317
11950POPC  C21496838   7.072   1.731  13.186
11950POPC  H14R96839   7.182   1.748  13.197
11950POPC  H14S96840   7.033   1.815  13.124
11950POPC  C21596841   7.046   1.602  13.107
11950POPC  H15R96842   7.123   1.525  13.132
11950POPC  H15S96843   7.058   1.629  13.000
11950POPC  C21696844   6.906   1.543  13.128
11950POPC  H16R96845   6.834   1.627  13.131
11950POPC  H16S96846   6.900   1.491  13.226
11950POPC  C21796847   6.862   1.447  13.016
11950POPC  H17R96848   6.913   1.349  13.032
11950POPC  H17S96849   6.895   1.488  12.918
11950POPC  C21896850   6.711   1.424  13.008
11950POPC  H18R96851   6.684   1.368  12.916
11950POPC  H18S96852   6.656   1.519  13.002
11950POPC  H18T96853   6.675   1.367  13.096
11950POPC   C3396854   6.897   0.906  14.138
11950POPC   H3X96855   6.977   0.959  14.083
11950POPC   H3Y96856   6.824   0.985  14.167
11950POPC   C3496857   6.834   0.804  14.040
11950POPC   H4X96858   6.726   0.793  14.066
11950POPC   H4Y96859   6.882   0.705  14.058
11950POPC   C3596860   6.846   0.838  13.890
11950POPC   H5X96861   6.901   0.932  13.875
11950POPC   H5Y96862   6.744   0.867  13.855
11950POPC   C3696863   6.897   0.724  13.795
11950POPC   H6X96864   6.837   0.722  13.703
11950POPC   H6Y96865   6.867   0.632  13.850
11950POPC   C3796866   7.049   0.711  13.754
11950POPC   H7X96867   7.068   0.604  13.743
11950POPC   H7Y96868   7.116   0.741  13.835
11950POPC   C3896869   7.103   0.742  13.611
11950POPC   H8X96870   7.056   0.831  13.570
11950POPC   H8Y96871   7.080   0.653  13.548
11950POPC   C3996872   7.256   0.757  13.590
11950POPC   H9X96873   7.298   0.654  13.595
11950POPC   H9Y96874   7.308   0.812  13.671
11950POPC  C31096875   7.301   0.814  13.453
11950POPC  H10X96876   7.278   0.739  13.375
11950POPC  H10Y96877   7.411   0.823  13.461
11950POPC  C31196878   7.260   0.954  13.400
11950POPC  H11X96879   7.313   1.035  13.452
11950POPC  H11Y96880   7.156   0.974  13.421
11950POPC  C31296881   7.276   0.961  13.246
11950POPC  H12X96882   7.212   0.883  13.199
11950POPC  H12Y96883   7.381   0.932  13.225
11950POPC  C31396884   7.253   1.096  13.175
11950POPC  H13X96885   7.302   1.089  13.074
11950POPC  H13Y96886   7.305   1.177  13.229
11950POPC  C31496887   7.108   1.143  13.155
11950POPC  H14X96888   7.114   1.245  13.109
11950POPC  H14Y96889   7.058   1.154  13.253
11950POPC  C31596890   7.025   1.056  13.061
11950POPC  H15X96891   6.927   1.108  13.045
11950POPC  H15Y96892   7.002   0.959  13.111
11950POPC  C31696893   7.090   1.030  12.925
11950POPC  H16X96894   7.175   0.959  12.933
11950POPC  H16Y96895   7.127   1.125  12.880
11950POPC  H16Z96896   7.017   0.987  12.853
11951POPC     N96897   3.115   0.675  14.724
11951POPC   C1296898   3.099   0.782  14.831
11951POPC  H12A96899   3.195   0.806  14.874
11951POPC  H12B96900   3.039   0.743  14.914
11951POPC   C1396901   3.202   0.565  14.772
11951POPC  H13A96902   3.220   0.489  14.695
11951POPC  H13B96903   3.301   0.600  14.798
11951POPC  H13C96904   3.160   0.514  14.857
11951POPC   C1496905   2.979   0.623  14.688
11951POPC  H14A96906   2.919   0.710  14.659
11951POPC  H14B96907   2.983   0.557  14.604
11951POPC  H14C96908   2.932   0.578  14.774
11951POPC   C1596909   3.168   0.736  14.599
11951POPC  H15A96910   3.263   0.784  14.613
11951POPC  H15B96911   3.095   0.813  14.571
11951POPC  H15C96912   3.169   0.669  14.515
11951POPC   C1196913   3.028   0.913  14.786
11951POPC  H11A96914   3.087   0.964  14.706
11951POPC  H11B96915   3.027   0.983  14.873
11951POPC     P96916   2.824   0.951  14.619
11951POPC   O1396917   2.849   1.097  14.624
11951POPC   O1496918   2.684   0.903  14.615
11951POPC   O1296919   2.894   0.886  14.748
11951POPC   O1196920   2.907   0.888  14.500
11951POPC    C196921   3.004   0.959  14.423
11951POPC    HA96922   3.066   0.886  14.367
11951POPC    HB96923   3.072   1.018  14.489
11951POPC    C296924   2.945   1.055  14.316
11951POPC    HS96925   2.874   1.122  14.369
11951POPC   O2196926   2.876   0.978  14.216
11951POPC   C2196927   2.799   1.045  14.131
11951POPC   O2296928   2.803   1.165  14.110
11951POPC   C2296929   2.702   0.949  14.061
11951POPC   H2R96930   2.649   0.891  14.140
11951POPC   H2S96931   2.763   0.880  13.999
11951POPC    C396932   3.062   1.141  14.257
11951POPC    HX96933   3.101   1.205  14.340
11951POPC    HY96934   3.022   1.209  14.179
11951POPC   O3196935   3.170   1.056  14.210
11951POPC   C3196936   3.243   1.111  14.112
11951POPC   O3296937   3.233   1.227  14.076
11951POPC   C3296938   3.339   1.007  14.053
11951POPC   H2X96939   3.324   0.911  14.106
11951POPC   H2Y96940   3.443   1.041  14.072
11951POPC   C2396941   2.601   1.028  13.973
11951POPC   H3R96942   2.656   1.107  13.918
11951POPC   H3S96943   2.527   1.078  14.038
11951POPC   C2496944   2.530   0.943  13.867
11951POPC   H4R96945   2.482   0.857  13.920
11951POPC   H4S96946   2.603   0.900  13.796
11951POPC   C2596947   2.418   1.018  13.791
11951POPC   H5R96948   2.355   1.073  13.865
11951POPC   H5S96949   2.352   0.941  13.744
11951POPC   C2696950   2.456   1.117  13.679
11951POPC   H6R96951   2.492   1.212  13.723
11951POPC   H6S96952   2.361   1.142  13.625
11951POPC   C2796953   2.559   1.069  13.575
11951POPC   H7R96954   2.516   0.983  13.518
11951POPC   H7S96955   2.650   1.033  13.628
11951POPC   C2896956   2.602   1.181  13.478
11951POPC   H8R96957   2.679   1.141  13.409
11951POPC   H8S96958   2.657   1.257  13.535
11951POPC   C2996959   2.487   1.244  13.403
11951POPC   H9196960   2.437   1.328  13.453
11951POPC  C21096961   2.444   1.202  13.283
11951POPC  H10196962   2.359   1.252  13.234
11951POPC  C21196963   2.505   1.087  13.208
11951POPC  H11R96964   2.429   1.010  13.188
11951POPC  H11S96965   2.584   1.033  13.264
11951POPC  C21296966   2.561   1.128  13.072
11951POPC  H12R96967   2.641   1.203  13.086
11951POPC  H12S96968   2.482   1.176  13.011
11951POPC  C21396969   2.612   1.003  13.000
11951POPC  H13R96970   2.556   0.916  13.040
11951POPC  H13S96971   2.718   0.986  13.026
11951POPC  C21496972   2.591   1.004  12.849
11951POPC  H14R96973   2.666   1.071  12.800
11951POPC  H14S96974   2.490   1.046  12.827
11951POPC  C21596975   2.598   0.861  12.791
11951POPC  H15R96976   2.511   0.845  12.723
11951POPC  H15S96977   2.592   0.786  12.873
11951POPC  C21696978   2.727   0.842  12.712
11951POPC  H16R96979   2.813   0.867  12.779
11951POPC  H16S96980   2.722   0.917  12.630
11951POPC  C21796981   2.752   0.704  12.650
11951POPC  H17R96982   2.741   0.625  12.727
11951POPC  H17S96983   2.858   0.701  12.615
11951POPC  C21896984   2.662   0.674  12.530
11951POPC  H18R96985   2.691   0.579  12.481
11951POPC  H18S96986   2.670   0.756  12.455
11951POPC  H18T96987   2.556   0.668  12.561
11951POPC   C3396988   3.318   0.986  13.901
11951POPC   H3X96989   3.388   0.906  13.869
11951POPC   H3Y96990   3.344   1.078  13.844
11951POPC   C3496991   3.174   0.941  13.870
11951POPC   H4X96992   3.109   1.030  13.857
11951POPC   H4Y96993   3.137   0.885  13.958
11951POPC   C3596994   3.160   0.850  13.748
11951POPC   H5X96995   3.248   0.781  13.742
11951POPC   H5Y96996   3.159   0.911  13.655
11951POPC   C3696997   3.033   0.764  13.760
11951POPC   H6X96998   2.945   0.830  13.772
11951POPC   H6Y96999   3.042   0.703  13.853
11951POPC   C3797000   3.010   0.667  13.643
11951POPC   H7X97001   2.920   0.606  13.666
11951POPC   H7Y97002   3.098   0.598  13.636
11951POPC   C3897003   2.990   0.733  13.507
11951POPC   H8X97004   2.975   0.654  13.430
11951POPC   H8Y97005   3.084   0.787  13.480
11951POPC   C3997006   2.870   0.829  13.505
11951POPC   H9X97007   2.878   0.905  13.585
11951POPC   H9Y97008   2.777   0.770  13.523
11951POPC  C31097009   2.858   0.903  13.372
11951POPC  H10X97010   2.759   0.952  13.366
11951POPC  H10Y97011   2.862   0.828  13.290
11951POPC  C31197012   2.968   1.010  13.357
11951POPC  H11X97013   3.068   0.966  13.377
11951POPC  H11Y97014   2.950   1.089  13.433
11951POPC  C31297015   2.971   1.073  13.218
11951POPC  H12X97016   3.050   1.152  13.215
11951POPC  H12Y97017   2.873   1.121  13.202
11951POPC  C31397018   2.996   0.970  13.106
11951POPC  H13X97019   2.910   0.970  13.038
11951POPC  H13Y97020   3.005   0.868  13.148
11951POPC  C31497021   3.119   0.998  13.020
11951POPC  H14X97022   3.209   0.961  13.074
11951POPC  H14Y97023   3.131   1.108  13.004
11951POPC  C31597024   3.108   0.931  12.882
11951POPC  H15X97025   3.203   0.947  12.826
11951POPC  H15Y97026   3.027   0.982  12.825
11951POPC  C31697027   3.076   0.781  12.886
11951POPC  H16X97028   3.084   0.737  12.784
11951POPC  H16Y97029   2.973   0.764  12.923
11951POPC  H16Z97030   3.146   0.727  12.954
11952POPC     N97031   5.699   0.466  14.719
11952POPC   C1297032   5.732   0.602  14.780
11952POPC  H12A97033   5.839   0.615  14.784
11952POPC  H12B97034   5.699   0.603  14.884
11952POPC   C1397035   5.554   0.434  14.731
11952POPC  H13A97036   5.524   0.430  14.835
11952POPC  H13B97037   5.496   0.514  14.685
11952POPC  H13C97038   5.532   0.341  14.682
11952POPC   C1497039   5.740   0.460  14.575
11952POPC  H14A97040   5.845   0.484  14.565
11952POPC  H14B97041   5.726   0.361  14.534
11952POPC  H14C97042   5.682   0.532  14.516
11952POPC   C1597043   5.777   0.366  14.795
11952POPC  H15A97044   5.762   0.267  14.756
11952POPC  H15B97045   5.750   0.366  14.901
11952POPC  H15C97046   5.883   0.389  14.790
11952POPC   C1197047   5.673   0.728  14.717
11952POPC  H11A97048   5.700   0.726  14.609
11952POPC  H11B97049   5.724   0.818  14.759
11952POPC     P97050   5.426   0.764  14.635
11952POPC   O1397051   5.393   0.909  14.640
11952POPC   O1497052   5.315   0.668  14.649
11952POPC   O1297053   5.534   0.734  14.745
11952POPC   O1197054   5.507   0.730  14.506
11952POPC    C197055   5.486   0.801  14.385
11952POPC    HA97056   5.507   0.910  14.396
11952POPC    HB97057   5.381   0.790  14.350
11952POPC    C297058   5.583   0.741  14.281
11952POPC    HS97059   5.558   0.780  14.180
11952POPC   O2197060   5.580   0.597  14.280
11952POPC   C2197061   5.465   0.540  14.256
11952POPC   O2297062   5.361   0.593  14.220
11952POPC   C2297063   5.486   0.390  14.267
11952POPC   H2R97064   5.395   0.347  14.313
11952POPC   H2S97065   5.573   0.368  14.331
11952POPC    C397066   5.729   0.783  14.312
11952POPC    HX97067   5.744   0.775  14.422
11952POPC    HY97068   5.744   0.890  14.287
11952POPC   O3197069   5.826   0.697  14.249
11952POPC   C3197070   5.821   0.701  14.116
11952POPC   O3297071   5.765   0.788  14.051
11952POPC   C3297072   5.894   0.581  14.057
11952POPC   H2X97073   5.907   0.507  14.139
11952POPC   H2Y97074   5.994   0.614  14.023
11952POPC   C2397075   5.509   0.333  14.125
11952POPC   H3R97076   5.611   0.358  14.090
11952POPC   H3S97077   5.437   0.382  14.055
11952POPC   C2497078   5.489   0.181  14.115
11952POPC   H4R97079   5.435   0.144  14.204
11952POPC   H4S97080   5.587   0.130  14.112
11952POPC   C2597081   5.408   0.146  13.990
11952POPC   H5R97082   5.326   0.219  13.985
11952POPC   H5S97083   5.367   0.043  13.995
11952POPC   C2697084   5.472   0.175  13.856
11952POPC   H6R97085   5.578   0.193  13.874
11952POPC   H6S97086   5.432   0.272  13.820
11952POPC   C2797087   5.440   0.060  13.757
11952POPC   H7R97088   5.329   0.044  13.760
11952POPC   H7S97089   5.487  -0.033  13.795
11952POPC   C2897090   5.480   0.079  13.609
11952POPC   H8R97091   5.390   0.064  13.545
11952POPC   H8S97092   5.549  -0.002  13.581
11952POPC   C2997093   5.543   0.212  13.581
11952POPC   H9197094   5.653   0.215  13.572
11952POPC  C21097095   5.473   0.324  13.568
11952POPC  H10197096   5.527   0.418  13.551
11952POPC  C21197097   5.322   0.333  13.579
11952POPC  H11R97098   5.279   0.252  13.642
11952POPC  H11S97099   5.275   0.320  13.479
11952POPC  C21297100   5.279   0.467  13.638
11952POPC  H12R97101   5.314   0.476  13.743
11952POPC  H12S97102   5.168   0.469  13.640
11952POPC  C21397103   5.328   0.590  13.559
11952POPC  H13R97104   5.438   0.601  13.563
11952POPC  H13S97105   5.286   0.678  13.611
11952POPC  C21497106   5.282   0.588  13.412
11952POPC  H14R97107   5.270   0.691  13.373
11952POPC  H14S97108   5.182   0.539  13.405
11952POPC  C21597109   5.380   0.520  13.317
11952POPC  H15R97110   5.422   0.426  13.356
11952POPC  H15S97111   5.467   0.588  13.300
11952POPC  C21697112   5.318   0.478  13.185
11952POPC  H16R97113   5.408   0.444  13.129
11952POPC  H16S97114   5.270   0.564  13.134
11952POPC  C21797115   5.230   0.353  13.183
11952POPC  H17R97116   5.142   0.372  13.117
11952POPC  H17S97117   5.190   0.330  13.285
11952POPC  C21897118   5.307   0.232  13.128
11952POPC  H18R97119   5.361   0.260  13.034
11952POPC  H18S97120   5.239   0.147  13.104
11952POPC  H18T97121   5.384   0.199  13.202
11952POPC   C3397122   5.812   0.515  13.943
11952POPC   H3X97123   5.707   0.501  13.975
11952POPC   H3Y97124   5.854   0.414  13.924
11952POPC   C3497125   5.810   0.593  13.810
11952POPC   H4X97126   5.783   0.699  13.828
11952POPC   H4Y97127   5.730   0.549  13.746
11952POPC   C3597128   5.942   0.585  13.732
11952POPC   H5X97129   5.962   0.478  13.710
11952POPC   H5Y97130   6.026   0.625  13.794
11952POPC   C3697131   5.940   0.656  13.596
11952POPC   H6X97132   5.855   0.616  13.536
11952POPC   H6Y97133   6.035   0.629  13.543
11952POPC   C3797134   5.931   0.809  13.602
11952POPC   H7X97135   6.028   0.849  13.638
11952POPC   H7Y97136   5.853   0.839  13.676
11952POPC   C3897137   5.896   0.871  13.466
11952POPC   H8X97138   5.891   0.982  13.477
11952POPC   H8Y97139   5.794   0.836  13.437
11952POPC   C3997140   5.996   0.836  13.355
11952POPC   H9X97141   5.999   0.726  13.339
11952POPC   H9Y97142   6.098   0.867  13.389
11952POPC  C31097143   5.968   0.905  13.221
11952POPC  H10X97144   6.055   0.889  13.153
11952POPC  H10Y97145   5.959   1.015  13.238
11952POPC  C31197146   5.841   0.856  13.151
11952POPC  H11X97147   5.755   0.861  13.221
11952POPC  H11Y97148   5.852   0.750  13.119
11952POPC  C31297149   5.806   0.943  13.029
11952POPC  H12X97150   5.878   0.921  12.947
11952POPC  H12Y97151   5.816   1.050  13.056
11952POPC  C31397152   5.664   0.915  12.980
11952POPC  H13X97153   5.593   0.947  13.060
11952POPC  H13Y97154   5.655   0.805  12.970
11952POPC  C31497155   5.621   0.977  12.846
11952POPC  H14X97156   5.695   0.952  12.767
11952POPC  H14Y97157   5.616   1.088  12.855
11952POPC  C31597158   5.484   0.917  12.808
11952POPC  H15X97159   5.417   0.926  12.897
11952POPC  H15Y97160   5.500   0.808  12.793
11952POPC  C31697161   5.416   0.973  12.682
11952POPC  H16X97162   5.358   0.891  12.632
11952POPC  H16Y97163   5.492   1.013  12.611
11952POPC  H16Z97164   5.344   1.055  12.705
11953POPC     N97165   1.758   1.562  14.788
11953POPC   C1297166   1.828   1.671  14.709
11953POPC  H12A97167   1.932   1.670  14.735
11953POPC  H12B97168   1.786   1.768  14.740
11953POPC   C1397169   1.798   1.425  14.742
11953POPC  H13A97170   1.738   1.348  14.792
11953POPC  H13B97171   1.778   1.416  14.636
11953POPC  H13C97172   1.903   1.402  14.760
11953POPC   C1497173   1.784   1.580  14.934
11953POPC  H14A97174   1.889   1.573  14.959
11953POPC  H14B97175   1.742   1.673  14.969
11953POPC  H14C97176   1.738   1.498  14.990
11953POPC   C1597177   1.611   1.572  14.765
11953POPC  H15A97178   1.556   1.499  14.821
11953POPC  H15B97179   1.593   1.558  14.658
11953POPC  H15C97180   1.578   1.674  14.785
11953POPC   C1197181   1.812   1.674  14.554
11953POPC  H11A97182   1.850   1.578  14.512
11953POPC  H11B97183   1.878   1.754  14.512
11953POPC     P97184   1.604   1.832  14.545
11953POPC   O1397185   1.667   1.941  14.467
11953POPC   O1497186   1.606   1.848  14.693
11953POPC   O1297187   1.677   1.694  14.512
11953POPC   O1197188   1.454   1.808  14.498
11953POPC    C197189   1.392   1.678  14.500
11953POPC    HA97190   1.304   1.682  14.568
11953POPC    HB97191   1.460   1.600  14.540
11953POPC    C297192   1.344   1.625  14.361
11953POPC    HS97193   1.315   1.518  14.373
11953POPC   O2197194   1.447   1.637  14.262
11953POPC   C2197195   1.546   1.552  14.276
11953POPC   O2297196   1.553   1.459  14.355
11953POPC   C2297197   1.656   1.589  14.175
11953POPC   H2R97198   1.682   1.695  14.196
11953POPC   H2S97199   1.615   1.581  14.073
11953POPC    C397200   1.215   1.697  14.307
11953POPC    HX97201   1.136   1.687  14.385
11953POPC    HY97202   1.181   1.641  14.217
11953POPC   O3197203   1.237   1.837  14.280
11953POPC   C3197204   1.272   1.866  14.155
11953POPC   O3297205   1.254   1.795  14.057
11953POPC   C3297206   1.341   2.003  14.154
11953POPC   H2X97207   1.291   2.066  14.231
11953POPC   H2Y97208   1.324   2.049  14.055
11953POPC   C2397209   1.782   1.501  14.192
11953POPC   H3R97210   1.755   1.396  14.166
11953POPC   H3S97211   1.811   1.503  14.299
11953POPC   C2497212   1.903   1.547  14.109
11953POPC   H4R97213   1.993   1.491  14.143
11953POPC   H4S97214   1.922   1.655  14.129
11953POPC   C2597215   1.889   1.526  13.958
11953POPC   H5R97216   1.985   1.556  13.908
11953POPC   H5S97217   1.809   1.593  13.920
11953POPC   C2697218   1.857   1.381  13.917
11953POPC   H6R97219   1.754   1.355  13.952
11953POPC   H6S97220   1.928   1.311  13.966
11953POPC   C2797221   1.863   1.357  13.766
11953POPC   H7R97222   1.824   1.255  13.746
11953POPC   H7S97223   1.969   1.359  13.732
11953POPC   C2897224   1.782   1.461  13.688
11953POPC   H8R97225   1.834   1.559  13.697
11953POPC   H8S97226   1.683   1.473  13.738
11953POPC   C2997227   1.766   1.423  13.544
11953POPC   H9197228   1.856   1.437  13.481
11953POPC  C21097229   1.653   1.381  13.487
11953POPC  H10197230   1.654   1.357  13.379
11953POPC  C21197231   1.518   1.361  13.553
11953POPC  H11R97232   1.527   1.338  13.662
11953POPC  H11S97233   1.469   1.273  13.507
11953POPC  C21297234   1.425   1.484  13.534
11953POPC  H12R97235   1.432   1.552  13.622
11953POPC  H12S97236   1.320   1.446  13.530
11953POPC  C21397237   1.457   1.561  13.405
11953POPC  H13R97238   1.485   1.485  13.332
11953POPC  H13S97239   1.549   1.621  13.413
11953POPC  C21497240   1.349   1.651  13.344
11953POPC  H14R97241   1.345   1.745  13.402
11953POPC  H14S97242   1.251   1.600  13.347
11953POPC  C21597243   1.390   1.688  13.200
11953POPC  H15R97244   1.464   1.611  13.170
11953POPC  H15S97245   1.444   1.784  13.200
11953POPC  C21697246   1.278   1.699  13.096
11953POPC  H16R97247   1.249   1.806  13.093
11953POPC  H16S97248   1.188   1.644  13.129
11953POPC  C21797249   1.314   1.661  12.952
11953POPC  H17R97250   1.283   1.745  12.886
11953POPC  H17S97251   1.252   1.573  12.923
11953POPC  C21897252   1.462   1.631  12.923
11953POPC  H18R97253   1.481   1.606  12.817
11953POPC  H18S97254   1.497   1.545  12.984
11953POPC  H18T97255   1.523   1.719  12.949
11953POPC   C3397256   1.493   1.996  14.184
11953POPC   H3X97257   1.519   1.904  14.239
11953POPC   H3Y97258   1.518   2.081  14.252
11953POPC   C3497259   1.581   2.010  14.059
11953POPC   H4X97260   1.687   2.026  14.090
11953POPC   H4Y97261   1.549   2.100  14.002
11953POPC   C3597262   1.576   1.887  13.968
11953POPC   H5X97263   1.470   1.858  13.951
11953POPC   H5Y97264   1.626   1.802  14.019
11953POPC   C3697265   1.643   1.908  13.832
11953POPC   H6X97266   1.752   1.925  13.846
11953POPC   H6Y97267   1.600   1.998  13.783
11953POPC   C3797268   1.622   1.786  13.742
11953POPC   H7X97269   1.513   1.763  13.740
11953POPC   H7Y97270   1.672   1.698  13.786
11953POPC   C3897271   1.668   1.805  13.597
11953POPC   H8X97272   1.609   1.886  13.549
11953POPC   H8Y97273   1.644   1.709  13.548
11953POPC   C3997274   1.818   1.827  13.573
11953POPC   H9X97275   1.875   1.737  13.602
11953POPC   H9Y97276   1.853   1.912  13.636
11953POPC  C31097277   1.849   1.861  13.426
11953POPC  H10X97278   1.957   1.887  13.416
11953POPC  H10Y97279   1.791   1.952  13.401
11953POPC  C31197280   1.816   1.751  13.323
11953POPC  H11X97281   1.783   1.658  13.375
11953POPC  H11Y97282   1.906   1.725  13.264
11953POPC  C31297283   1.705   1.796  13.227
11953POPC  H12X97284   1.621   1.833  13.290
11953POPC  H12Y97285   1.670   1.710  13.167
11953POPC  C31397286   1.750   1.909  13.134
11953POPC  H13X97287   1.826   1.867  13.066
11953POPC  H13Y97288   1.799   1.990  13.191
11953POPC  C31497289   1.637   1.970  13.051
11953POPC  H14X97290   1.555   2.002  13.119
11953POPC  H14Y97291   1.595   1.895  12.982
11953POPC  C31597292   1.682   2.088  12.966
11953POPC  H15X97293   1.761   2.052  12.897
11953POPC  H15Y97294   1.732   2.166  13.028
11953POPC  C31697295   1.566   2.150  12.887
11953POPC  H16X97296   1.603   2.226  12.815
11953POPC  H16Y97297   1.494   2.199  12.957
11953POPC  H16Z97298   1.510   2.072  12.831
11954POPC     N97299   2.869   8.576  14.870
11954POPC   C1297300   2.843   8.718  14.819
11954POPC  H12A97301   2.923   8.747  14.751
11954POPC  H12B97302   2.843   8.788  14.901
11954POPC   C1397303   2.939   8.499  14.761
11954POPC  H13A97304   2.871   8.485  14.676
11954POPC  H13B97305   3.024   8.553  14.721
11954POPC  H13C97306   2.971   8.401  14.793
11954POPC   C1497307   2.953   8.574  14.995
11954POPC  H14A97308   3.050   8.618  14.979
11954POPC  H14B97309   2.904   8.626  15.077
11954POPC  H14C97310   2.970   8.472  15.030
11954POPC   C1597311   2.739   8.505  14.894
11954POPC  H15A97312   2.686   8.505  14.798
11954POPC  H15B97313   2.676   8.556  14.964
11954POPC  H15C97314   2.756   8.403  14.924
11954POPC   C1197315   2.713   8.744  14.738
11954POPC  H11A97316   2.708   8.851  14.707
11954POPC  H11B97317   2.623   8.727  14.800
11954POPC     P97318   2.800   8.694  14.499
11954POPC   O1397319   2.833   8.567  14.431
11954POPC   O1497320   2.913   8.777  14.547
11954POPC   O1297321   2.708   8.659  14.625
11954POPC   O1197322   2.702   8.781  14.410
11954POPC    C197323   2.569   8.734  14.389
11954POPC    HA97324   2.505   8.822  14.367
11954POPC    HB97325   2.526   8.684  14.478
11954POPC    C297326   2.564   8.640  14.266
11954POPC    HS97327   2.647   8.566  14.274
11954POPC   O2197328   2.576   8.729  14.152
11954POPC   C2197329   2.681   8.701  14.074
11954POPC   O2297330   2.738   8.595  14.070
11954POPC   C2297331   2.719   8.822  13.986
11954POPC   H2R97332   2.698   8.914  14.045
11954POPC   H2S97333   2.654   8.822  13.897
11954POPC    C397334   2.432   8.557  14.266
11954POPC    HX97335   2.350   8.623  14.300
11954POPC    HY97336   2.440   8.475  14.341
11954POPC   O3197337   2.399   8.507  14.137
11954POPC   C3197338   2.471   8.404  14.091
11954POPC   O3297339   2.541   8.329  14.156
11954POPC   C3297340   2.448   8.405  13.940
11954POPC   H2X97341   2.364   8.474  13.917
11954POPC   H2Y97342   2.419   8.303  13.916
11954POPC   C2397343   2.868   8.822  13.943
11954POPC   H3R97344   2.930   8.803  14.033
11954POPC   H3S97345   2.895   8.923  13.905
11954POPC   C2497346   2.909   8.718  13.835
11954POPC   H4R97347   2.869   8.618  13.864
11954POPC   H4S97348   3.020   8.710  13.837
11954POPC   C2597349   2.867   8.751  13.691
11954POPC   H5R97350   2.900   8.853  13.663
11954POPC   H5S97351   2.756   8.748  13.686
11954POPC   C2697352   2.923   8.649  13.589
11954POPC   H6R97353   2.894   8.549  13.629
11954POPC   H6S97354   3.034   8.651  13.591
11954POPC   C2797355   2.875   8.667  13.444
11954POPC   H7R97356   2.941   8.739  13.390
11954POPC   H7S97357   2.777   8.716  13.441
11954POPC   C2897358   2.858   8.539  13.359
11954POPC   H8R97359   2.956   8.516  13.317
11954POPC   H8S97360   2.795   8.565  13.271
11954POPC   C2997361   2.804   8.417  13.431
11954POPC   H9197362   2.872   8.372  13.506
11954POPC  C21097363   2.685   8.358  13.408
11954POPC  H10197364   2.657   8.269  13.466
11954POPC  C21197365   2.585   8.402  13.304
11954POPC  H11R97366   2.586   8.512  13.288
11954POPC  H11S97367   2.482   8.374  13.336
11954POPC  C21297368   2.623   8.328  13.174
11954POPC  H12R97369   2.611   8.220  13.200
11954POPC  H12S97370   2.729   8.347  13.148
11954POPC  C21397371   2.537   8.344  13.048
11954POPC  H13R97372   2.429   8.350  13.071
11954POPC  H13S97373   2.549   8.248  12.992
11954POPC  C21497374   2.576   8.451  12.945
11954POPC  H14R97375   2.486   8.513  12.929
11954POPC  H14S97376   2.596   8.402  12.847
11954POPC  C21597377   2.691   8.549  12.972
11954POPC  H15R97378   2.791   8.503  12.969
11954POPC  H15S97379   2.684   8.587  13.076
11954POPC  C21697380   2.681   8.658  12.864
11954POPC  H16R97381   2.618   8.745  12.890
11954POPC  H16S97382   2.629   8.611  12.778
11954POPC  C21797383   2.810   8.713  12.808
11954POPC  H17R97384   2.878   8.628  12.784
11954POPC  H17S97385   2.859   8.776  12.884
11954POPC  C21897386   2.779   8.794  12.682
11954POPC  H18R97387   2.871   8.822  12.628
11954POPC  H18S97388   2.722   8.886  12.708
11954POPC  H18T97389   2.714   8.734  12.614
11954POPC   C3397390   2.572   8.442  13.856
11954POPC   H3X97391   2.654   8.371  13.878
11954POPC   H3Y97392   2.607   8.544  13.882
11954POPC   C3497393   2.544   8.440  13.705
11954POPC   H4X97394   2.524   8.335  13.675
11954POPC   H4Y97395   2.636   8.474  13.653
11954POPC   C3597396   2.426   8.527  13.658
11954POPC   H5X97397   2.336   8.510  13.720
11954POPC   H5Y97398   2.398   8.495  13.555
11954POPC   C3697399   2.456   8.678  13.655
11954POPC   H6X97400   2.532   8.705  13.732
11954POPC   H6Y97401   2.364   8.731  13.683
11954POPC   C3797402   2.503   8.720  13.515
11954POPC   H7X97403   2.452   8.656  13.439
11954POPC   H7Y97404   2.608   8.691  13.514
11954POPC   C3897405   2.484   8.866  13.467
11954POPC   H8X97406   2.398   8.919  13.506
11954POPC   H8Y97407   2.450   8.857  13.363
11954POPC   C3997408   2.611   8.954  13.472
11954POPC   H9X97409   2.698   8.888  13.489
11954POPC   H9Y97410   2.607   9.025  13.557
11954POPC  C31097411   2.634   9.026  13.339
11954POPC  H10X97412   2.579   9.122  13.330
11954POPC  H10Y97413   2.588   8.956  13.267
11954POPC  C31197414   2.777   9.029  13.286
11954POPC  H11X97415   2.838   8.951  13.338
11954POPC  H11Y97416   2.824   9.128  13.306
11954POPC  C31297417   2.774   8.997  13.136
11954POPC  H12X97418   2.718   9.078  13.086
11954POPC  H12Y97419   2.718   8.902  13.118
11954POPC  C31397420   2.910   8.981  13.068
11954POPC  H13X97421   2.972   9.071  13.083
11954POPC  H13Y97422   2.889   8.972  12.959
11954POPC  C31497423   2.985   8.853  13.106
11954POPC  H14X97424   2.914   8.768  13.097
11954POPC  H14Y97425   3.021   8.856  13.211
11954POPC  C31597426   3.101   8.830  13.009
11954POPC  H15X97427   3.189   8.892  13.040
11954POPC  H15Y97428   3.071   8.864  12.907
11954POPC  C31697429   3.138   8.684  12.999
11954POPC  H16X97430   3.178   8.645  13.096
11954POPC  H16Y97431   3.214   8.667  12.920
11954POPC  H16Z97432   3.048   8.624  12.972
11955POPC     N97433   7.201   8.024  14.644
11955POPC   C1297434   7.214   8.173  14.613
11955POPC  H12A97435   7.116   8.217  14.595
11955POPC  H12B97436   7.276   8.188  14.525
11955POPC   C1397437   7.107   8.010  14.758
11955POPC  H13A97438   7.105   7.911  14.802
11955POPC  H13B97439   7.133   8.081  14.837
11955POPC  H13C97440   7.007   8.040  14.731
11955POPC   C1497441   7.158   7.947  14.523
11955POPC  H14A97442   7.231   7.957  14.443
11955POPC  H14B97443   7.149   7.841  14.545
11955POPC  H14C97444   7.062   7.981  14.488
11955POPC   C1597445   7.332   7.972  14.691
11955POPC  H15A97446   7.365   8.032  14.776
11955POPC  H15B97447   7.404   7.986  14.613
11955POPC  H15C97448   7.332   7.869  14.724
11955POPC   C1197449   7.279   8.260  14.724
11955POPC  H11A97450   7.317   8.354  14.676
11955POPC  H11B97451   7.369   8.212  14.767
11955POPC     P97452   7.119   8.425  14.851
11955POPC   O1397453   7.199   8.503  14.949
11955POPC   O1497454   6.978   8.400  14.884
11955POPC   O1297455   7.187   8.284  14.828
11955POPC   O1197456   7.128   8.488  14.706
11955POPC    C197457   7.016   8.538  14.632
11955POPC    HA97458   7.055   8.608  14.555
11955POPC    HB97459   6.950   8.600  14.697
11955POPC    C297460   6.922   8.435  14.554
11955POPC    HS97461   6.824   8.486  14.554
11955POPC   O2197462   6.912   8.303  14.611
11955POPC   C2197463   6.801   8.239  14.565
11955POPC   O2297464   6.716   8.291  14.496
11955POPC   C2297465   6.818   8.088  14.589
11955POPC   H2R97466   6.788   8.069  14.695
11955POPC   H2S97467   6.925   8.065  14.579
11955POPC    C397468   6.969   8.419  14.407
11955POPC    HX97469   6.932   8.508  14.351
11955POPC    HY97470   6.924   8.329  14.361
11955POPC   O3197471   7.112   8.406  14.402
11955POPC   C3197472   7.161   8.428  14.282
11955POPC   O3297473   7.095   8.435  14.179
11955POPC   C3297474   7.311   8.446  14.299
11955POPC   H2X97475   7.355   8.345  14.305
11955POPC   H2Y97476   7.330   8.499  14.395
11955POPC   C2397477   6.737   7.993  14.495
11955POPC   H3R97478   6.628   8.006  14.515
11955POPC   H3S97479   6.763   7.888  14.522
11955POPC   C2497480   6.765   8.013  14.345
11955POPC   H4R97481   6.731   8.115  14.319
11955POPC   H4S97482   6.702   7.943  14.285
11955POPC   C2597483   6.912   8.001  14.304
11955POPC   H5R97484   6.945   7.895  14.315
11955POPC   H5S97485   6.973   8.067  14.370
11955POPC   C2697486   6.940   8.048  14.161
11955POPC   H6R97487   6.917   8.157  14.157
11955POPC   H6S97488   6.874   7.996  14.089
11955POPC   C2797489   7.087   8.029  14.120
11955POPC   H7R97490   7.108   7.921  14.108
11955POPC   H7S97491   7.151   8.068  14.202
11955POPC   C2897492   7.127   8.105  13.991
11955POPC   H8R97493   7.238   8.097  13.982
11955POPC   H8S97494   7.104   8.214  14.003
11955POPC   C2997495   7.063   8.048  13.867
11955POPC   H9197496   7.054   7.939  13.869
11955POPC  C21097497   7.012   8.113  13.760
11955POPC  H10197498   6.970   8.052  13.679
11955POPC  C21197499   7.005   8.262  13.733
11955POPC  H11R97500   7.106   8.309  13.731
11955POPC  H11S97501   6.950   8.312  13.816
11955POPC  C21297502   6.932   8.292  13.599
11955POPC  H12R97503   6.849   8.218  13.587
11955POPC  H12S97504   7.001   8.277  13.513
11955POPC  C21397505   6.864   8.430  13.590
11955POPC  H13R97506   6.856   8.468  13.694
11955POPC  H13S97507   6.759   8.418  13.554
11955POPC  C21497508   6.934   8.536  13.502
11955POPC  H14R97509   7.040   8.541  13.533
11955POPC  H14S97510   6.888   8.635  13.522
11955POPC  C21597511   6.931   8.512  13.351
11955POPC  H15R97512   6.851   8.573  13.304
11955POPC  H15S97513   6.907   8.405  13.336
11955POPC  C21697514   7.066   8.540  13.281
11955POPC  H16R97515   7.148   8.539  13.356
11955POPC  H16S97516   7.066   8.641  13.235
11955POPC  C21797517   7.097   8.432  13.176
11955POPC  H17R97518   7.022   8.441  13.094
11955POPC  H17S97519   7.082   8.333  13.224
11955POPC  C21897520   7.239   8.435  13.115
11955POPC  H18R97521   7.317   8.415  13.190
11955POPC  H18S97522   7.262   8.533  13.069
11955POPC  H18T97523   7.247   8.355  13.038
11955POPC   C3397524   7.374   8.529  14.187
11955POPC   H3X97525   7.481   8.545  14.213
11955POPC   H3Y97526   7.328   8.630  14.180
11955POPC   C3497527   7.366   8.460  14.051
11955POPC   H4X97528   7.265   8.472  14.005
11955POPC   H4Y97529   7.380   8.351  14.066
11955POPC   C3597530   7.474   8.514  13.958
11955POPC   H5X97531   7.506   8.434  13.889
11955POPC   H5Y97532   7.563   8.541  14.018
11955POPC   C3697533   7.427   8.636  13.880
11955POPC   H6X97534   7.483   8.724  13.919
11955POPC   H6Y97535   7.320   8.655  13.897
11955POPC   C3797536   7.454   8.625  13.729
11955POPC   H7X97537   7.558   8.588  13.717
11955POPC   H7Y97538   7.447   8.728  13.687
11955POPC   C3897539   7.360   8.534  13.648
11955POPC   H8X97540   7.377   8.558  13.541
11955POPC   H8Y97541   7.254   8.557  13.671
11955POPC   C3997542   7.389   8.385  13.673
11955POPC   H9X97543   7.345   8.355  13.770
11955POPC   H9Y97544   7.500   8.373  13.679
11955POPC  C31097545   7.341   8.286  13.567
11955POPC  H10X97546   7.230   8.281  13.565
11955POPC  H10Y97547   7.380   8.185  13.596
11955POPC  C31197548   7.390   8.318  13.425
11955POPC  H11X97549   7.489   8.368  13.428
11955POPC  H11Y97550   7.316   8.390  13.385
11955POPC  C31297551   7.400   8.193  13.336
11955POPC  H12X97552   7.489   8.134  13.368
11955POPC  H12Y97553   7.418   8.225  13.231
11955POPC  C31397554   7.276   8.102  13.342
11955POPC  H13X97555   7.184   8.162  13.325
11955POPC  H13Y97556   7.269   8.060  13.445
11955POPC  C31497557   7.283   7.985  13.244
11955POPC  H14X97558   7.213   7.905  13.276
11955POPC  H14Y97559   7.385   7.942  13.246
11955POPC  C31597560   7.247   8.024  13.099
11955POPC  H15X97561   7.295   7.951  13.031
11955POPC  H15Y97562   7.290   8.124  13.076
11955POPC  C31697563   7.096   8.025  13.071
11955POPC  H16X97564   7.076   8.052  12.965
11955POPC  H16Y97565   7.044   8.098  13.137
11955POPC  H16Z97566   7.053   7.924  13.090
11956POPC     N97567   9.080   4.276  14.772
11956POPC   C1297568   8.937   4.237  14.736
11956POPC  H12A97569   8.884   4.329  14.717
11956POPC  H12B97570   8.890   4.195  14.824
11956POPC   C1397571   9.153   4.320  14.649
11956POPC  H13A97572   9.102   4.402  14.600
11956POPC  H13B97573   9.255   4.352  14.672
11956POPC  H13C97574   9.157   4.236  14.580
11956POPC   C1497575   9.075   4.387  14.870
11956POPC  H14A97576   9.033   4.354  14.965
11956POPC  H14B97577   9.176   4.424  14.889
11956POPC  H14C97578   9.012   4.467  14.834
11956POPC   C1597579   9.158   4.165  14.833
11956POPC  H15A97580   9.174   4.087  14.758
11956POPC  H15B97581   9.107   4.119  14.916
11956POPC  H15C97582   9.256   4.199  14.865
11956POPC   C1197583   8.909   4.139  14.619
11956POPC  H11A97584   8.961   4.173  14.526
11956POPC  H11B97585   8.800   4.144  14.597
11956POPC     P97586   9.047   3.910  14.591
11956POPC   O1397587   9.029   3.779  14.658
11956POPC   O1497588   9.181   3.971  14.612
11956POPC   O1297589   8.939   4.005  14.655
11956POPC   O1197590   9.011   3.906  14.437
11956POPC    C197591   8.875   3.908  14.393
11956POPC    HA97592   8.841   4.013  14.384
11956POPC    HB97593   8.808   3.855  14.466
11956POPC    C297594   8.856   3.838  14.255
11956POPC    HS97595   8.761   3.780  14.261
11956POPC   O2197596   8.965   3.751  14.219
11956POPC   C2197597   8.990   3.656  14.307
11956POPC   O2297598   8.913   3.615  14.392
11956POPC   C2297599   9.134   3.606  14.283
11956POPC   H2R97600   9.142   3.506  14.331
11956POPC   H2S97601   9.202   3.676  14.336
11956POPC    C397602   8.838   3.939  14.138
11956POPC    HX97603   8.749   4.003  14.155
11956POPC    HY97604   8.821   3.878  14.046
11956POPC   O3197605   8.955   4.021  14.128
11956POPC   C3197606   8.976   4.073  14.010
11956POPC   O3297607   8.902   4.062  13.913
11956POPC   C3297608   9.107   4.150  14.015
11956POPC   H2X97609   9.189   4.079  14.037
11956POPC   H2Y97610   9.100   4.221  14.101
11956POPC   C2397611   9.172   3.595  14.134
11956POPC   H3R97612   9.279   3.564  14.126
11956POPC   H3S97613   9.164   3.695  14.084
11956POPC   C2497614   9.085   3.492  14.062
11956POPC   H4R97615   8.980   3.529  14.060
11956POPC   H4S97616   9.086   3.397  14.120
11956POPC   C2597617   9.125   3.460  13.917
11956POPC   H5R97618   9.056   3.380  13.881
11956POPC   H5S97619   9.229   3.421  13.912
11956POPC   C2697620   9.111   3.581  13.824
11956POPC   H6R97621   9.206   3.639  13.826
11956POPC   H6S97622   9.030   3.647  13.862
11956POPC   C2797623   9.075   3.541  13.679
11956POPC   H7R97624   8.984   3.478  13.681
11956POPC   H7S97625   9.157   3.479  13.636
11956POPC   C2897626   9.048   3.663  13.590
11956POPC   H8R97627   8.961   3.719  13.631
11956POPC   H8S97628   9.018   3.627  13.489
11956POPC   C2997629   9.169   3.752  13.584
11956POPC   H9197630   9.175   3.827  13.665
11956POPC  C21097631   9.267   3.748  13.492
11956POPC  H10197632   9.349   3.821  13.498
11956POPC  C21197633   9.275   3.653  13.376
11956POPC  H11R97634   9.232   3.553  13.399
11956POPC  H11S97635   9.381   3.637  13.347
11956POPC  C21297636   9.196   3.715  13.260
11956POPC  H12R97637   9.228   3.821  13.244
11956POPC  H12S97638   9.090   3.719  13.293
11956POPC  C21397639   9.205   3.642  13.125
11956POPC  H13R97640   9.152   3.703  13.048
11956POPC  H13S97641   9.152   3.545  13.130
11956POPC  C21497642   9.349   3.615  13.081
11956POPC  H14R97643   9.346   3.561  12.984
11956POPC  H14S97644   9.398   3.550  13.156
11956POPC  C21597645   9.435   3.739  13.059
11956POPC  H15R97646   9.543   3.710  13.053
11956POPC  H15S97647   9.424   3.805  13.147
11956POPC  C21697648   9.394   3.807  12.929
11956POPC  H16R97649   9.284   3.798  12.919
11956POPC  H16S97650   9.433   3.749  12.844
11956POPC  C21797651   9.431   3.955  12.923
11956POPC  H17R97652   9.401   3.995  12.823
11956POPC  H17S97653   9.542   3.965  12.931
11956POPC  C21897654   9.363   4.040  13.031
11956POPC  H18R97655   9.380   4.148  13.013
11956POPC  H18S97656   9.402   4.014  13.132
11956POPC  H18T97657   9.254   4.021  13.031
11956POPC   C3397658   9.138   4.229  13.887
11956POPC   H3X97659   9.220   4.302  13.910
11956POPC   H3Y97660   9.050   4.290  13.856
11956POPC   C3497661   9.186   4.142  13.770
11956POPC   H4X97662   9.106   4.071  13.740
11956POPC   H4Y97663   9.275   4.083  13.801
11956POPC   C3597664   9.222   4.232  13.652
11956POPC   H5X97665   9.300   4.304  13.686
11956POPC   H5Y97666   9.131   4.291  13.625
11956POPC   C3697667   9.278   4.162  13.528
11956POPC   H6X97668   9.203   4.091  13.488
11956POPC   H6Y97669   9.368   4.103  13.556
11956POPC   C3797670   9.318   4.266  13.421
11956POPC   H7X97671   9.360   4.212  13.333
11956POPC   H7Y97672   9.399   4.330  13.462
11956POPC   C3897673   9.200   4.354  13.373
11956POPC   H8X97674   9.233   4.416  13.287
11956POPC   H8Y97675   9.165   4.423  13.453
11956POPC   C3997676   9.083   4.266  13.333
11956POPC   H9X97677   9.037   4.220  13.424
11956POPC   H9Y97678   9.133   4.185  13.275
11956POPC  C31097679   8.972   4.331  13.251
11956POPC  H10X97680   9.012   4.370  13.156
11956POPC  H10Y97681   8.929   4.417  13.309
11956POPC  C31197682   8.861   4.229  13.223
11956POPC  H11X97683   8.777   4.276  13.168
11956POPC  H11Y97684   8.821   4.195  13.322
11956POPC  C31297685   8.912   4.107  13.145
11956POPC  H12X97686   9.013   4.077  13.181
11956POPC  H12Y97687   8.924   4.133  13.038
11956POPC  C31397688   8.833   3.978  13.163
11956POPC  H13X97689   8.736   3.989  13.112
11956POPC  H13Y97690   8.812   3.961  13.272
11956POPC  C31497691   8.914   3.858  13.111
11956POPC  H14X97692   9.017   3.871  13.151
11956POPC  H14Y97693   8.927   3.863  13.001
11956POPC  C31597694   8.863   3.720  13.153
11956POPC  H15X97695   8.811   3.727  13.252
11956POPC  H15Y97696   8.951   3.654  13.170
11956POPC  C31697697   8.779   3.645  13.049
11956POPC  H16X97698   8.802   3.682  12.947
11956POPC  H16Y97699   8.670   3.657  13.068
11956POPC  H16Z97700   8.802   3.537  13.052
11957POPC     N97701   0.087   4.980  14.605
11957POPC   C1297702   0.223   4.922  14.643
11957POPC  H12A97703   0.295   5.001  14.652
11957POPC  H12B97704   0.255   4.856  14.562
11957POPC   C1397705   0.096   5.073  14.489
11957POPC  H13A97706   0.143   5.024  14.405
11957POPC  H13B97707  -0.003   5.105  14.459
11957POPC  H13C97708   0.152   5.163  14.515
11957POPC   C1497709   0.000   4.864  14.567
11957POPC  H14A97710  -0.099   4.894  14.539
11957POPC  H14B97711   0.047   4.807  14.488
11957POPC  H14C97712  -0.004   4.795  14.652
11957POPC   C1597713   0.025   5.051  14.721
11957POPC  H15A97714   0.073   5.145  14.745
11957POPC  H15B97715   0.026   4.988  14.809
11957POPC  H15C97716  -0.078   5.077  14.702
11957POPC   C1197717   0.232   4.837  14.774
11957POPC  H11A97718   0.210   4.904  14.859
11957POPC  H11B97719   0.337   4.800  14.786
11957POPC     P97720   0.164   4.587  14.712
11957POPC   O1397721   0.032   4.519  14.708
11957POPC   O1497722   0.276   4.516  14.779
11957POPC   O1297723   0.141   4.728  14.780
11957POPC   O1197724   0.207   4.635  14.564
11957POPC    C197725   0.347   4.624  14.532
11957POPC    HA97726   0.373   4.516  14.518
11957POPC    HB97727   0.411   4.662  14.615
11957POPC    C297728   0.395   4.698  14.402
11957POPC    HS97729   0.500   4.663  14.385
11957POPC   O2197730   0.393   4.842  14.422
11957POPC   C2197731   0.465   4.911  14.333
11957POPC   O2297732   0.526   4.861  14.241
11957POPC   C2297733   0.456   5.061  14.367
11957POPC   H2R97734   0.547   5.086  14.427
11957POPC   H2S97735   0.368   5.078  14.432
11957POPC    C397736   0.309   4.657  14.277
11957POPC    HX97737   0.297   4.547  14.283
11957POPC    HY97738   0.369   4.678  14.185
11957POPC   O3197739   0.184   4.729  14.269
11957POPC   C3197740   0.074   4.656  14.256
11957POPC   O3297741   0.069   4.535  14.240
11957POPC   C3297742  -0.047   4.750  14.269
11957POPC   H2X97743  -0.011   4.854  14.278
11957POPC   H2Y97744  -0.101   4.721  14.361
11957POPC   C2397745   0.450   5.157  14.245
11957POPC   H3R97746   0.544   5.151  14.186
11957POPC   H3S97747   0.443   5.261  14.286
11957POPC   C2497748   0.330   5.139  14.149
11957POPC   H4R97749   0.317   5.235  14.094
11957POPC   H4S97750   0.236   5.121  14.206
11957POPC   C2597751   0.352   5.030  14.043
11957POPC   H5R97752   0.353   4.931  14.093
11957POPC   H5S97753   0.451   5.046  13.997
11957POPC   C2697754   0.247   5.018  13.932
11957POPC   H6R97755   0.149   5.000  13.981
11957POPC   H6S97756   0.272   4.927  13.872
11957POPC   C2797757   0.232   5.135  13.831
11957POPC   H7R97758   0.332   5.176  13.806
11957POPC   H7S97759   0.173   5.216  13.878
11957POPC   C2897760   0.163   5.090  13.699
11957POPC   H8R97761   0.229   5.016  13.649
11957POPC   H8S97762   0.152   5.176  13.630
11957POPC   C2997763   0.030   5.027  13.731
11957POPC   H9197764   0.029   4.967  13.823
11957POPC  C21097765  -0.083   5.020  13.659
11957POPC  H10197766  -0.167   4.964  13.704
11957POPC  C21197767  -0.115   5.072  13.521
11957POPC  H11R97768  -0.024   5.107  13.468
11957POPC  H11S97769  -0.189   5.155  13.524
11957POPC  C21297770  -0.176   4.949  13.450
11957POPC  H12R97771  -0.281   4.935  13.483
11957POPC  H12S97772  -0.122   4.858  13.483
11957POPC  C21397773  -0.166   4.941  13.298
11957POPC  H13R97774  -0.069   4.984  13.265
11957POPC  H13S97775  -0.248   5.000  13.250
11957POPC  C21497776  -0.173   4.793  13.256
11957POPC  H14R97777  -0.275   4.755  13.280
11957POPC  H14S97778  -0.101   4.734  13.317
11957POPC  C21597779  -0.143   4.764  13.109
11957POPC  H15R97780  -0.209   4.826  13.046
11957POPC  H15S97781  -0.167   4.657  13.091
11957POPC  C21697782   0.003   4.784  13.067
11957POPC  H16R97783   0.072   4.741  13.144
11957POPC  H16S97784   0.024   4.894  13.061
11957POPC  C21797785   0.029   4.717  12.931
11957POPC  H17R97786  -0.063   4.731  12.870
11957POPC  H17S97787   0.042   4.608  12.946
11957POPC  C21897788   0.148   4.773  12.852
11957POPC  H18R97789   0.129   4.771  12.743
11957POPC  H18S97790   0.239   4.712  12.871
11957POPC  H18T97791   0.167   4.879  12.879
11957POPC   C3397792  -0.149   4.743  14.153
11957POPC   H3X97793  -0.231   4.815  14.174
11957POPC   H3Y97794  -0.194   4.641  14.148
11957POPC   C3497795  -0.087   4.779  14.018
11957POPC   H4X97796   0.014   4.823  14.031
11957POPC   H4Y97797  -0.149   4.855  13.965
11957POPC   C3597798  -0.078   4.655  13.929
11957POPC   H5X97799  -0.181   4.619  13.908
11957POPC   H5Y97800  -0.024   4.573  13.982
11957POPC   C3697801  -0.008   4.683  13.797
11957POPC   H6X97802   0.098   4.714  13.814
11957POPC   H6Y97803  -0.061   4.767  13.748
11957POPC   C3797804  -0.014   4.563  13.703
11957POPC   H7X97805  -0.119   4.527  13.700
11957POPC   H7Y97806   0.050   4.481  13.743
11957POPC   C3897807   0.029   4.600  13.562
11957POPC   H8X97808  -0.011   4.701  13.538
11957POPC   H8Y97809  -0.014   4.531  13.488
11957POPC   C3997810   0.180   4.601  13.543
11957POPC   H9X97811   0.222   4.499  13.559
11957POPC   H9Y97812   0.222   4.667  13.621
11957POPC  C31097813   0.217   4.655  13.404
11957POPC  H10X97814   0.135   4.720  13.367
11957POPC  H10Y97815   0.230   4.571  13.332
11957POPC  C31197816   0.343   4.740  13.414
11957POPC  H11X97817   0.429   4.673  13.432
11957POPC  H11Y97818   0.333   4.805  13.504
11957POPC  C31297819   0.367   4.836  13.296
11957POPC  H12X97820   0.459   4.895  13.318
11957POPC  H12Y97821   0.282   4.908  13.293
11957POPC  C31397822   0.380   4.773  13.157
11957POPC  H13X97823   0.294   4.704  13.140
11957POPC  H13Y97824   0.472   4.711  13.150
11957POPC  C31497825   0.382   4.877  13.045
11957POPC  H14X97826   0.284   4.930  13.046
11957POPC  H14Y97827   0.394   4.824  12.948
11957POPC  C31597828   0.493   4.982  13.050
11957POPC  H15X97829   0.588   4.929  13.027
11957POPC  H15Y97830   0.502   5.023  13.153
11957POPC  C31697831   0.472   5.097  12.952
11957POPC  H16X97832   0.376   5.149  12.973
11957POPC  H16Y97833   0.469   5.060  12.847
11957POPC  H16Z97834   0.554   5.172  12.961
11958POPC     N97835   8.831   5.540  14.586
11958POPC   C1297836   8.884   5.425  14.672
11958POPC  H12A97837   8.822   5.338  14.650
11958POPC  H12B97838   8.868   5.451  14.776
11958POPC   C1397839   8.861   5.520  14.442
11958POPC  H13A97840   8.968   5.533  14.429
11958POPC  H13B97841   8.832   5.425  14.401
11958POPC  H13C97842   8.816   5.597  14.380
11958POPC   C1497843   8.683   5.550  14.594
11958POPC  H14A97844   8.636   5.459  14.556
11958POPC  H14B97845   8.649   5.568  14.695
11958POPC  H14C97846   8.649   5.628  14.527
11958POPC   C1597847   8.893   5.669  14.628
11958POPC  H15A97848   8.997   5.650  14.658
11958POPC  H15B97849   8.840   5.714  14.710
11958POPC  H15C97850   8.897   5.738  14.544
11958POPC   C1197851   9.035   5.380  14.659
11958POPC  H11A97852   9.057   5.353  14.553
11958POPC  H11B97853   9.049   5.288  14.721
11958POPC     P97854   9.277   5.463  14.742
11958POPC   O1397855   9.312   5.322  14.769
11958POPC   O1497856   9.305   5.558  14.852
11958POPC   O1297857   9.123   5.482  14.702
11958POPC   O1197858   9.358   5.515  14.615
11958POPC    C197859   9.321   5.640  14.555
11958POPC    HA97860   9.376   5.724  14.604
11958POPC    HB97861   9.212   5.663  14.565
11958POPC    C297862   9.352   5.640  14.403
11958POPC    HS97863   9.294   5.721  14.354
11958POPC   O2197864   9.323   5.512  14.348
11958POPC   C2197865   9.200   5.485  14.319
11958POPC   O2297866   9.107   5.563  14.322
11958POPC   C2297867   9.197   5.339  14.273
11958POPC   H2R97868   9.143   5.278  14.349
11958POPC   H2S97869   9.302   5.303  14.269
11958POPC    C397870   9.501   5.664  14.372
11958POPC    HX97871   9.561   5.581  14.416
11958POPC    HY97872   9.532   5.759  14.422
11958POPC   O3197873   9.521   5.678  14.230
11958POPC   C3197874   9.538   5.566  14.159
11958POPC   O3297875   9.554   5.454  14.204
11958POPC   C3297876   9.549   5.606  14.012
11958POPC   H2X97877   9.653   5.641  13.997
11958POPC   H2Y97878   9.479   5.690  13.993
11958POPC   C2397879   9.135   5.323  14.133
11958POPC   H3R97880   9.136   5.421  14.080
11958POPC   H3S97881   9.028   5.293  14.144
11958POPC   C2497882   9.208   5.224  14.042
11958POPC   H4R97883   9.207   5.122  14.084
11958POPC   H4S97884   9.315   5.254  14.026
11958POPC   C2597885   9.138   5.225  13.907
11958POPC   H5R97886   9.034   5.258  13.929
11958POPC   H5S97887   9.133   5.124  13.861
11958POPC   C2697888   9.194   5.327  13.808
11958POPC   H6R97889   9.268   5.281  13.740
11958POPC   H6S97890   9.244   5.407  13.865
11958POPC   C2797891   9.080   5.394  13.731
11958POPC   H7R97892   9.011   5.434  13.809
11958POPC   H7S97893   9.024   5.320  13.670
11958POPC   C2897894   9.131   5.508  13.642
11958POPC   H8R97895   9.168   5.465  13.546
11958POPC   H8S97896   9.218   5.557  13.692
11958POPC   C2997897   9.020   5.608  13.626
11958POPC   H9197898   8.968   5.634  13.720
11958POPC  C21097899   8.977   5.661  13.511
11958POPC  H10197900   8.894   5.733  13.515
11958POPC  C21197901   9.030   5.632  13.374
11958POPC  H11R97902   9.011   5.526  13.345
11958POPC  H11S97903   9.140   5.651  13.369
11958POPC  C21297904   8.960   5.725  13.275
11958POPC  H12R97905   8.982   5.832  13.300
11958POPC  H12S97906   8.850   5.710  13.282
11958POPC  C21397907   9.001   5.701  13.130
11958POPC  H13R97908   8.993   5.592  13.106
11958POPC  H13S97909   9.107   5.731  13.114
11958POPC  C21497910   8.909   5.781  13.038
11958POPC  H14R97911   8.917   5.888  13.063
11958POPC  H14S97912   8.803   5.750  13.057
11958POPC  C21597913   8.938   5.763  12.889
11958POPC  H15R97914   9.044   5.786  12.868
11958POPC  H15S97915   8.877   5.840  12.836
11958POPC  C21697916   8.901   5.622  12.842
11958POPC  H16R97917   8.808   5.591  12.894
11958POPC  H16S97918   8.980   5.551  12.874
11958POPC  C21797919   8.877   5.608  12.691
11958POPC  H17R97920   8.823   5.512  12.675
11958POPC  H17S97921   8.974   5.603  12.638
11958POPC  C21897922   8.797   5.722  12.628
11958POPC  H18R97923   8.754   5.690  12.530
11958POPC  H18S97924   8.861   5.810  12.611
11958POPC  H18T97925   8.714   5.751  12.695
11958POPC   C3397926   9.532   5.496  13.908
11958POPC   H3X97927   9.431   5.450  13.916
11958POPC   H3Y97928   9.607   5.415  13.923
11958POPC   C3497929   9.551   5.558  13.770
11958POPC   H4X97930   9.654   5.600  13.763
11958POPC   H4Y97931   9.481   5.644  13.758
11958POPC   C3597932   9.530   5.463  13.653
11958POPC   H5X97933   9.424   5.429  13.651
11958POPC   H5Y97934   9.595   5.373  13.662
11958POPC   C3697935   9.562   5.538  13.525
11958POPC   H6X97936   9.670   5.559  13.518
11958POPC   H6Y97937   9.510   5.637  13.531
11958POPC   C3797938   9.514   5.467  13.399
11958POPC   H7X97939   9.481   5.364  13.423
11958POPC   H7Y97940   9.597   5.459  13.325
11958POPC   C3897941   9.399   5.546  13.337
11958POPC   H8X97942   9.426   5.654  13.328
11958POPC   H8Y97943   9.312   5.539  13.404
11958POPC   C3997944   9.362   5.494  13.199
11958POPC   H9X97945   9.450   5.511  13.132
11958POPC   H9Y97946   9.277   5.553  13.158
11958POPC  C31097947   9.327   5.345  13.200
11958POPC  H10X97948   9.254   5.325  13.281
11958POPC  H10Y97949   9.418   5.284  13.219
11958POPC  C31197950   9.268   5.305  13.066
11958POPC  H11X97951   9.176   5.367  13.054
11958POPC  H11Y97952   9.236   5.198  13.066
11958POPC  C31297953   9.366   5.330  12.950
11958POPC  H12X97954   9.459   5.272  12.965
11958POPC  H12Y97955   9.393   5.438  12.947
11958POPC  C31397956   9.306   5.298  12.813
11958POPC  H13X97957   9.371   5.341  12.734
11958POPC  H13Y97958   9.303   5.189  12.799
11958POPC  C31497959   9.165   5.357  12.803
11958POPC  H14X97960   9.167   5.461  12.841
11958POPC  H14Y97961   9.096   5.298  12.868
11958POPC  C31597962   9.110   5.354  12.662
11958POPC  H15X97963   9.185   5.300  12.601
11958POPC  H15Y97964   9.107   5.456  12.620
11958POPC  C31697965   8.974   5.286  12.653
11958POPC  H16X97966   8.915   5.306  12.745
11958POPC  H16Y97967   8.985   5.176  12.644
11958POPC  H16Z97968   8.916   5.324  12.566
11959POPC     N97969   8.692   6.444  14.780
11959POPC   C1297970   8.637   6.512  14.655
11959POPC  H12A97971   8.547   6.566  14.682
11959POPC  H12B97972   8.610   6.437  14.583
11959POPC   C1397973   8.831   6.396  14.750
11959POPC  H13A97974   8.831   6.319  14.673
11959POPC  H13B97975   8.888   6.480  14.711
11959POPC  H13C97976   8.881   6.358  14.839
11959POPC   C1497977   8.699   6.540  14.895
11959POPC  H14A97978   8.600   6.576  14.921
11959POPC  H14B97979   8.744   6.492  14.981
11959POPC  H14C97980   8.757   6.627  14.864
11959POPC   C1597981   8.606   6.331  14.824
11959POPC  H15A97982   8.649   6.283  14.912
11959POPC  H15B97983   8.602   6.256  14.747
11959POPC  H15C97984   8.507   6.365  14.853
11959POPC   C1197985   8.727   6.615  14.584
11959POPC  H11A97986   8.669   6.663  14.501
11959POPC  H11B97987   8.811   6.560  14.536
11959POPC     P97988   8.885   6.812  14.633
11959POPC   O1397989   8.946   6.867  14.756
11959POPC   O1497990   8.831   6.910  14.536
11959POPC   O1297991   8.771   6.714  14.676
11959POPC   O1197992   8.983   6.716  14.557
11959POPC    C197993   9.096   6.650  14.612
11959POPC    HA97994   9.066   6.577  14.690
11959POPC    HB97995   9.166   6.723  14.657
11959POPC    C297996   9.174   6.574  14.499
11959POPC    HS97997   9.277   6.556  14.536
11959POPC   O2197998   9.179   6.646  14.375
11959POPC   C2197999   9.218   6.771  14.376
11959POPC   O2298000   9.268   6.831  14.470
11959POPC   C2298001   9.194   6.832  14.238
11959POPC   H2R98002   9.193   6.942  14.254
11959POPC   H2S98003   9.095   6.801  14.201
11959POPC    C398004   9.111   6.434  14.468
11959POPC    HX98005   9.103   6.379  14.564
11959POPC    HY98006   9.181   6.376  14.404
11959POPC   O3198007   8.978   6.446  14.410
11959POPC   C3198008   8.983   6.473  14.278
11959POPC   O3298009   9.076   6.445  14.205
11959POPC   C3298010   8.858   6.549  14.232
11959POPC   H2X98011   8.852   6.643  14.292
11959POPC   H2Y98012   8.769   6.487  14.253
11959POPC   C2398013   9.306   6.797  14.137
11959POPC   H3R98014   9.405   6.795  14.188
11959POPC   H3S98015   9.310   6.877  14.060
11959POPC   C2498016   9.288   6.663  14.064
11959POPC   H4R98017   9.186   6.658  14.021
11959POPC   H4S98018   9.298   6.580  14.137
11959POPC   C2598019   9.393   6.646  13.952
11959POPC   H5R98020   9.494   6.656  13.997
11959POPC   H5S98021   9.380   6.728  13.878
11959POPC   C2698022   9.388   6.511  13.878
11959POPC   H6R98023   9.422   6.431  13.947
11959POPC   H6S98024   9.460   6.515  13.793
11959POPC   C2798025   9.249   6.473  13.823
11959POPC   H7R98026   9.181   6.457  13.910
11959POPC   H7S98027   9.257   6.375  13.771
11959POPC   C2898028   9.185   6.577  13.729
11959POPC   H8R98029   9.183   6.676  13.779
11959POPC   H8S98030   9.079   6.547  13.716
11959POPC   C2998031   9.255   6.586  13.596
11959POPC   H9198032   9.333   6.663  13.589
11959POPC  C21098033   9.230   6.508  13.489
11959POPC  H10198034   9.288   6.521  13.397
11959POPC  C21198035   9.127   6.397  13.483
11959POPC  H11R98036   9.058   6.399  13.570
11959POPC  H11S98037   9.179   6.299  13.486
11959POPC  C21298038   9.041   6.403  13.356
11959POPC  H12R98039   9.107   6.391  13.267
11959POPC  H12S98040   8.989   6.501  13.348
11959POPC  C21398041   8.936   6.291  13.357
11959POPC  H13R98042   8.866   6.308  13.442
11959POPC  H13S98043   8.987   6.194  13.376
11959POPC  C21498044   8.855   6.280  13.227
11959POPC  H14R98045   8.796   6.373  13.212
11959POPC  H14S98046   8.783   6.196  13.238
11959POPC  C21598047   8.940   6.255  13.100
11959POPC  H15R98048   8.994   6.348  13.073
11959POPC  H15S98049   8.871   6.231  13.017
11959POPC  C21698050   9.041   6.141  13.116
11959POPC  H16R98051   8.990   6.055  13.167
11959POPC  H16S98052   9.124   6.173  13.183
11959POPC  C21798053   9.100   6.093  12.983
11959POPC  H17R98054   9.017   6.067  12.914
11959POPC  H17S98055   9.157   5.999  13.001
11959POPC  C21898056   9.193   6.195  12.917
11959POPC  H18R98057   9.277   6.221  12.985
11959POPC  H18S98058   9.137   6.289  12.894
11959POPC  H18T98059   9.235   6.155  12.823
11959POPC   C3398060   8.866   6.583  14.081
11959POPC   H3X98061   8.880   6.488  14.024
11959POPC   H3Y98062   8.955   6.647  14.061
11959POPC   C3498063   8.740   6.652  14.026
11959POPC   H4X98064   8.740   6.759  14.055
11959POPC   H4Y98065   8.651   6.605  14.075
11959POPC   C3598066   8.723   6.638  13.874
11959POPC   H5X98067   8.624   6.681  13.844
11959POPC   H5Y98068   8.721   6.530  13.849
11959POPC   C3698069   8.833   6.707  13.792
11959POPC   H6X98070   8.932   6.680  13.836
11959POPC   H6Y98071   8.823   6.817  13.801
11959POPC   C3798072   8.836   6.664  13.644
11959POPC   H7X98073   8.850   6.554  13.640
11959POPC   H7Y98074   8.925   6.710  13.595
11959POPC   C3898075   8.710   6.701  13.563
11959POPC   H8X98076   8.623   6.646  13.606
11959POPC   H8Y98077   8.723   6.664  13.459
11959POPC   C3998078   8.677   6.852  13.559
11959POPC   H9X98079   8.656   6.886  13.663
11959POPC   H9Y98080   8.584   6.866  13.500
11959POPC  C31098081   8.789   6.940  13.500
11959POPC  H10X98082   8.882   6.925  13.559
11959POPC  H10Y98083   8.760   7.047  13.511
11959POPC  C31198084   8.819   6.913  13.351
11959POPC  H11X98085   8.829   6.804  13.335
11959POPC  H11Y98086   8.917   6.959  13.326
11959POPC  C31298087   8.713   6.972  13.257
11959POPC  H12X98088   8.716   7.083  13.267
11959POPC  H12Y98089   8.612   6.939  13.289
11959POPC  C31398090   8.733   6.934  13.110
11959POPC  H13X98091   8.836   6.962  13.077
11959POPC  H13Y98092   8.661   6.992  13.049
11959POPC  C31498093   8.711   6.784  13.081
11959POPC  H14X98094   8.620   6.749  13.135
11959POPC  H14Y98095   8.798   6.727  13.121
11959POPC  C31598096   8.694   6.755  12.932
11959POPC  H15X98097   8.773   6.810  12.875
11959POPC  H15Y98098   8.596   6.795  12.898
11959POPC  C31698099   8.703   6.606  12.897
11959POPC  H16X98100   8.695   6.591  12.787
11959POPC  H16Y98101   8.622   6.549  12.946
11959POPC  H16Z98102   8.801   6.564  12.931
11960POPC     N98103   5.171   9.443  14.679
11960POPC   C1298104   5.200   9.328  14.583
11960POPC  H12A98105   5.294   9.282  14.611
11960POPC  H12B98106   5.214   9.368  14.484
11960POPC   C1398107   5.181   9.383  14.815
11960POPC  H13A98108   5.176   9.455  14.895
11960POPC  H13B98109   5.098   9.312  14.828
11960POPC  H13C98110   5.270   9.322  14.824
11960POPC   C1498111   5.270   9.553  14.659
11960POPC  H14A98112   5.268   9.622  14.743
11960POPC  H14B98113   5.370   9.513  14.648
11960POPC  H14C98114   5.249   9.610  14.569
11960POPC   C1598115   5.031   9.496  14.665
11960POPC  H15A98116   5.010   9.574  14.738
11960POPC  H15B98117   4.959   9.415  14.681
11960POPC  H15C98118   5.012   9.536  14.566
11960POPC   C1198119   5.099   9.210  14.573
11960POPC  H11A98120   5.148   9.126  14.519
11960POPC  H11B98121   5.016   9.242  14.507
11960POPC     P98122   4.906   9.123  14.730
11960POPC   O1398123   4.847   9.214  14.831
11960POPC   O1498124   4.903   8.980  14.767
11960POPC   O1298125   5.056   9.164  14.701
11960POPC   O1198126   4.834   9.153  14.590
11960POPC    C198127   4.781   9.053  14.502
11960POPC    HA98128   4.677   9.032  14.533
11960POPC    HB98129   4.841   8.960  14.513
11960POPC    C298130   4.774   9.080  14.343
11960POPC    HS98131   4.726   8.990  14.298
11960POPC   O2198132   4.908   9.098  14.290
11960POPC   C2198133   4.923   9.073  14.158
11960POPC   O2298134   4.832   9.051  14.081
11960POPC   C2298135   5.072   9.066  14.125
11960POPC   H2R98136   5.111   8.972  14.170
11960POPC   H2S98137   5.123   9.152  14.173
11960POPC    C398138   4.680   9.199  14.298
11960POPC    HX98139   4.587   9.186  14.357
11960POPC    HY98140   4.650   9.186  14.192
11960POPC   O3198141   4.731   9.330  14.322
11960POPC   C3198142   4.828   9.369  14.241
11960POPC   O3298143   4.842   9.341  14.123
11960POPC   C3298144   4.929   9.437  14.330
11960POPC   H2X98145   4.923   9.393  14.431
11960POPC   H2Y98146   4.895   9.540  14.343
11960POPC   C2398147   5.105   9.066  13.974
11960POPC   H3R98148   5.066   9.160  13.928
11960POPC   H3S98149   5.056   8.980  13.923
11960POPC   C2498150   5.257   9.059  13.953
11960POPC   H4R98151   5.295   8.960  13.986
11960POPC   H4S98152   5.303   9.137  14.019
11960POPC   C2598153   5.304   9.089  13.811
11960POPC   H5R98154   5.411   9.119  13.817
11960POPC   H5S98155   5.247   9.175  13.768
11960POPC   C2698156   5.298   8.968  13.717
11960POPC   H6R98157   5.193   8.943  13.692
11960POPC   H6S98158   5.343   8.880  13.769
11960POPC   C2798159   5.380   8.995  13.590
11960POPC   H7R98160   5.484   9.022  13.622
11960POPC   H7S98161   5.339   9.084  13.537
11960POPC   C2898162   5.390   8.874  13.496
11960POPC   H8R98163   5.418   8.784  13.555
11960POPC   H8S98164   5.474   8.893  13.426
11960POPC   C2998165   5.259   8.852  13.424
11960POPC   H9198166   5.170   8.840  13.488
11960POPC  C21098167   5.246   8.847  13.291
11960POPC  H10198168   5.146   8.828  13.247
11960POPC  C21198169   5.360   8.861  13.193
11960POPC  H11R98170   5.434   8.778  13.209
11960POPC  H11S98171   5.414   8.956  13.210
11960POPC  C21298172   5.312   8.856  13.048
11960POPC  H12R98173   5.256   8.762  13.028
11960POPC  H12S98174   5.401   8.856  12.980
11960POPC  C21398175   5.223   8.974  13.011
11960POPC  H13R98176   5.282   9.068  13.021
11960POPC  H13S98177   5.136   8.981  13.080
11960POPC  C21498178   5.171   8.962  12.869
11960POPC  H14R98179   5.104   8.874  12.857
11960POPC  H14S98180   5.259   8.948  12.803
11960POPC  C21598181   5.099   9.089  12.829
11960POPC  H15R98182   5.160   9.174  12.869
11960POPC  H15S98183   5.001   9.097  12.880
11960POPC  C21698184   5.089   9.111  12.679
11960POPC  H16R98185   5.183   9.085  12.625
11960POPC  H16S98186   5.080   9.219  12.666
11960POPC  C21798187   4.967   9.062  12.604
11960POPC  H17R98188   4.996   8.975  12.541
11960POPC  H17S98189   4.941   9.147  12.537
11960POPC  C21898190   4.842   9.030  12.684
11960POPC  H18R98191   4.860   8.937  12.742
11960POPC  H18S98192   4.754   9.015  12.619
11960POPC  H18T98193   4.820   9.115  12.752
11960POPC   C3398194   5.071   9.434  14.274
11960POPC   H3X98195   5.080   9.371  14.182
11960POPC   H3Y98196   5.138   9.385  14.346
11960POPC   C3498197   5.124   9.574  14.245
11960POPC   H4X98198   5.233   9.571  14.272
11960POPC   H4Y98199   5.081   9.653  14.309
11960POPC   C3598200   5.122   9.609  14.096
11960POPC   H5X98201   5.165   9.515  14.053
11960POPC   H5Y98202   5.189   9.697  14.079
11960POPC   C3698203   5.000   9.622  14.005
11960POPC   H6X98204   4.937   9.710  14.031
11960POPC   H6Y98205   4.938   9.531  14.011
11960POPC   C3798206   5.054   9.638  13.860
11960POPC   H7X98207   5.153   9.588  13.852
11960POPC   H7Y98208   5.072   9.746  13.841
11960POPC   C3898209   4.968   9.580  13.747
11960POPC   H8X98210   4.997   9.634  13.654
11960POPC   H8Y98211   4.860   9.603  13.766
11960POPC   C3998212   4.989   9.430  13.721
11960POPC   H9X98213   4.896   9.376  13.748
11960POPC   H9Y98214   5.069   9.391  13.788
11960POPC  C31098215   5.028   9.398  13.575
11960POPC  H10X98216   5.131   9.434  13.555
11960POPC  H10Y98217   4.960   9.455  13.507
11960POPC  C31198218   5.017   9.249  13.539
11960POPC  H11X98219   4.914   9.217  13.567
11960POPC  H11Y98220   5.087   9.188  13.600
11960POPC  C31298221   5.041   9.224  13.389
11960POPC  H12X98222   5.146   9.192  13.372
11960POPC  H12Y98223   5.026   9.319  13.334
11960POPC  C31398224   4.944   9.121  13.330
11960POPC  H13X98225   4.852   9.116  13.392
11960POPC  H13Y98226   4.991   9.020  13.333
11960POPC  C31498227   4.897   9.152  13.186
11960POPC  H14X98228   4.984   9.157  13.117
11960POPC  H14Y98229   4.847   9.251  13.186
11960POPC  C31598230   4.800   9.043  13.141
11960POPC  H15X98231   4.716   9.037  13.215
11960POPC  H15Y98232   4.859   8.949  13.147
11960POPC  C31698233   4.743   9.044  13.000
11960POPC  H16X98234   4.822   9.008  12.932
11960POPC  H16Y98235   4.710   9.143  12.967
11960POPC  H16Z98236   4.656   8.975  12.990
11961POPC     N98237   0.734   6.786  14.840
11961POPC   C1298238   0.774   6.729  14.703
11961POPC  H12A98239   0.752   6.622  14.699
11961POPC  H12B98240   0.880   6.737  14.686
11961POPC   C1398241   0.724   6.936  14.826
11961POPC  H13A98242   0.822   6.980  14.814
11961POPC  H13B98243   0.664   6.957  14.737
11961POPC  H13C98244   0.675   6.981  14.911
11961POPC   C1498245   0.597   6.738  14.877
11961POPC  H14A98246   0.562   6.780  14.970
11961POPC  H14B98247   0.525   6.767  14.800
11961POPC  H14C98248   0.591   6.631  14.883
11961POPC   C1598249   0.829   6.749  14.949
11961POPC  H15A98250   0.792   6.786  15.044
11961POPC  H15B98251   0.928   6.791  14.933
11961POPC  H15C98252   0.839   6.642  14.961
11961POPC   C1198253   0.697   6.787  14.581
11961POPC  H11A98254   0.715   6.721  14.493
11961POPC  H11B98255   0.732   6.889  14.556
11961POPC     P98256   0.435   6.839  14.543
11961POPC   O1398257   0.331   6.853  14.648
11961POPC   O1498258   0.407   6.754  14.426
11961POPC   O1298259   0.560   6.786  14.616
11961POPC   O1198260   0.486   6.983  14.498
11961POPC    C198261   0.455   7.096  14.578
11961POPC    HA98262   0.545   7.124  14.636
11961POPC    HB98263   0.373   7.080  14.652
11961POPC    C298264   0.413   7.217  14.489
11961POPC    HS98265   0.374   7.296  14.557
11961POPC   O2198266   0.315   7.191  14.387
11961POPC   C2198267   0.221   7.102  14.408
11961POPC   O2298268   0.174   7.069  14.516
11961POPC   C2298269   0.178   7.044  14.274
11961POPC   H2R98270   0.141   7.130  14.214
11961POPC   H2S98271   0.094   6.974  14.293
11961POPC    C398272   0.538   7.270  14.416
11961POPC    HX98273   0.614   7.275  14.497
11961POPC    HY98274   0.515   7.373  14.380
11961POPC   O3198275   0.578   7.187  14.305
11961POPC   C3198276   0.678   7.099  14.323
11961POPC   O3298277   0.760   7.103  14.412
11961POPC   C3298278   0.679   7.003  14.204
11961POPC   H2X98279   0.717   7.061  14.118
11961POPC   H2Y98280   0.575   6.972  14.182
11961POPC   C2398281   0.294   6.971  14.201
11961POPC   H3R98282   0.317   6.875  14.252
11961POPC   H3S98283   0.384   7.035  14.210
11961POPC   C2498284   0.272   6.942  14.052
11961POPC   H4R98285   0.193   6.865  14.041
11961POPC   H4S98286   0.365   6.900  14.009
11961POPC   C2598287   0.231   7.065  13.970
11961POPC   H5R98288   0.135   7.105  14.008
11961POPC   H5S98289   0.211   7.034  13.866
11961POPC   C2698290   0.336   7.177  13.975
11961POPC   H6R98291   0.434   7.142  13.935
11961POPC   H6S98292   0.353   7.206  14.082
11961POPC   C2798293   0.288   7.301  13.901
11961POPC   H7R98294   0.324   7.391  13.957
11961POPC   H7S98295   0.176   7.304  13.903
11961POPC   C2898296   0.339   7.316  13.758
11961POPC   H8R98297   0.443   7.356  13.762
11961POPC   H8S98298   0.275   7.395  13.712
11961POPC   C2998299   0.338   7.190  13.675
11961POPC   H9198300   0.341   7.094  13.727
11961POPC  C21098301   0.339   7.194  13.542
11961POPC  H10198302   0.332   7.101  13.483
11961POPC  C21198303   0.341   7.323  13.467
11961POPC  H11R98304   0.387   7.406  13.525
11961POPC  H11S98305   0.237   7.354  13.446
11961POPC  C21298306   0.418   7.314  13.337
11961POPC  H12R98307   0.410   7.213  13.291
11961POPC  H12S98308   0.527   7.333  13.354
11961POPC  C21398309   0.359   7.418  13.242
11961POPC  H13R98310   0.360   7.517  13.293
11961POPC  H13S98311   0.253   7.393  13.221
11961POPC  C21498312   0.436   7.428  13.113
11961POPC  H14R98313   0.541   7.455  13.138
11961POPC  H14S98314   0.392   7.508  13.050
11961POPC  C21598315   0.429   7.301  13.029
11961POPC  H15R98316   0.323   7.289  12.997
11961POPC  H15S98317   0.458   7.211  13.087
11961POPC  C21698318   0.516   7.312  12.904
11961POPC  H16R98319   0.485   7.401  12.845
11961POPC  H16S98320   0.497   7.223  12.842
11961POPC  C21798321   0.666   7.322  12.937
11961POPC  H17R98322   0.686   7.407  13.006
11961POPC  H17S98323   0.720   7.346  12.844
11961POPC  C21898324   0.724   7.193  12.995
11961POPC  H18R98325   0.695   7.106  12.932
11961POPC  H18S98326   0.686   7.174  13.098
11961POPC  H18T98327   0.835   7.198  12.998
11961POPC   C3398328   0.762   6.875  14.228
11961POPC   H3X98329   0.707   6.807  14.297
11961POPC   H3Y98330   0.861   6.898  14.273
11961POPC   C3498331   0.785   6.800  14.097
11961POPC   H4X98332   0.689   6.788  14.043
11961POPC   H4Y98333   0.824   6.699  14.119
11961POPC   C3598334   0.887   6.873  14.008
11961POPC   H5X98335   0.986   6.871  14.059
11961POPC   H5Y98336   0.857   6.979  13.996
11961POPC   C3698337   0.901   6.811  13.870
11961POPC   H6X98338   0.902   6.701  13.883
11961POPC   H6Y98339   0.998   6.843  13.825
11961POPC   C3798340   0.788   6.843  13.772
11961POPC   H7X98341   0.690   6.818  13.818
11961POPC   H7Y98342   0.803   6.776  13.685
11961POPC   C3898343   0.786   6.988  13.723
11961POPC   H8X98344   0.883   7.009  13.672
11961POPC   H8Y98345   0.776   7.059  13.808
11961POPC   C3998346   0.673   7.014  13.624
11961POPC   H9X98347   0.675   7.119  13.590
11961POPC   H9Y98348   0.576   6.997  13.677
11961POPC  C31098349   0.680   6.921  13.503
11961POPC  H10X98350   0.671   6.814  13.535
11961POPC  H10Y98351   0.779   6.933  13.452
11961POPC  C31198352   0.567   6.948  13.406
11961POPC  H11X98353   0.581   7.047  13.358
11961POPC  H11Y98354   0.471   6.950  13.463
11961POPC  C31298355   0.557   6.839  13.301
11961POPC  H12X98356   0.536   6.740  13.349
11961POPC  H12Y98357   0.654   6.832  13.248
11961POPC  C31398358   0.445   6.872  13.203
11961POPC  H13X98359   0.463   6.973  13.161
11961POPC  H13Y98360   0.349   6.876  13.260
11961POPC  C31498361   0.430   6.771  13.090
11961POPC  H14X98362   0.351   6.810  13.021
11961POPC  H14Y98363   0.396   6.674  13.131
11961POPC  C31598364   0.558   6.750  13.010
11961POPC  H15X98365   0.639   6.713  13.077
11961POPC  H15Y98366   0.592   6.849  12.970
11961POPC  C31698367   0.543   6.651  12.895
11961POPC  H16X98368   0.460   6.678  12.827
11961POPC  H16Y98369   0.522   6.550  12.933
11961POPC  H16Z98370   0.637   6.647  12.835
11962POPC     N98371   0.871   7.525  14.542
11962POPC   C1298372   0.859   7.501  14.692
11962POPC  H12A98373   0.753   7.497  14.717
11962POPC  H12B98374   0.897   7.587  14.745
11962POPC   C1398375   0.831   7.404  14.466
11962POPC  H13A98376   0.839   7.419  14.359
11962POPC  H13B98377   0.895   7.320  14.491
11962POPC  H13C98378   0.730   7.378  14.489
11962POPC   C1498379   0.787   7.643  14.499
11962POPC  H14A98380   0.681   7.629  14.520
11962POPC  H14B98381   0.815   7.733  14.553
11962POPC  H14C98382   0.800   7.663  14.394
11962POPC   C1598383   1.014   7.548  14.510
11962POPC  H15A98384   1.038   7.543  14.405
11962POPC  H15B98385   1.075   7.473  14.561
11962POPC  H15C98386   1.051   7.641  14.551
11962POPC   C1198387   0.923   7.374  14.757
11962POPC  H11A98388   0.897   7.285  14.697
11962POPC  H11B98389   0.879   7.355  14.857
11962POPC     P98390   1.129   7.493  14.868
11962POPC   O1398391   1.260   7.442  14.912
11962POPC   O1498392   1.038   7.544  14.972
11962POPC   O1298393   1.064   7.383  14.773
11962POPC   O1198394   1.153   7.606  14.761
11962POPC    C198395   1.285   7.652  14.735
11962POPC    HA98396   1.360   7.623  14.812
11962POPC    HB98397   1.282   7.760  14.741
11962POPC    C298398   1.345   7.608  14.597
11962POPC    HS98399   1.450   7.647  14.595
11962POPC   O2198400   1.272   7.660  14.482
11962POPC   C2198401   1.258   7.795  14.477
11962POPC   O2298402   1.302   7.874  14.558
11962POPC   C2298403   1.163   7.841  14.365
11962POPC   H2R98404   1.180   7.950  14.357
11962POPC   H2S98405   1.060   7.825  14.402
11962POPC    C398406   1.354   7.449  14.594
11962POPC    HX98407   1.371   7.418  14.700
11962POPC    HY98408   1.447   7.419  14.543
11962POPC   O3198409   1.242   7.376  14.538
11962POPC   C3198410   1.244   7.244  14.561
11962POPC   O3298411   1.333   7.182  14.618
11962POPC   C3298412   1.114   7.179  14.510
11962POPC   H2X98413   1.032   7.242  14.545
11962POPC   H2Y98414   1.107   7.081  14.562
11962POPC   C2398415   1.177   7.779  14.224
11962POPC   H3R98416   1.168   7.668  14.230
11962POPC   H3S98417   1.276   7.804  14.181
11962POPC   C2498418   1.065   7.836  14.134
11962POPC   H4R98419   1.095   7.938  14.102
11962POPC   H4S98420   0.972   7.845  14.194
11962POPC   C2598421   1.030   7.753  14.009
11962POPC   H5R98422   0.942   7.800  13.959
11962POPC   H5S98423   1.001   7.650  14.040
11962POPC   C2698424   1.144   7.745  13.907
11962POPC   H6R98425   1.228   7.691  13.957
11962POPC   H6S98426   1.180   7.847  13.882
11962POPC   C2798427   1.105   7.665  13.780
11962POPC   H7R98428   1.024   7.593  13.807
11962POPC   H7S98429   1.191   7.603  13.748
11962POPC   C2898430   1.059   7.751  13.661
11962POPC   H8R98431   0.975   7.815  13.694
11962POPC   H8S98432   1.019   7.684  13.582
11962POPC   C2998433   1.170   7.838  13.606
11962POPC   H9198434   1.207   7.913  13.678
11962POPC  C21098435   1.227   7.835  13.485
11962POPC  H10198436   1.306   7.910  13.464
11962POPC  C21198437   1.197   7.744  13.368
11962POPC  H11R98438   1.146   7.652  13.403
11962POPC  H11S98439   1.291   7.711  13.320
11962POPC  C21298440   1.107   7.811  13.262
11962POPC  H12R98441   1.019   7.857  13.313
11962POPC  H12S98442   1.067   7.733  13.194
11962POPC  C21398443   1.175   7.921  13.179
11962POPC  H13R98444   1.272   7.947  13.226
11962POPC  H13S98445   1.114   8.014  13.185
11962POPC  C21498446   1.197   7.893  13.029
11962POPC  H14R98447   1.281   7.959  12.996
11962POPC  H14S98448   1.108   7.923  12.970
11962POPC  C21598449   1.235   7.750  12.991
11962POPC  H15R98450   1.155   7.706  12.928
11962POPC  H15S98451   1.247   7.688  13.082
11962POPC  C21698452   1.368   7.744  12.915
11962POPC  H16R98453   1.444   7.790  12.982
11962POPC  H16S98454   1.361   7.806  12.823
11962POPC  C21798455   1.411   7.602  12.882
11962POPC  H17R98456   1.385   7.535  12.967
11962POPC  H17S98457   1.522   7.598  12.874
11962POPC  C21898458   1.349   7.550  12.752
11962POPC  H18R98459   1.239   7.566  12.753
11962POPC  H18S98460   1.371   7.442  12.737
11962POPC  H18T98461   1.389   7.607  12.665
11962POPC   C3398462   1.098   7.154  14.356
11962POPC   H3X98463   1.008   7.088  14.344
11962POPC   H3Y98464   1.182   7.097  14.315
11962POPC   C3498465   1.072   7.281  14.273
11962POPC   H4X98466   1.121   7.369  14.320
11962POPC   H4Y98467   0.962   7.298  14.272
11962POPC   C3598468   1.114   7.279  14.124
11962POPC   H5X98469   1.224   7.293  14.114
11962POPC   H5Y98470   1.067   7.366  14.073
11962POPC   C3698471   1.080   7.149  14.051
11962POPC   H6X98472   1.006   7.092  14.111
11962POPC   H6Y98473   1.172   7.088  14.046
11962POPC   C3798474   1.023   7.166  13.909
11962POPC   H7X98475   0.928   7.223  13.914
11962POPC   H7Y98476   1.001   7.064  13.871
11962POPC   C3898477   1.117   7.226  13.804
11962POPC   H8X98478   1.211   7.166  13.808
11962POPC   H8Y98479   1.139   7.332  13.828
11962POPC   C3998480   1.060   7.211  13.663
11962POPC   H9X98481   0.953   7.242  13.664
11962POPC   H9Y98482   1.064   7.102  13.638
11962POPC  C31098483   1.133   7.286  13.552
11962POPC  H10X98484   1.240   7.254  13.549
11962POPC  H10Y98485   1.131   7.396  13.570
11962POPC  C31198486   1.065   7.253  13.418
11962POPC  H11X98487   0.963   7.296  13.417
11962POPC  H11Y98488   1.055   7.142  13.412
11962POPC  C31298489   1.141   7.300  13.294
11962POPC  H12X98490   1.250   7.279  13.303
11962POPC  H12Y98491   1.129   7.410  13.285
11962POPC  C31398492   1.087   7.227  13.169
11962POPC  H13X98493   0.976   7.239  13.166
11962POPC  H13Y98494   1.109   7.118  13.179
11962POPC  C31498495   1.145   7.277  13.036
11962POPC  H14X98496   1.094   7.224  12.952
11962POPC  H14Y98497   1.253   7.250  13.031
11962POPC  C31598498   1.130   7.428  13.015
11962POPC  H15X98499   1.155   7.451  12.910
11962POPC  H15Y98500   1.206   7.478  13.080
11962POPC  C31698501   0.993   7.486  13.047
11962POPC  H16X98502   0.987   7.593  13.016
11962POPC  H16Y98503   0.973   7.482  13.156
11962POPC  H16Z98504   0.913   7.430  12.995
11963POPC     N98505   6.468   0.712  14.708
11963POPC   C1298506   6.567   0.597  14.698
11963POPC  H12A98507   6.667   0.634  14.721
11963POPC  H12B98508   6.569   0.563  14.595
11963POPC   C1398509   6.342   0.676  14.636
11963POPC  H13A98510   6.363   0.649  14.532
11963POPC  H13B98511   6.298   0.587  14.681
11963POPC  H13C98512   6.271   0.759  14.638
11963POPC   C1498513   6.435   0.746  14.851
11963POPC  H14A98514   6.366   0.830  14.855
11963POPC  H14B98515   6.388   0.661  14.898
11963POPC  H14C98516   6.524   0.775  14.905
11963POPC   C1598517   6.527   0.835  14.646
11963POPC  H15A98518   6.459   0.919  14.658
11963POPC  H15B98519   6.545   0.823  14.540
11963POPC  H15C98520   6.621   0.861  14.693
11963POPC   C1198521   6.548   0.471  14.788
11963POPC  H11A98522   6.545   0.502  14.895
11963POPC  H11B98523   6.638   0.405  14.778
11963POPC     P98524   6.427   0.291  14.643
11963POPC   O1398525   6.286   0.281  14.600
11963POPC   O1498526   6.489   0.168  14.694
11963POPC   O1298527   6.428   0.401  14.758
11963POPC   O1198528   6.517   0.355  14.528
11963POPC    C198529   6.575   0.262  14.433
11963POPC    HA98530   6.512   0.171  14.418
11963POPC    HB98531   6.675   0.229  14.469
11963POPC    C298532   6.595   0.323  14.290
11963POPC    HS98533   6.660   0.413  14.298
11963POPC   O2198534   6.470   0.357  14.228
11963POPC   C2198535   6.400   0.454  14.279
11963POPC   O2298536   6.439   0.540  14.357
11963POPC   C2298537   6.260   0.453  14.217
11963POPC   H2R98538   6.211   0.549  14.243
11963POPC   H2S98539   6.205   0.370  14.266
11963POPC    C398540   6.663   0.221  14.194
11963POPC    HX98541   6.604   0.127  14.194
11963POPC    HY98542   6.764   0.197  14.236
11963POPC   O3198543   6.680   0.278  14.061
11963POPC   C3198544   6.595   0.240  13.966
11963POPC   O3298545   6.513   0.151  13.973
11963POPC   C3298546   6.623   0.322  13.838
11963POPC   H2X98547   6.635   0.249  13.756
11963POPC   H2Y98548   6.716   0.380  13.850
11963POPC   C2398549   6.259   0.432  14.063
11963POPC   H3R98550   6.352   0.380  14.030
11963POPC   H3S98551   6.255   0.530  14.012
11963POPC   C2498552   6.144   0.342  14.016
11963POPC   H4R98553   6.050   0.371  14.065
11963POPC   H4S98554   6.163   0.237  14.047
11963POPC   C2598555   6.129   0.340  13.864
11963POPC   H5R98556   6.170   0.434  13.821
11963POPC   H5S98557   6.022   0.333  13.838
11963POPC   C2698558   6.197   0.218  13.801
11963POPC   H6R98559   6.142   0.127  13.835
11963POPC   H6S98560   6.299   0.208  13.842
11963POPC   C2798561   6.201   0.222  13.647
11963POPC   H7R98562   6.261   0.308  13.611
11963POPC   H7S98563   6.098   0.237  13.608
11963POPC   C2898564   6.257   0.091  13.592
11963POPC   H8R98565   6.232   0.083  13.484
11963POPC   H8S98566   6.205   0.007  13.644
11963POPC   C2998567   6.405   0.084  13.619
11963POPC   H9198568   6.433   0.080  13.725
11963POPC  C21098569   6.501   0.082  13.526
11963POPC  H10198570   6.606   0.074  13.558
11963POPC  C21198571   6.478   0.086  13.377
11963POPC  H11R98572   6.391   0.024  13.347
11963POPC  H11S98573   6.567   0.040  13.329
11963POPC  C21298574   6.458   0.228  13.321
11963POPC  H12R98575   6.545   0.292  13.349
11963POPC  H12S98576   6.367   0.273  13.367
11963POPC  C21398577   6.441   0.230  13.169
11963POPC  H13R98578   6.436   0.336  13.133
11963POPC  H13S98579   6.343   0.183  13.147
11963POPC  C21498580   6.553   0.156  13.093
11963POPC  H14R98581   6.560   0.051  13.128
11963POPC  H14S98582   6.650   0.206  13.114
11963POPC  C21598583   6.533   0.147  12.941
11963POPC  H15R98584   6.621   0.098  12.894
11963POPC  H15S98585   6.528   0.251  12.901
11963POPC  C21698586   6.406   0.072  12.901
11963POPC  H16R98587   6.321   0.100  12.967
11963POPC  H16S98588   6.419  -0.037  12.911
11963POPC  C21798589   6.363   0.109  12.760
11963POPC  H17R98590   6.432   0.067  12.684
11963POPC  H17S98591   6.371   0.219  12.752
11963POPC  C21898592   6.218   0.071  12.731
11963POPC  H18R98593   6.185   0.117  12.636
11963POPC  H18S98594   6.151   0.106  12.812
11963POPC  H18T98595   6.206  -0.037  12.720
11963POPC   C3398596   6.508   0.420  13.806
11963POPC   H3X98597   6.490   0.488  13.892
11963POPC   H3Y98598   6.415   0.361  13.790
11963POPC   C3498599   6.529   0.505  13.681
11963POPC   H4X98600   6.556   0.438  13.596
11963POPC   H4Y98601   6.613   0.576  13.697
11963POPC   C3598602   6.399   0.581  13.645
11963POPC   H5X98603   6.385   0.666  13.715
11963POPC   H5Y98604   6.313   0.512  13.659
11963POPC   C3698605   6.395   0.628  13.500
11963POPC   H6X98606   6.296   0.674  13.476
11963POPC   H6Y98607   6.405   0.537  13.438
11963POPC   C3798608   6.507   0.728  13.467
11963POPC   H7X98609   6.603   0.688  13.504
11963POPC   H7Y98610   6.487   0.824  13.519
11963POPC   C3898611   6.523   0.754  13.316
11963POPC   H8X98612   6.607   0.825  13.301
11963POPC   H8Y98613   6.431   0.802  13.276
11963POPC   C3998614   6.553   0.625  13.239
11963POPC   H9X98615   6.472   0.550  13.247
11963POPC   H9Y98616   6.641   0.576  13.284
11963POPC  C31098617   6.577   0.650  13.091
11963POPC  H10X98618   6.630   0.564  13.044
11963POPC  H10Y98619   6.641   0.740  13.078
11963POPC  C31198620   6.443   0.670  13.019
11963POPC  H11X98621   6.378   0.740  13.076
11963POPC  H11Y98622   6.389   0.573  13.013
11963POPC  C31298623   6.465   0.727  12.880
11963POPC  H12X98624   6.572   0.751  12.866
11963POPC  H12Y98625   6.413   0.824  12.870
11963POPC  C31398626   6.422   0.633  12.769
11963POPC  H13X98627   6.419   0.697  12.678
11963POPC  H13Y98628   6.320   0.593  12.786
11963POPC  C31498629   6.517   0.514  12.755
11963POPC  H14X98630   6.498   0.443  12.838
11963POPC  H14Y98631   6.621   0.551  12.769
11963POPC  C31598632   6.508   0.441  12.621
11963POPC  H15X98633   6.439   0.355  12.628
11963POPC  H15Y98634   6.609   0.399  12.602
11963POPC  C31698635   6.461   0.528  12.503
11963POPC  H16X98636   6.357   0.561  12.521
11963POPC  H16Y98637   6.463   0.473  12.407
11963POPC  H16Z98638   6.522   0.620  12.496
11964POPC     N98639   6.149  -0.273  14.788
11964POPC   C1298640   6.013  -0.299  14.852
11964POPC  H12A98641   6.010  -0.248  14.948
11964POPC  H12B98642   6.002  -0.405  14.870
11964POPC   C1398643   6.159  -0.344  14.657
11964POPC  H13A98644   6.254  -0.327  14.608
11964POPC  H13B98645   6.140  -0.450  14.666
11964POPC  H13C98646   6.077  -0.310  14.592
11964POPC   C1498647   6.172  -0.128  14.759
11964POPC  H14A98648   6.078  -0.079  14.740
11964POPC  H14B98649   6.223  -0.078  14.841
11964POPC  H14C98650   6.235  -0.116  14.671
11964POPC   C1598651   6.263  -0.321  14.874
11964POPC  H15A98652   6.347  -0.250  14.867
11964POPC  H15B98653   6.300  -0.416  14.838
11964POPC  H15C98654   6.233  -0.335  14.977
11964POPC   C1198655   5.886  -0.255  14.775
11964POPC  H11A98656   5.889  -0.144  14.763
11964POPC  H11B98657   5.797  -0.279  14.838
11964POPC     P98658   5.778  -0.265  14.536
11964POPC   O1398659   5.637  -0.273  14.583
11964POPC   O1498660   5.813  -0.331  14.409
11964POPC   O1298661   5.875  -0.321  14.650
11964POPC   O1198662   5.818  -0.111  14.529
11964POPC    C198663   5.953  -0.080  14.497
11964POPC    HA98664   6.010  -0.164  14.450
11964POPC    HB98665   6.003  -0.049  14.590
11964POPC    C298666   5.962   0.040  14.402
11964POPC    HS98667   5.896   0.120  14.443
11964POPC   O2198668   5.925  -0.002  14.270
11964POPC   C2198669   5.853   0.084  14.201
11964POPC   O2298670   5.813   0.192  14.241
11964POPC   C2298671   5.824   0.023  14.065
11964POPC   H2R98672   5.725  -0.026  14.071
11964POPC   H2S98673   5.898  -0.056  14.041
11964POPC    C398674   6.109   0.088  14.402
11964POPC    HX98675   6.138   0.115  14.506
11964POPC    HY98676   6.116   0.181  14.341
11964POPC   O3198677   6.193  -0.021  14.359
11964POPC   C3198678   6.259   0.002  14.246
11964POPC   O3298679   6.271   0.111  14.194
11964POPC   C3298680   6.323  -0.125  14.193
11964POPC   H2X98681   6.296  -0.208  14.261
11964POPC   H2Y98682   6.432  -0.108  14.200
11964POPC   C2398683   5.826   0.131  13.955
11964POPC   H3R98684   5.928   0.173  13.945
11964POPC   H3S98685   5.758   0.214  13.985
11964POPC   C2498686   5.781   0.077  13.820
11964POPC   H4R98687   5.735   0.160  13.762
11964POPC   H4S98688   5.705  -0.003  13.834
11964POPC   C2598689   5.896   0.031  13.732
11964POPC   H5R98690   5.957  -0.043  13.787
11964POPC   H5S98691   5.957   0.122  13.714
11964POPC   C2698692   5.849  -0.023  13.597
11964POPC   H6R98693   5.939  -0.038  13.533
11964POPC   H6S98694   5.786   0.053  13.548
11964POPC   C2798695   5.774  -0.156  13.608
11964POPC   H7R98696   5.678  -0.144  13.664
11964POPC   H7S98697   5.837  -0.225  13.669
11964POPC   C2898698   5.748  -0.222  13.471
11964POPC   H8R98699   5.731  -0.331  13.489
11964POPC   H8S98700   5.842  -0.215  13.412
11964POPC   C2998701   5.632  -0.167  13.392
11964POPC   H9198702   5.537  -0.223  13.404
11964POPC  C21098703   5.632  -0.058  13.313
11964POPC  H10198704   5.539  -0.029  13.263
11964POPC  C21198705   5.750   0.032  13.286
11964POPC  H11R98706   5.845  -0.010  13.325
11964POPC  H11S98707   5.734   0.130  13.338
11964POPC  C21298708   5.770   0.062  13.137
11964POPC  H12R98709   5.678   0.110  13.097
11964POPC  H12S98710   5.785  -0.034  13.082
11964POPC  C21398711   5.889   0.155  13.111
11964POPC  H13R98712   5.984   0.100  13.130
11964POPC  H13S98713   5.885   0.241  13.181
11964POPC  C21498714   5.886   0.206  12.967
11964POPC  H14R98715   5.788   0.254  12.946
11964POPC  H14S98716   5.896   0.117  12.900
11964POPC  C21598717   5.997   0.306  12.931
11964POPC  H15R98718   6.096   0.263  12.960
11964POPC  H15S98719   5.984   0.402  12.986
11964POPC  C21698720   5.996   0.330  12.779
11964POPC  H16R98721   5.908   0.392  12.751
11964POPC  H16S98722   5.982   0.231  12.730
11964POPC  C21798723   6.123   0.393  12.724
11964POPC  H17R98724   6.211   0.343  12.770
11964POPC  H17S98725   6.127   0.499  12.756
11964POPC  C21898726   6.135   0.382  12.571
11964POPC  H18R98727   6.234   0.411  12.534
11964POPC  H18S98728   6.060   0.443  12.519
11964POPC  H18T98729   6.121   0.277  12.539
11964POPC   C3398730   6.290  -0.164  14.046
11964POPC   H3X98731   6.361  -0.244  14.017
11964POPC   H3Y98732   6.308  -0.079  13.977
11964POPC   C3498733   6.149  -0.222  14.027
11964POPC   H4X98734   6.079  -0.136  14.020
11964POPC   H4Y98735   6.120  -0.281  14.117
11964POPC   C3598736   6.130  -0.313  13.904
11964POPC   H5X98737   6.022  -0.339  13.897
11964POPC   H5Y98738   6.186  -0.408  13.919
11964POPC   C3698739   6.174  -0.251  13.771
11964POPC   H6X98740   6.285  -0.241  13.768
11964POPC   H6Y98741   6.133  -0.148  13.766
11964POPC   C3798742   6.127  -0.328  13.646
11964POPC   H7X98743   6.017  -0.339  13.650
11964POPC   H7Y98744   6.171  -0.430  13.645
11964POPC   C3898745   6.166  -0.254  13.517
11964POPC   H8X98746   6.276  -0.241  13.513
11964POPC   H8Y98747   6.120  -0.152  13.522
11964POPC   C3998748   6.118  -0.319  13.386
11964POPC   H9X98749   6.009  -0.339  13.392
11964POPC   H9Y98750   6.169  -0.416  13.371
11964POPC  C31098751   6.146  -0.225  13.267
11964POPC  H10X98752   6.256  -0.227  13.247
11964POPC  H10Y98753   6.119  -0.121  13.295
11964POPC  C31198754   6.069  -0.259  13.139
11964POPC  H11X98755   5.961  -0.234  13.153
11964POPC  H11Y98756   6.076  -0.368  13.121
11964POPC  C31298757   6.124  -0.186  13.016
11964POPC  H12X98758   6.234  -0.197  13.013
11964POPC  H12Y98759   6.102  -0.077  13.024
11964POPC  C31398760   6.067  -0.240  12.883
11964POPC  H13X98761   6.100  -0.345  12.869
11964POPC  H13Y98762   6.111  -0.183  12.800
11964POPC  C31498763   5.915  -0.232  12.871
11964POPC  H14X98764   5.880  -0.129  12.896
11964POPC  H14Y98765   5.871  -0.301  12.946
11964POPC  C31598766   5.863  -0.271  12.732
11964POPC  H15X98767   5.753  -0.287  12.739
11964POPC  H15Y98768   5.910  -0.368  12.706
11964POPC  C31698769   5.890  -0.170  12.620
11964POPC  H16X98770   5.999  -0.158  12.602
11964POPC  H16Y98771   5.848  -0.071  12.646
11964POPC  H16Z98772   5.843  -0.204  12.525
11965POPC     N98773   1.949   0.690  14.781
11965POPC   C1298774   1.872   0.801  14.709
11965POPC  H12A98775   1.829   0.867  14.784
11965POPC  H12B98776   1.790   0.759  14.652
11965POPC   C1398777   1.987   0.582  14.684
11965POPC  H13A98778   1.900   0.540  14.637
11965POPC  H13B98779   2.051   0.626  14.607
11965POPC  H13C98780   2.039   0.500  14.733
11965POPC   C1498781   2.073   0.755  14.835
11965POPC  H14A98782   2.141   0.687  14.883
11965POPC  H14B98783   2.127   0.807  14.754
11965POPC  H14C98784   2.048   0.836  14.903
11965POPC   C1598785   1.872   0.633  14.895
11965POPC  H15A98786   1.927   0.553  14.945
11965POPC  H15B98787   1.777   0.591  14.863
11965POPC  H15C98788   1.853   0.707  14.972
11965POPC   C1198789   1.954   0.896  14.618
11965POPC  H11A98790   1.883   0.947  14.549
11965POPC  H11B98791   2.026   0.838  14.555
11965POPC     P98792   2.141   1.082  14.650
11965POPC   O1398793   2.257   0.996  14.618
11965POPC   O1498794   2.164   1.191  14.749
11965POPC   O1298795   2.020   0.992  14.700
11965POPC   O1198796   2.079   1.147  14.517
11965POPC    C198797   1.951   1.214  14.518
11965POPC    HA98798   1.969   1.321  14.542
11965POPC    HB98799   1.881   1.173  14.594
11965POPC    C298800   1.874   1.211  14.380
11965POPC    HS98801   1.803   1.297  14.381
11965POPC   O2198802   1.799   1.089  14.368
11965POPC   C2198803   1.727   1.070  14.257
11965POPC   O2298804   1.700   1.152  14.172
11965POPC   C2298805   1.686   0.921  14.256
11965POPC   H2R98806   1.617   0.911  14.343
11965POPC   H2S98807   1.777   0.860  14.275
11965POPC    C398808   1.972   1.228  14.259
11965POPC    HX98809   2.041   1.312  14.283
11965POPC    HY98810   1.915   1.256  14.168
11965POPC   O3198811   2.045   1.108  14.235
11965POPC   C3198812   2.132   1.112  14.136
11965POPC   O3298813   2.142   1.201  14.053
11965POPC   C3298814   2.225   0.994  14.152
11965POPC   H2X98815   2.256   0.989  14.259
11965POPC   H2Y98816   2.315   1.012  14.090
11965POPC   C2398817   1.614   0.871  14.128
11965POPC   H3R98818   1.556   0.952  14.079
11965POPC   H3S98819   1.540   0.795  14.161
11965POPC   C2498820   1.706   0.800  14.027
11965POPC   H4R98821   1.643   0.739  13.958
11965POPC   H4S98822   1.773   0.730  14.081
11965POPC   C2598823   1.791   0.895  13.941
11965POPC   H5R98824   1.862   0.830  13.884
11965POPC   H5S98825   1.852   0.963  14.004
11965POPC   C2698826   1.710   0.975  13.838
11965POPC   H6R98827   1.698   1.080  13.875
11965POPC   H6S98828   1.608   0.932  13.827
11965POPC   C2798829   1.779   0.974  13.701
11965POPC   H7R98830   1.795   0.869  13.669
11965POPC   H7S98831   1.879   1.022  13.713
11965POPC   C2898832   1.700   1.046  13.590
11965POPC   H8R98833   1.665   1.143  13.631
11965POPC   H8S98834   1.609   0.987  13.565
11965POPC   C2998835   1.786   1.070  13.468
11965POPC   H9198836   1.827   1.171  13.458
11965POPC  C21098837   1.817   0.978  13.376
11965POPC  H10198838   1.884   1.007  13.293
11965POPC  C21198839   1.773   0.834  13.376
11965POPC  H11R98840   1.668   0.825  13.412
11965POPC  H11S98841   1.837   0.775  13.445
11965POPC  C21298842   1.780   0.764  13.239
11965POPC  H12R98843   1.739   0.661  13.249
11965POPC  H12S98844   1.884   0.754  13.202
11965POPC  C21398845   1.700   0.839  13.133
11965POPC  H13R98846   1.769   0.879  13.054
11965POPC  H13S98847   1.652   0.928  13.180
11965POPC  C21498848   1.586   0.756  13.076
11965POPC  H14R98849   1.524   0.717  13.159
11965POPC  H14S98850   1.623   0.670  13.015
11965POPC  C21598851   1.499   0.849  12.994
11965POPC  H15R98852   1.470   0.937  13.055
11965POPC  H15S98853   1.404   0.797  12.970
11965POPC  C21698854   1.569   0.894  12.867
11965POPC  H16R98855   1.606   0.802  12.815
11965POPC  H16S98856   1.659   0.957  12.882
11965POPC  C21798857   1.468   0.959  12.775
11965POPC  H17R98858   1.372   0.908  12.793
11965POPC  H17S98859   1.504   0.934  12.674
11965POPC  C21898860   1.434   1.107  12.791
11965POPC  H18R98861   1.517   1.162  12.836
11965POPC  H18S98862   1.344   1.117  12.856
11965POPC  H18T98863   1.410   1.153  12.693
11965POPC   C3398864   2.154   0.863  14.110
11965POPC   H3X98865   2.051   0.857  14.152
11965POPC   H3Y98866   2.212   0.778  14.153
11965POPC   C3498867   2.152   0.848  13.958
11965POPC   H4X98868   2.251   0.880  13.922
11965POPC   H4Y98869   2.076   0.915  13.911
11965POPC   C3598870   2.134   0.703  13.912
11965POPC   H5X98871   2.028   0.671  13.925
11965POPC   H5Y98872   2.196   0.639  13.979
11965POPC   C3698873   2.181   0.677  13.768
11965POPC   H6X98874   2.182   0.566  13.754
11965POPC   H6Y98875   2.286   0.713  13.756
11965POPC   C3798876   2.092   0.739  13.659
11965POPC   H7X98877   2.105   0.849  13.657
11965POPC   H7Y98878   1.986   0.719  13.686
11965POPC   C3898879   2.119   0.678  13.520
11965POPC   H8X98880   2.021   0.655  13.472
11965POPC   H8Y98881   2.172   0.581  13.531
11965POPC   C3998882   2.200   0.768  13.425
11965POPC   H9X98883   2.293   0.716  13.395
11965POPC   H9Y98884   2.229   0.862  13.477
11965POPC  C31098885   2.123   0.807  13.297
11965POPC  H10X98886   2.037   0.869  13.328
11965POPC  H10Y98887   2.085   0.716  13.246
11965POPC  C31198888   2.208   0.890  13.202
11965POPC  H11X98889   2.290   0.824  13.165
11965POPC  H11Y98890   2.251   0.972  13.262
11965POPC  C31298891   2.136   0.954  13.081
11965POPC  H12X98892   2.100   1.055  13.112
11965POPC  H12Y98893   2.047   0.894  13.051
11965POPC  C31398894   2.231   0.967  12.961
11965POPC  H13X98895   2.241   0.867  12.913
11965POPC  H13Y98896   2.332   0.994  12.998
11965POPC  C31498897   2.192   1.070  12.854
11965POPC  H14X98898   2.093   1.045  12.811
11965POPC  H14Y98899   2.267   1.063  12.772
11965POPC  C31598900   2.190   1.214  12.903
11965POPC  H15X98901   2.280   1.236  12.965
11965POPC  H15Y98902   2.100   1.231  12.967
11965POPC  C31698903   2.186   1.310  12.784
11965POPC  H16X98904   2.283   1.304  12.728
11965POPC  H16Y98905   2.170   1.414  12.818
11965POPC  H16Z98906   2.105   1.282  12.714
11966POPC     N98907   4.059   9.305  14.853
11966POPC   C1298908   4.027   9.243  14.718
11966POPC  H12A98909   3.988   9.321  14.653
11966POPC  H12B98910   3.951   9.168  14.730
11966POPC   C1398911   4.113   9.445  14.831
11966POPC  H13A98912   4.042   9.511  14.784
11966POPC  H13B98913   4.153   9.490  14.921
11966POPC  H13C98914   4.200   9.439  14.763
11966POPC   C1498915   3.943   9.304  14.944
11966POPC  H14A98916   3.953   9.374  15.028
11966POPC  H14B98917   3.851   9.334  14.895
11966POPC  H14C98918   3.927   9.206  14.987
11966POPC   C1598919   4.168   9.228  14.919
11966POPC  H15A98920   4.145   9.123  14.920
11966POPC  H15B98921   4.190   9.266  15.018
11966POPC  H15C98922   4.258   9.243  14.859
11966POPC   C1198923   4.147   9.186  14.638
11966POPC  H11A98924   4.112   9.160  14.535
11966POPC  H11B98925   4.185   9.093  14.685
11966POPC     P98926   4.372   9.270  14.539
11966POPC   O1398927   4.412   9.127  14.538
11966POPC   O1498928   4.476   9.365  14.582
11966POPC   O1298929   4.248   9.286  14.635
11966POPC   O1198930   4.310   9.314  14.399
11966POPC    C198931   4.329   9.450  14.360
11966POPC    HA98932   4.417   9.451  14.293
11966POPC    HB98933   4.347   9.520  14.446
11966POPC    C298934   4.211   9.514  14.282
11966POPC    HS98935   4.143   9.566  14.353
11966POPC   O2198936   4.139   9.417  14.206
11966POPC   C2198937   4.052   9.342  14.269
11966POPC   O2298938   4.001   9.361  14.378
11966POPC   C2298939   4.008   9.233  14.171
11966POPC   H2R98940   4.022   9.274  14.069
11966POPC   H2S98941   3.900   9.214  14.186
11966POPC    C398942   4.266   9.617  14.182
11966POPC    HX98943   4.319   9.698  14.238
11966POPC    HY98944   4.176   9.661  14.131
11966POPC   O3198945   4.355   9.553  14.087
11966POPC   C3198946   4.379   9.634  13.984
11966POPC   O3298947   4.340   9.749  13.981
11966POPC   C3298948   4.459   9.568  13.873
11966POPC   H2X98949   4.470   9.461  13.896
11966POPC   H2Y98950   4.561   9.612  13.871
11966POPC   C2398951   4.093   9.106  14.191
11966POPC   H3R98952   4.051   9.048  14.276
11966POPC   H3S98953   4.197   9.133  14.221
11966POPC   C2498954   4.102   9.017  14.066
11966POPC   H4R98955   4.000   8.982  14.040
11966POPC   H4S98956   4.163   8.928  14.092
11966POPC   C2598957   4.165   9.084  13.942
11966POPC   H5R98958   4.097   9.163  13.903
11966POPC   H5S98959   4.176   9.008  13.861
11966POPC   C2698960   4.302   9.146  13.971
11966POPC   H6R98961   4.369   9.070  14.018
11966POPC   H6S98962   4.289   9.229  14.045
11966POPC   C2798963   4.373   9.206  13.848
11966POPC   H7R98964   4.456   9.266  13.889
11966POPC   H7S98965   4.303   9.273  13.794
11966POPC   C2898966   4.435   9.105  13.750
11966POPC   H8R98967   4.354   9.045  13.706
11966POPC   H8S98968   4.501   9.036  13.807
11966POPC   C2998969   4.516   9.180  13.647
11966POPC   H9198970   4.598   9.242  13.688
11966POPC  C21098971   4.497   9.178  13.514
11966POPC  H10198972   4.562   9.238  13.448
11966POPC  C21198973   4.390   9.098  13.444
11966POPC  H11R98974   4.377   8.999  13.494
11966POPC  H11S98975   4.420   9.076  13.339
11966POPC  C21298976   4.254   9.169  13.442
11966POPC  H12R98977   4.259   9.255  13.372
11966POPC  H12S98978   4.228   9.207  13.543
11966POPC  C21398979   4.143   9.072  13.398
11966POPC  H13R98980   4.107   9.017  13.488
11966POPC  H13S98981   4.187   8.998  13.328
11966POPC  C21498982   4.026   9.140  13.328
11966POPC  H14R98983   4.061   9.206  13.246
11966POPC  H14S98984   3.971   9.203  13.401
11966POPC  C21598985   3.930   9.034  13.272
11966POPC  H15R98986   3.829   9.078  13.264
11966POPC  H15S98987   3.924   8.952  13.346
11966POPC  C21698988   3.971   8.977  13.135
11966POPC  H16R98989   3.913   8.883  13.119
11966POPC  H16S98990   4.078   8.949  13.135
11966POPC  C21798991   3.940   9.071  13.018
11966POPC  H17R98992   4.018   9.150  13.013
11966POPC  H17S98993   3.843   9.122  13.038
11966POPC  C21898994   3.929   8.998  12.885
11966POPC  H18R98995   3.912   9.070  12.801
11966POPC  H18S98996   3.845   8.925  12.886
11966POPC  H18T98997   4.023   8.941  12.865
11966POPC   C3398998   4.391   9.589  13.736
11966POPC   H3X98999   4.446   9.531  13.659
11966POPC   H3Y99000   4.397   9.696  13.706
11966POPC   C3499001   4.244   9.546  13.738
11966POPC   H4X99002   4.180   9.630  13.771
11966POPC   H4Y99003   4.231   9.464  13.812
11966POPC   C3599004   4.196   9.494  13.603
11966POPC   H5X99005   4.263   9.409  13.575
11966POPC   H5Y99006   4.212   9.572  13.526
11966POPC   C3699007   4.051   9.444  13.606
11966POPC   H6X99008   4.027   9.408  13.708
11966POPC   H6Y99009   4.043   9.355  13.539
11966POPC   C3799010   3.947   9.546  13.560
11966POPC   H7X99011   3.943   9.630  13.634
11966POPC   H7Y99012   3.846   9.499  13.558
11966POPC   C3899013   3.975   9.608  13.423
11966POPC   H8X99014   4.064   9.673  13.435
11966POPC   H8Y99015   3.889   9.674  13.398
11966POPC   C3999016   4.003   9.511  13.307
11966POPC   H9X99017   3.905   9.470  13.272
11966POPC   H9Y99018   4.065   9.426  13.341
11966POPC  C31099019   4.075   9.575  13.187
11966POPC  H10X99020   4.014   9.657  13.148
11966POPC  H10Y99021   4.083   9.497  13.108
11966POPC  C31199022   4.218   9.628  13.210
11966POPC  H11X99023   4.220   9.706  13.288
11966POPC  H11Y99024   4.251   9.677  13.115
11966POPC  C31299025   4.315   9.515  13.246
11966POPC  H12X99026   4.283   9.422  13.195
11966POPC  H12Y99027   4.310   9.497  13.355
11966POPC  C31399028   4.461   9.543  13.208
11966POPC  H13X99029   4.524   9.462  13.253
11966POPC  H13Y99030   4.493   9.640  13.251
11966POPC  C31499031   4.485   9.546  13.058
11966POPC  H14X99032   4.451   9.643  13.015
11966POPC  H14Y99033   4.426   9.464  13.010
11966POPC  C31599034   4.632   9.524  13.021
11966POPC  H15X99035   4.697   9.569  13.099
11966POPC  H15Y99036   4.653   9.575  12.925
11966POPC  C31699037   4.666   9.377  13.005
11966POPC  H16X99038   4.773   9.363  12.982
11966POPC  H16Y99039   4.606   9.332  12.922
11966POPC  H16Z99040   4.642   9.321  13.098
11967POPC     N99041   1.343   8.047  14.861
11967POPC   C1299042   1.475   8.000  14.800
11967POPC  H12A99043   1.455   7.930  14.718
11967POPC  H12B99044   1.535   7.946  14.872
11967POPC   C1399045   1.374   8.155  14.961
11967POPC  H13A99046   1.441   8.229  14.920
11967POPC  H13B99047   1.283   8.202  14.997
11967POPC  H13C99048   1.420   8.110  15.049
11967POPC   C1499049   1.263   8.104  14.748
11967POPC  H14A99050   1.253   8.029  14.670
11967POPC  H14B99051   1.167   8.138  14.780
11967POPC  H14C99052   1.322   8.181  14.698
11967POPC   C1599053   1.268   7.938  14.930
11967POPC  H15A99054   1.318   7.910  15.022
11967POPC  H15B99055   1.257   7.850  14.868
11967POPC  H15C99056   1.169   7.972  14.957
11967POPC   C1199057   1.562   8.110  14.734
11967POPC  H11A99058   1.669   8.078  14.732
11967POPC  H11B99059   1.563   8.204  14.792
11967POPC     P99060   1.565   8.041  14.485
11967POPC   O1399061   1.459   8.018  14.384
11967POPC   O1499062   1.625   7.922  14.549
11967POPC   O1299063   1.510   8.136  14.603
11967POPC   O1199064   1.678   8.129  14.418
11967POPC    C199065   1.697   8.269  14.449
11967POPC    HA99066   1.798   8.300  14.413
11967POPC    HB99067   1.695   8.285  14.559
11967POPC    C299068   1.593   8.367  14.384
11967POPC    HS99069   1.604   8.465  14.436
11967POPC   O2199070   1.460   8.316  14.403
11967POPC   C2199071   1.359   8.389  14.368
11967POPC   O2299072   1.362   8.507  14.338
11967POPC   C2299073   1.230   8.310  14.394
11967POPC   H2R99074   1.209   8.318  14.502
11967POPC   H2S99075   1.250   8.203  14.371
11967POPC    C399076   1.621   8.392  14.232
11967POPC    HX99077   1.725   8.428  14.220
11967POPC    HY99078   1.557   8.475  14.196
11967POPC   O3199079   1.590   8.274  14.154
11967POPC   C3199080   1.694   8.206  14.106
11967POPC   O3299081   1.809   8.244  14.106
11967POPC   C3299082   1.645   8.078  14.038
11967POPC   H2X99083   1.546   8.051  14.082
11967POPC   H2Y99084   1.717   7.998  14.062
11967POPC   C2399085   1.110   8.363  14.312
11967POPC   H3R99086   1.085   8.467  14.343
11967POPC   H3S99087   1.022   8.298  14.335
11967POPC   C2499088   1.134   8.361  14.161
11967POPC   H4R99089   1.196   8.450  14.136
11967POPC   H4S99090   1.037   8.373  14.107
11967POPC   C2599091   1.203   8.233  14.111
11967POPC   H5R99092   1.138   8.146  14.135
11967POPC   H5S99093   1.302   8.217  14.161
11967POPC   C2699094   1.232   8.235  13.961
11967POPC   H6R99095   1.134   8.251  13.911
11967POPC   H6S99096   1.271   8.136  13.929
11967POPC   C2799097   1.335   8.343  13.924
11967POPC   H7R99098   1.432   8.319  13.972
11967POPC   H7S99099   1.304   8.442  13.965
11967POPC   C2899100   1.357   8.363  13.774
11967POPC   H8R99101   1.413   8.277  13.730
11967POPC   H8S99102   1.418   8.454  13.758
11967POPC   C2999103   1.220   8.380  13.715
11967POPC   H9199104   1.162   8.461  13.762
11967POPC  C21099105   1.163   8.308  13.619
11967POPC  H10199106   1.065   8.339  13.581
11967POPC  C21199107   1.218   8.192  13.544
11967POPC  H11R99108   1.161   8.101  13.572
11967POPC  H11S99109   1.325   8.174  13.565
11967POPC  C21299110   1.200   8.217  13.395
11967POPC  H12R99111   1.103   8.265  13.369
11967POPC  H12S99112   1.198   8.117  13.348
11967POPC  C21399113   1.316   8.296  13.334
11967POPC  H13R99114   1.408   8.286  13.395
11967POPC  H13S99115   1.291   8.404  13.330
11967POPC  C21499116   1.343   8.244  13.194
11967POPC  H14R99117   1.245   8.207  13.155
11967POPC  H14S99118   1.410   8.156  13.200
11967POPC  C21599119   1.396   8.350  13.097
11967POPC  H15R99120   1.492   8.315  13.052
11967POPC  H15S99121   1.415   8.446  13.149
11967POPC  C21699122   1.294   8.369  12.985
11967POPC  H16R99123   1.319   8.458  12.922
11967POPC  H16S99124   1.194   8.387  13.032
11967POPC  C21799125   1.288   8.244  12.898
11967POPC  H17R99126   1.306   8.154  12.961
11967POPC  H17S99127   1.375   8.251  12.830
11967POPC  C21899128   1.158   8.222  12.822
11967POPC  H18R99129   1.122   8.117  12.834
11967POPC  H18S99130   1.175   8.238  12.713
11967POPC  H18T99131   1.078   8.291  12.856
11967POPC   C3399132   1.633   8.094  13.884
11967POPC   H3X99133   1.731   8.126  13.840
11967POPC   H3Y99134   1.559   8.175  13.863
11967POPC   C3499135   1.585   7.967  13.815
11967POPC   H4X99136   1.515   7.914  13.884
11967POPC   H4Y99137   1.671   7.899  13.796
11967POPC   C3599138   1.510   7.994  13.683
11967POPC   H5X99139   1.422   8.058  13.706
11967POPC   H5Y99140   1.470   7.898  13.645
11967POPC   C3699141   1.597   8.062  13.576
11967POPC   H6X99142   1.701   8.023  13.586
11967POPC   H6Y99143   1.602   8.171  13.597
11967POPC   C3799144   1.554   8.036  13.430
11967POPC   H7X99145   1.611   8.104  13.362
11967POPC   H7Y99146   1.446   8.060  13.417
11967POPC   C3899147   1.581   7.890  13.392
11967POPC   H8X99148   1.520   7.829  13.461
11967POPC   H8Y99149   1.688   7.866  13.414
11967POPC   C3999150   1.547   7.839  13.252
11967POPC   H9X99151   1.449   7.871  13.216
11967POPC   H9Y99152   1.538   7.728  13.254
11967POPC  C31099153   1.656   7.866  13.149
11967POPC  H10X99154   1.653   7.782  13.076
11967POPC  H10Y99155   1.756   7.866  13.193
11967POPC  C31199156   1.634   7.997  13.077
11967POPC  H11X99157   1.708   8.072  13.112
11967POPC  H11Y99158   1.533   8.037  13.098
11967POPC  C31299159   1.645   7.971  12.928
11967POPC  H12X99160   1.544   7.947  12.889
11967POPC  H12Y99161   1.713   7.885  12.910
11967POPC  C31399162   1.703   8.087  12.853
11967POPC  H13X99163   1.647   8.177  12.887
11967POPC  H13Y99164   1.689   8.073  12.743
11967POPC  C31499165   1.854   8.092  12.877
11967POPC  H14X99166   1.897   7.995  12.848
11967POPC  H14Y99167   1.875   8.109  12.985
11967POPC  C31599168   1.918   8.202  12.795
11967POPC  H15X99169   1.932   8.168  12.690
11967POPC  H15Y99170   2.018   8.228  12.837
11967POPC  C31699171   1.826   8.322  12.798
11967POPC  H16X99172   1.877   8.404  12.749
11967POPC  H16Y99173   1.801   8.349  12.902
11967POPC  H16Z99174   1.732   8.306  12.742
11968POPC     N99175   8.440   7.253  14.545
11968POPC   C1299176   8.377   7.265  14.684
11968POPC  H12A99177   8.349   7.167  14.718
11968POPC  H12B99178   8.287   7.325  14.674
11968POPC   C1399179   8.447   7.391  14.488
11968POPC  H13A99180   8.348   7.438  14.482
11968POPC  H13B99181   8.499   7.457  14.558
11968POPC  H13C99182   8.493   7.397  14.391
11968POPC   C1499183   8.578   7.195  14.552
11968POPC  H14A99184   8.633   7.250  14.627
11968POPC  H14B99185   8.579   7.090  14.579
11968POPC  H14C99186   8.629   7.203  14.457
11968POPC   C1599187   8.357   7.167  14.453
11968POPC  H15A99188   8.398   7.170  14.352
11968POPC  H15B99189   8.255   7.202  14.445
11968POPC  H15C99190   8.359   7.062  14.483
11968POPC   C1199191   8.458   7.330  14.800
11968POPC  H11A99192   8.555   7.278  14.811
11968POPC  H11B99193   8.401   7.313  14.895
11968POPC     P99194   8.368   7.575  14.786
11968POPC   O1399195   8.301   7.582  14.916
11968POPC   O1499196   8.285   7.540  14.669
11968POPC   O1299197   8.486   7.469  14.784
11968POPC   O1199198   8.450   7.708  14.763
11968POPC    C199199   8.550   7.706  14.661
11968POPC    HA99200   8.588   7.605  14.631
11968POPC    HB99201   8.639   7.763  14.693
11968POPC    C299202   8.496   7.777  14.537
11968POPC    HS99203   8.455   7.875  14.574
11968POPC   O2199204   8.395   7.695  14.474
11968POPC   C2199205   8.305   7.766  14.410
11968POPC   O2299206   8.312   7.887  14.391
11968POPC   C2299207   8.187   7.678  14.373
11968POPC   H2R99208   8.098   7.742  14.388
11968POPC   H2S99209   8.177   7.596  14.448
11968POPC    C399210   8.610   7.802  14.440
11968POPC    HX99211   8.693   7.855  14.492
11968POPC    HY99212   8.566   7.871  14.365
11968POPC   O3199213   8.660   7.677  14.387
11968POPC   C3199214   8.638   7.663  14.257
11968POPC   O3299215   8.601   7.750  14.181
11968POPC   C3299216   8.663   7.518  14.218
11968POPC   H2X99217   8.566   7.466  14.212
11968POPC   H2Y99218   8.725   7.470  14.297
11968POPC   C2399219   8.190   7.623  14.229
11968POPC   H3R99220   8.234   7.697  14.159
11968POPC   H3S99221   8.084   7.604  14.198
11968POPC   C2499222   8.263   7.488  14.220
11968POPC   H4R99223   8.210   7.418  14.288
11968POPC   H4S99224   8.366   7.504  14.257
11968POPC   C2599225   8.269   7.425  14.080
11968POPC   H5R99226   8.338   7.483  14.015
11968POPC   H5S99227   8.167   7.428  14.033
11968POPC   C2699228   8.315   7.278  14.088
11968POPC   H6R99229   8.232   7.216  14.129
11968POPC   H6S99230   8.399   7.275  14.161
11968POPC   C2799231   8.368   7.213  13.958
11968POPC   H7R99232   8.428   7.124  13.988
11968POPC   H7S99233   8.437   7.283  13.905
11968POPC   C2899234   8.262   7.164  13.858
11968POPC   H8R99235   8.182   7.107  13.910
11968POPC   H8S99236   8.311   7.091  13.789
11968POPC   C2999237   8.205   7.279  13.780
11968POPC   H9199238   8.122   7.332  13.829
11968POPC  C21099239   8.250   7.322  13.661
11968POPC  H10199240   8.202   7.410  13.616
11968POPC  C21199241   8.366   7.268  13.581
11968POPC  H11R99242   8.427   7.196  13.640
11968POPC  H11S99243   8.433   7.352  13.555
11968POPC  C21299244   8.324   7.198  13.450
11968POPC  H12R99245   8.258   7.112  13.477
11968POPC  H12S99246   8.414   7.157  13.400
11968POPC  C21399247   8.248   7.289  13.352
11968POPC  H13R99248   8.182   7.358  13.407
11968POPC  H13S99249   8.183   7.224  13.289
11968POPC  C21499250   8.339   7.370  13.258
11968POPC  H14R99251   8.410   7.300  13.209
11968POPC  H14S99252   8.399   7.444  13.316
11968POPC  C21599253   8.258   7.441  13.149
11968POPC  H15R99254   8.188   7.368  13.104
11968POPC  H15S99255   8.327   7.473  13.068
11968POPC  C21699256   8.181   7.565  13.195
11968POPC  H16R99257   8.251   7.635  13.246
11968POPC  H16S99258   8.102   7.537  13.268
11968POPC  C21799259   8.116   7.638  13.077
11968POPC  H17R99260   8.198   7.665  13.007
11968POPC  H17S99261   8.069   7.732  13.110
11968POPC  C21899262   8.012   7.557  13.000
11968POPC  H18R99263   8.058   7.467  12.954
11968POPC  H18S99264   7.967   7.618  12.920
11968POPC  H18T99265   7.933   7.523  13.070
11968POPC   C3399266   8.735   7.509  14.083
11968POPC   H3X99267   8.808   7.425  14.087
11968POPC   H3Y99268   8.791   7.602  14.061
11968POPC   C3499269   8.644   7.483  13.962
11968POPC   H4X99270   8.576   7.569  13.946
11968POPC   H4Y99271   8.583   7.393  13.983
11968POPC   C3599272   8.731   7.459  13.838
11968POPC   H5X99273   8.799   7.373  13.859
11968POPC   H5Y99274   8.793   7.549  13.820
11968POPC   C3699275   8.654   7.428  13.710
11968POPC   H6X99276   8.593   7.518  13.683
11968POPC   H6Y99277   8.584   7.344  13.726
11968POPC   C3799278   8.750   7.395  13.594
11968POPC   H7X99279   8.778   7.288  13.598
11968POPC   H7Y99280   8.843   7.455  13.607
11968POPC   C3899281   8.689   7.430  13.459
11968POPC   H8X99282   8.652   7.535  13.464
11968POPC   H8Y99283   8.602   7.363  13.439
11968POPC   C3999284   8.786   7.417  13.341
11968POPC   H9X99285   8.825   7.312  13.338
11968POPC   H9Y99286   8.873   7.485  13.356
11968POPC  C31099287   8.718   7.448  13.207
11968POPC  H10X99288   8.637   7.374  13.190
11968POPC  H10Y99289   8.793   7.435  13.126
11968POPC  C31199290   8.658   7.590  13.198
11968POPC  H11X99291   8.739   7.665  13.213
11968POPC  H11Y99292   8.581   7.604  13.277
11968POPC  C31299293   8.591   7.613  13.063
11968POPC  H12X99294   8.524   7.526  13.046
11968POPC  H12Y99295   8.667   7.612  12.982
11968POPC  C31399296   8.507   7.741  13.051
11968POPC  H13X99297   8.570   7.830  13.068
11968POPC  H13Y99298   8.427   7.740  13.129
11968POPC  C31499299   8.441   7.745  12.912
11968POPC  H14X99300   8.386   7.649  12.901
11968POPC  H14Y99301   8.520   7.746  12.835
11968POPC  C31599302   8.341   7.858  12.886
11968POPC  H15X99303   8.340   7.924  12.974
11968POPC  H15Y99304   8.239   7.814  12.878
11968POPC  C31699305   8.362   7.945  12.762
11968POPC  H16X99306   8.406   7.889  12.677
11968POPC  H16Y99307   8.424   8.034  12.782
11968POPC  H16Z99308   8.263   7.983  12.731
11969POPC     N99309   8.173   1.795  14.677
11969POPC   C1299310   8.268   1.905  14.626
11969POPC  H12A99311   8.213   1.976  14.565
11969POPC  H12B99312   8.341   1.862  14.559
11969POPC   C1399313   8.085   1.851  14.783
11969POPC  H13A99314   8.146   1.897  14.860
11969POPC  H13B99315   8.017   1.926  14.743
11969POPC  H13C99316   8.026   1.774  14.830
11969POPC   C1499317   8.086   1.740  14.566
11969POPC  H14A99318   8.144   1.697  14.486
11969POPC  H14B99319   8.019   1.663  14.603
11969POPC  H14C99320   8.021   1.817  14.524
11969POPC   C1599321   8.253   1.684  14.739
11969POPC  H15A99322   8.323   1.643  14.668
11969POPC  H15B99323   8.191   1.606  14.778
11969POPC  H15C99324   8.313   1.726  14.821
11969POPC   C1199325   8.351   1.990  14.727
11969POPC  H11A99326   8.283   2.038  14.800
11969POPC  H11B99327   8.393   2.076  14.668
11969POPC     P99328   8.608   1.959  14.768
11969POPC   O1399329   8.705   1.876  14.846
11969POPC   O1499330   8.627   2.105  14.782
11969POPC   O1299331   8.454   1.916  14.797
11969POPC   O1199332   8.618   1.914  14.616
11969POPC    C199333   8.569   1.787  14.573
11969POPC    HA99334   8.477   1.754  14.624
11969POPC    HB99335   8.648   1.713  14.599
11969POPC    C299336   8.546   1.776  14.418
11969POPC    HS99337   8.629   1.832  14.369
11969POPC   O2199338   8.417   1.814  14.363
11969POPC   C2199339   8.390   1.941  14.340
11969POPC   O2299340   8.423   2.034  14.410
11969POPC   C2299341   8.297   1.963  14.218
11969POPC   H2R99342   8.305   2.072  14.199
11969POPC   H2S99343   8.193   1.941  14.249
11969POPC    C399344   8.560   1.627  14.378
11969POPC    HX99345   8.478   1.572  14.431
11969POPC    HY99346   8.656   1.584  14.412
11969POPC   O3199347   8.540   1.608  14.237
11969POPC   C3199348   8.643   1.644  14.161
11969POPC   O3299349   8.751   1.683  14.200
11969POPC   C3299350   8.605   1.604  14.019
11969POPC   H2X99351   8.497   1.577  14.016
11969POPC   H2Y99352   8.660   1.509  14.003
11969POPC   C2399353   8.324   1.895  14.080
11969POPC   H3R99354   8.300   1.786  14.083
11969POPC   H3S99355   8.431   1.904  14.051
11969POPC   C2499356   8.237   1.965  13.973
11969POPC   H4R99357   8.241   2.075  13.989
11969POPC   H4S99358   8.132   1.932  13.991
11969POPC   C2599359   8.269   1.943  13.824
11969POPC   H5R99360   8.356   2.003  13.792
11969POPC   H5S99361   8.184   1.984  13.765
11969POPC   C2699362   8.286   1.797  13.781
11969POPC   H6R99363   8.368   1.748  13.838
11969POPC   H6S99364   8.313   1.795  13.673
11969POPC   C2799365   8.155   1.720  13.803
11969POPC   H7R99366   8.072   1.794  13.812
11969POPC   H7S99367   8.161   1.666  13.900
11969POPC   C2899368   8.120   1.627  13.687
11969POPC   H8R99369   8.132   1.679  13.590
11969POPC   H8S99370   8.013   1.601  13.698
11969POPC   C2999371   8.202   1.502  13.699
11969POPC   H9199372   8.200   1.455  13.799
11969POPC  C21099373   8.275   1.443  13.603
11969POPC  H10199374   8.320   1.345  13.625
11969POPC  C21199375   8.290   1.489  13.461
11969POPC  H11R99376   8.191   1.496  13.411
11969POPC  H11S99377   8.346   1.409  13.406
11969POPC  C21299378   8.365   1.622  13.441
11969POPC  H12R99379   8.430   1.643  13.529
11969POPC  H12S99380   8.291   1.704  13.434
11969POPC  C21399381   8.454   1.621  13.315
11969POPC  H13R99382   8.528   1.539  13.326
11969POPC  H13S99383   8.510   1.717  13.308
11969POPC  C21499384   8.371   1.598  13.189
11969POPC  H14R99385   8.307   1.686  13.168
11969POPC  H14S99386   8.301   1.516  13.212
11969POPC  C21599387   8.447   1.560  13.061
11969POPC  H15R99388   8.369   1.542  12.983
11969POPC  H15S99389   8.502   1.465  13.075
11969POPC  C21699390   8.539   1.670  13.008
11969POPC  H16R99391   8.644   1.644  13.033
11969POPC  H16S99392   8.515   1.765  13.061
11969POPC  C21799393   8.520   1.694  12.858
11969POPC  H17R99394   8.580   1.783  12.829
11969POPC  H17S99395   8.413   1.721  12.841
11969POPC  C21899396   8.556   1.577  12.766
11969POPC  H18R99397   8.659   1.541  12.784
11969POPC  H18S99398   8.549   1.610  12.660
11969POPC  H18T99399   8.485   1.492  12.780
11969POPC   C3399400   8.639   1.698  13.901
11969POPC   H3X99401   8.564   1.682  13.820
11969POPC   H3Y99402   8.735   1.661  13.861
11969POPC   C3499403   8.661   1.848  13.922
11969POPC   H4X99404   8.771   1.866  13.924
11969POPC   H4Y99405   8.628   1.882  14.021
11969POPC   C3599406   8.606   1.932  13.806
11969POPC   H5X99407   8.547   2.014  13.848
11969POPC   H5Y99408   8.538   1.875  13.740
11969POPC   C3699409   8.723   1.985  13.723
11969POPC   H6X99410   8.775   1.890  13.702
11969POPC   H6Y99411   8.791   2.044  13.789
11969POPC   C3799412   8.694   2.066  13.595
11969POPC   H7X99413   8.792   2.082  13.545
11969POPC   H7Y99414   8.654   2.166  13.622
11969POPC   C3899415   8.598   2.008  13.490
11969POPC   H8X99416   8.494   2.010  13.531
11969POPC   H8Y99417   8.620   1.902  13.466
11969POPC   C3999418   8.605   2.093  13.362
11969POPC   H9X99419   8.629   2.031  13.273
11969POPC   H9Y99420   8.688   2.166  13.372
11969POPC  C31099421   8.477   2.173  13.341
11969POPC  H10X99422   8.493   2.250  13.263
11969POPC  H10Y99423   8.454   2.225  13.437
11969POPC  C31199424   8.357   2.086  13.302
11969POPC  H11X99425   8.264   2.148  13.305
11969POPC  H11Y99426   8.343   2.003  13.373
11969POPC  C31299427   8.374   2.030  13.161
11969POPC  H12X99428   8.469   1.972  13.155
11969POPC  H12Y99429   8.381   2.117  13.091
11969POPC  C31399430   8.260   1.940  13.116
11969POPC  H13X99431   8.237   1.869  13.198
11969POPC  H13Y99432   8.295   1.881  13.028
11969POPC  C31499433   8.134   2.018  13.080
11969POPC  H14X99434   8.160   2.098  13.007
11969POPC  H14Y99435   8.097   2.066  13.173
11969POPC  C31599436   8.023   1.930  13.021
11969POPC  H15X99437   7.930   1.991  13.018
11969POPC  H15Y99438   8.005   1.845  13.090
11969POPC  C31699439   8.052   1.878  12.880
11969POPC  H16X99440   7.978   1.800  12.851
11969POPC  H16Y99441   8.153   1.833  12.873
11969POPC  H16Z99442   8.046   1.960  12.806
11970POPC     N99443   0.362   2.325  14.575
11970POPC   C1299444   0.328   2.469  14.540
11970POPC  H12A99445   0.228   2.474  14.499
11970POPC  H12B99446   0.396   2.509  14.466
11970POPC   C1399447   0.499   2.323  14.636
11970POPC  H13A99448   0.571   2.377  14.576
11970POPC  H13B99449   0.495   2.378  14.730
11970POPC  H13C99450   0.534   2.222  14.655
11970POPC   C1499451   0.268   2.274  14.678
11970POPC  H14A99452   0.309   2.185  14.724
11970POPC  H14B99453   0.257   2.349  14.757
11970POPC  H14C99454   0.170   2.249  14.638
11970POPC   C1599455   0.362   2.236  14.455
11970POPC  H15A99456   0.442   2.266  14.387
11970POPC  H15B99457   0.269   2.242  14.402
11970POPC  H15C99458   0.381   2.132  14.483
11970POPC   C1199459   0.329   2.571  14.656
11970POPC  H11A99460   0.270   2.535  14.743
11970POPC  H11B99461   0.278   2.663  14.618
11970POPC     P99462   0.480   2.729  14.786
11970POPC   O1399463   0.623   2.754  14.807
11970POPC   O1499464   0.399   2.712  14.909
11970POPC   O1299465   0.463   2.599  14.696
11970POPC   O1199466   0.418   2.848  14.707
11970POPC    C199467   0.487   2.942  14.625
11970POPC    HA99468   0.592   2.960  14.659
11970POPC    HB99469   0.432   3.038  14.635
11970POPC    C299470   0.482   2.909  14.474
11970POPC    HS99471   0.470   3.005  14.418
11970POPC   O2199472   0.377   2.815  14.450
11970POPC   C2199473   0.265   2.870  14.412
11970POPC   O2299474   0.247   2.988  14.391
11970POPC   C2299475   0.163   2.758  14.383
11970POPC   H2R99476   0.073   2.776  14.443
11970POPC   H2S99477   0.209   2.662  14.412
11970POPC    C399478   0.609   2.844  14.416
11970POPC    HX99479   0.610   2.735  14.438
11970POPC    HY99480   0.698   2.891  14.465
11970POPC   O3199481   0.618   2.871  14.275
11970POPC   C3199482   0.542   2.800  14.194
11970POPC   O3299483   0.476   2.702  14.223
11970POPC   C3299484   0.562   2.856  14.052
11970POPC   H2X99485   0.664   2.828  14.021
11970POPC   H2Y99486   0.557   2.967  14.063
11970POPC   C2399487   0.131   2.749  14.232
11970POPC   H3R99488   0.227   2.753  14.176
11970POPC   H3S99489   0.072   2.838  14.202
11970POPC   C2499490   0.056   2.621  14.193
11970POPC   H4R99491  -0.052   2.646  14.180
11970POPC   H4S99492   0.062   2.548  14.276
11970POPC   C2599493   0.109   2.554  14.066
11970POPC   H5R99494   0.106   2.624  13.980
11970POPC   H5S99495   0.043   2.469  14.040
11970POPC   C2699496   0.250   2.496  14.078
11970POPC   H6R99497   0.262   2.445  14.177
11970POPC   H6S99498   0.325   2.578  14.074
11970POPC   C2799499   0.278   2.395  13.966
11970POPC   H7R99500   0.265   2.445  13.868
11970POPC   H7S99501   0.203   2.313  13.972
11970POPC   C2899502   0.418   2.331  13.973
11970POPC   H8R99503   0.420   2.251  13.896
11970POPC   H8S99504   0.431   2.279  14.071
11970POPC   C2999505   0.528   2.431  13.950
11970POPC   H9199506   0.569   2.477  14.041
11970POPC  C21099507   0.570   2.476  13.830
11970POPC  H10199508   0.651   2.549  13.827
11970POPC  C21199509   0.515   2.435  13.695
11970POPC  H11R99510   0.441   2.353  13.703
11970POPC  H11S99511   0.597   2.397  13.632
11970POPC  C21299512   0.446   2.554  13.625
11970POPC  H12R99513   0.523   2.631  13.603
11970POPC  H12S99514   0.370   2.599  13.693
11970POPC  C21399515   0.375   2.516  13.493
11970POPC  H13R99516   0.337   2.609  13.446
11970POPC  H13S99517   0.288   2.451  13.515
11970POPC  C21499518   0.470   2.445  13.395
11970POPC  H14R99519   0.498   2.346  13.437
11970POPC  H14S99520   0.561   2.507  13.388
11970POPC  C21599521   0.417   2.425  13.253
11970POPC  H15R99522   0.496   2.376  13.192
11970POPC  H15S99523   0.395   2.524  13.206
11970POPC  C21699524   0.292   2.339  13.248
11970POPC  H16R99525   0.210   2.393  13.299
11970POPC  H16S99526   0.308   2.243  13.303
11970POPC  C21799527   0.249   2.307  13.105
11970POPC  H17R99528   0.266   2.396  13.040
11970POPC  H17S99529   0.140   2.288  13.107
11970POPC  C21899530   0.319   2.184  13.046
11970POPC  H18R99531   0.278   2.158  12.947
11970POPC  H18S99532   0.306   2.097  13.114
11970POPC  H18T99533   0.428   2.203  13.035
11970POPC   C3399534   0.465   2.820  13.936
11970POPC   H3X99535   0.362   2.853  13.962
11970POPC   H3Y99536   0.462   2.711  13.915
11970POPC   C3499537   0.514   2.898  13.812
11970POPC   H4X99538   0.612   2.856  13.779
11970POPC   H4Y99539   0.533   3.002  13.848
11970POPC   C3599540   0.423   2.914  13.689
11970POPC   H5X99541   0.320   2.940  13.719
11970POPC   H5Y99542   0.418   2.820  13.630
11970POPC   C3699543   0.485   3.026  13.604
11970POPC   H6X99544   0.587   2.994  13.581
11970POPC   H6Y99545   0.493   3.118  13.668
11970POPC   C3799546   0.414   3.064  13.473
11970POPC   H7X99547   0.412   3.175  13.466
11970POPC   H7Y99548   0.310   3.031  13.481
11970POPC   C3899549   0.486   3.010  13.348
11970POPC   H8X99550   0.563   2.942  13.388
11970POPC   H8Y99551   0.540   3.094  13.297
11970POPC   C3999552   0.410   2.924  13.244
11970POPC   H9X99553   0.320   2.881  13.289
11970POPC   H9Y99554   0.475   2.837  13.220
11970POPC  C31099555   0.380   2.994  13.110
11970POPC  H10X99556   0.478   3.029  13.071
11970POPC  H10Y99557   0.320   3.085  13.124
11970POPC  C31199558   0.310   2.903  13.006
11970POPC  H11X99559   0.201   2.901  13.025
11970POPC  H11Y99560   0.351   2.799  13.015
11970POPC  C31299561   0.339   2.952  12.863
11970POPC  H12X99562   0.443   2.926  12.845
11970POPC  H12Y99563   0.330   3.062  12.863
11970POPC  C31399564   0.266   2.897  12.740
11970POPC  H13X99565   0.305   2.952  12.651
11970POPC  H13Y99566   0.161   2.927  12.749
11970POPC  C31499567   0.282   2.747  12.713
11970POPC  H14X99568   0.207   2.717  12.636
11970POPC  H14Y99569   0.261   2.688  12.804
11970POPC  C31599570   0.420   2.708  12.657
11970POPC  H15X99571   0.494   2.710  12.740
11970POPC  H15Y99572   0.451   2.784  12.582
11970POPC  C31699573   0.424   2.570  12.589
11970POPC  H16X99574   0.524   2.552  12.544
11970POPC  H16Y99575   0.348   2.565  12.508
11970POPC  H16Z99576   0.403   2.489  12.663
11971POPC     N99577   9.005   2.977  14.749
11971POPC   C1299578   9.138   2.899  14.751
11971POPC  H12A99579   9.124   2.801  14.793
11971POPC  H12B99580   9.207   2.952  14.817
11971POPC   C1399581   9.042   3.113  14.699
11971POPC  H13A99582   9.123   3.154  14.760
11971POPC  H13B99583   9.089   3.102  14.600
11971POPC  H13C99584   8.963   3.184  14.690
11971POPC   C1499585   8.906   2.921  14.655
11971POPC  H14A99586   8.828   2.991  14.631
11971POPC  H14B99587   8.956   2.894  14.563
11971POPC  H14C99588   8.859   2.829  14.688
11971POPC   C1599589   8.950   2.991  14.887
11971POPC  H15A99590   9.026   3.039  14.949
11971POPC  H15B99591   8.918   2.899  14.934
11971POPC  H15C99592   8.865   3.057  14.891
11971POPC   C1199593   9.214   2.885  14.616
11971POPC  H11A99594   9.147   2.837  14.541
11971POPC  H11B99595   9.300   2.814  14.629
11971POPC     P99596   9.380   3.085  14.638
11971POPC   O1399597   9.485   2.984  14.661
11971POPC   O1499598   9.320   3.146  14.760
11971POPC   O1299599   9.259   3.011  14.564
11971POPC   O1199600   9.429   3.201  14.543
11971POPC    C199601   9.346   3.285  14.464
11971POPC    HA99602   9.384   3.389  14.473
11971POPC    HB99603   9.241   3.287  14.502
11971POPC    C299604   9.348   3.247  14.312
11971POPC    HS99605   9.275   3.314  14.261
11971POPC   O2199606   9.315   3.110  14.289
11971POPC   C2199607   9.189   3.080  14.302
11971POPC   O2299608   9.097   3.156  14.327
11971POPC   C2299609   9.175   2.931  14.271
11971POPC   H2R99610   9.239   2.875  14.342
11971POPC   H2S99611   9.213   2.913  14.169
11971POPC    C399612   9.484   3.270  14.242
11971POPC    HX99613   9.560   3.211  14.298
11971POPC    HY99614   9.513   3.377  14.247
11971POPC   O3199615   9.469   3.230  14.103
11971POPC   C3199616   9.562   3.148  14.056
11971POPC   O3299617   9.669   3.122  14.106
11971POPC   C3299618   9.513   3.086  13.924
11971POPC   H2X99619   9.603   3.076  13.859
11971POPC   H2Y99620   9.441   3.154  13.875
11971POPC   C2399621   9.029   2.889  14.284
11971POPC   H3R99622   8.970   2.949  14.212
11971POPC   H3S99623   8.993   2.911  14.387
11971POPC   C2499624   9.001   2.742  14.252
11971POPC   H4R99625   8.917   2.710  14.319
11971POPC   H4S99626   9.088   2.678  14.276
11971POPC   C2599627   8.950   2.724  14.108
11971POPC   H5R99628   8.876   2.803  14.086
11971POPC   H5S99629   8.895   2.627  14.104
11971POPC   C2699630   9.062   2.724  14.002
11971POPC   H6R99631   9.141   2.652  14.031
11971POPC   H6S99632   9.110   2.823  13.996
11971POPC   C2799633   9.009   2.681  13.865
11971POPC   H7R99634   8.968   2.579  13.877
11971POPC   H7S99635   9.094   2.673  13.792
11971POPC   C2899636   8.901   2.775  13.809
11971POPC   H8R99637   8.823   2.797  13.885
11971POPC   H8S99638   8.847   2.724  13.727
11971POPC   C2999639   8.966   2.902  13.761
11971POPC   H9199640   8.992   2.977  13.838
11971POPC  C21099641   8.992   2.929  13.632
11971POPC  H10199642   9.041   3.024  13.605
11971POPC  C21199643   8.958   2.833  13.519
11971POPC  H11R99644   8.848   2.820  13.516
11971POPC  H11S99645   9.002   2.733  13.541
11971POPC  C21299646   9.001   2.865  13.373
11971POPC  H12R99647   8.945   2.796  13.306
11971POPC  H12S99648   9.109   2.842  13.361
11971POPC  C21399649   8.972   3.009  13.325
11971POPC  H13R99650   8.969   3.078  13.411
11971POPC  H13S99651   8.873   3.009  13.275
11971POPC  C21499652   9.077   3.072  13.233
11971POPC  H14R99653   9.166   3.078  13.297
11971POPC  H14S99654   9.049   3.177  13.209
11971POPC  C21599655   9.111   2.997  13.104
11971POPC  H15R99656   9.122   2.888  13.123
11971POPC  H15S99657   9.210   3.033  13.069
11971POPC  C21699658   9.011   3.025  12.990
11971POPC  H16R99659   9.065   3.020  12.893
11971POPC  H16S99660   8.973   3.129  13.001
11971POPC  C21799661   8.895   2.925  12.986
11971POPC  H17R99662   8.813   2.969  12.926
11971POPC  H17S99663   8.856   2.907  13.089
11971POPC  C21899664   8.936   2.793  12.922
11971POPC  H18R99665   8.980   2.815  12.823
11971POPC  H18S99666   8.849   2.725  12.907
11971POPC  H18T99667   9.011   2.739  12.984
11971POPC   C3399668   9.449   2.947  13.950
11971POPC   H3X99669   9.351   2.963  14.002
11971POPC   H3Y99670   9.515   2.891  14.019
11971POPC   C3499671   9.428   2.853  13.830
11971POPC   H4X99672   9.356   2.775  13.865
11971POPC   H4Y99673   9.522   2.800  13.805
11971POPC   C3599674   9.370   2.913  13.702
11971POPC   H5X99675   9.450   2.966  13.644
11971POPC   H5Y99676   9.294   2.989  13.728
11971POPC   C3699677   9.303   2.804  13.615
11971POPC   H6X99678   9.219   2.850  13.560
11971POPC   H6Y99679   9.260   2.725  13.680
11971POPC   C3799680   9.390   2.739  13.507
11971POPC   H7X99681   9.325   2.672  13.446
11971POPC   H7Y99682   9.467   2.675  13.556
11971POPC   C3899683   9.460   2.837  13.413
11971POPC   H8X99684   9.494   2.780  13.323
11971POPC   H8Y99685   9.549   2.871  13.468
11971POPC   C3999686   9.379   2.959  13.365
11971POPC   H9X99687   9.303   2.990  13.440
11971POPC   H9Y99688   9.324   2.928  13.273
11971POPC  C31099689   9.459   3.087  13.335
11971POPC  H10X99690   9.562   3.060  13.307
11971POPC  H10Y99691   9.465   3.152  13.424
11971POPC  C31199692   9.405   3.162  13.214
11971POPC  H11X99693   9.303   3.199  13.231
11971POPC  H11Y99694   9.405   3.090  13.129
11971POPC  C31299695   9.487   3.284  13.173
11971POPC  H12X99696   9.595   3.269  13.195
11971POPC  H12Y99697   9.454   3.370  13.235
11971POPC  C31399698   9.471   3.313  13.022
11971POPC  H13X99699   9.539   3.242  12.970
11971POPC  H13Y99700   9.507   3.416  13.002
11971POPC  C31499701   9.330   3.290  12.964
11971POPC  H14X99702   9.254   3.326  13.038
11971POPC  H14Y99703   9.313   3.181  12.949
11971POPC  C31599704   9.304   3.363  12.831
11971POPC  H15X99705   9.381   3.442  12.818
11971POPC  H15Y99706   9.205   3.413  12.836
11971POPC  C31699707   9.307   3.272  12.709
11971POPC  H16X99708   9.219   3.204  12.706
11971POPC  H16Y99709   9.399   3.209  12.713
11971POPC  H16Z99710   9.309   3.332  12.615
11972POPC     N99711   9.033   2.541  14.890
11972POPC   C1299712   9.086   2.545  14.748
11972POPC  H12A99713   9.194   2.532  14.749
11972POPC  H12B99714   9.065   2.643  14.705
11972POPC   C1399715   8.909   2.626  14.898
11972POPC  H13A99716   8.838   2.594  14.821
11972POPC  H13B99717   8.860   2.612  14.994
11972POPC  H13C99718   8.932   2.730  14.882
11972POPC   C1499719   8.987   2.401  14.921
11972POPC  H14A99720   8.916   2.373  14.842
11972POPC  H14B99721   9.066   2.329  14.919
11972POPC  H14C99722   8.935   2.398  15.015
11972POPC   C1599723   9.136   2.582  14.988
11972POPC  H15A99724   9.221   2.514  14.987
11972POPC  H15B99725   9.096   2.576  15.089
11972POPC  H15C99726   9.177   2.681  14.974
11972POPC   C1199727   9.023   2.443  14.651
11972POPC  H11A99728   9.062   2.341  14.672
11972POPC  H11B99729   9.058   2.468  14.547
11972POPC     P99730   8.795   2.521  14.558
11972POPC   O1399731   8.848   2.661  14.556
11972POPC   O1499732   8.652   2.507  14.587
11972POPC   O1299733   8.880   2.443  14.665
11972POPC   O1199734   8.841   2.436  14.432
11972POPC    C199735   8.816   2.292  14.440
11972POPC    HA99736   8.733   2.269  14.370
11972POPC    HB99737   8.781   2.255  14.540
11972POPC    C299738   8.939   2.204  14.402
11972POPC    HS99739   9.020   2.226  14.475
11972POPC   O2199740   8.973   2.233  14.267
11972POPC   C2199741   9.063   2.326  14.256
11972POPC   O2299742   9.147   2.356  14.340
11972POPC   C2299743   9.050   2.393  14.121
11972POPC   H2R99744   9.062   2.500  14.147
11972POPC   H2S99745   8.949   2.378  14.077
11972POPC    C399746   8.916   2.051  14.412
11972POPC    HX99747   8.919   2.018  14.518
11972POPC    HY99748   9.001   2.000  14.360
11972POPC   O3199749   8.790   2.015  14.355
11972POPC   C3199750   8.784   2.024  14.225
11972POPC   O3299751   8.871   1.999  14.143
11972POPC   C3299752   8.650   2.084  14.194
11972POPC   H2X99753   8.611   2.141  14.281
11972POPC   H2Y99754   8.579   2.002  14.174
11972POPC   C2399755   9.162   2.355  14.024
11972POPC   H3R99756   9.253   2.326  14.083
11972POPC   H3S99757   9.190   2.443  13.962
11972POPC   C2499758   9.126   2.241  13.929
11972POPC   H4R99759   9.053   2.276  13.853
11972POPC   H4S99760   9.073   2.164  13.988
11972POPC   C2599761   9.255   2.189  13.861
11972POPC   H5R99762   9.336   2.186  13.936
11972POPC   H5S99763   9.285   2.265  13.786
11972POPC   C2699764   9.250   2.052  13.791
11972POPC   H6R99765   9.258   1.966  13.860
11972POPC   H6S99766   9.343   2.042  13.730
11972POPC   C2799767   9.126   2.028  13.703
11972POPC   H7R99768   9.038   2.011  13.768
11972POPC   H7S99769   9.146   1.934  13.646
11972POPC   C2899770   9.095   2.136  13.600
11972POPC   H8R99771   9.052   2.226  13.649
11972POPC   H8S99772   9.020   2.098  13.527
11972POPC   C2999773   9.228   2.160  13.537
11972POPC   H9199774   9.281   2.066  13.516
11972POPC  C21099775   9.288   2.276  13.507
11972POPC  H10199776   9.390   2.274  13.466
11972POPC  C21199777   9.231   2.412  13.530
11972POPC  H11R99778   9.311   2.484  13.557
11972POPC  H11S99779   9.156   2.413  13.612
11972POPC  C21299780   9.165   2.455  13.397
11972POPC  H12R99781   9.127   2.559  13.407
11972POPC  H12S99782   9.077   2.389  13.377
11972POPC  C21399783   9.260   2.444  13.277
11972POPC  H13R99784   9.249   2.341  13.236
11972POPC  H13S99785   9.365   2.454  13.311
11972POPC  C21499786   9.236   2.551  13.169
11972POPC  H14R99787   9.271   2.649  13.209
11972POPC  H14S99788   9.126   2.560  13.151
11972POPC  C21599789   9.306   2.519  13.036
11972POPC  H15R99790   9.414   2.506  13.054
11972POPC  H15S99791   9.294   2.606  12.968
11972POPC  C21699792   9.244   2.396  12.968
11972POPC  H16R99793   9.160   2.429  12.908
11972POPC  H16S99794   9.194   2.334  13.044
11972POPC  C21799795   9.334   2.309  12.878
11972POPC  H17R99796   9.266   2.249  12.812
11972POPC  H17S99797   9.387   2.235  12.941
11972POPC  C21899798   9.437   2.382  12.792
11972POPC  H18R99799   9.502   2.447  12.855
11972POPC  H18S99800   9.388   2.446  12.716
11972POPC  H18T99801   9.502   2.308  12.740
11972POPC   C3399802   8.669   2.174  14.073
11972POPC   H3X99803   8.727   2.117  13.996
11972POPC   H3Y99804   8.729   2.264  14.098
11972POPC   C3499805   8.535   2.210  14.012
11972POPC   H4X99806   8.486   2.290  14.073
11972POPC   H4Y99807   8.471   2.120  14.015
11972POPC   C3599808   8.556   2.252  13.867
11972POPC   H5X99809   8.472   2.220  13.803
11972POPC   H5Y99810   8.649   2.204  13.830
11972POPC   C3699811   8.577   2.400  13.856
11972POPC   H6X99812   8.637   2.435  13.943
11972POPC   H6Y99813   8.474   2.444  13.865
11972POPC   C3799814   8.643   2.446  13.727
11972POPC   H7X99815   8.640   2.558  13.724
11972POPC   H7Y99816   8.584   2.409  13.641
11972POPC   C3899817   8.791   2.409  13.713
11972POPC   H8X99818   8.806   2.299  13.707
11972POPC   H8Y99819   8.843   2.442  13.805
11972POPC   C3999820   8.850   2.476  13.589
11972POPC   H9X99821   8.961   2.481  13.595
11972POPC   H9Y99822   8.813   2.581  13.585
11972POPC  C31099823   8.807   2.405  13.461
11972POPC  H10X99824   8.703   2.369  13.474
11972POPC  H10Y99825   8.871   2.316  13.445
11972POPC  C31199826   8.807   2.497  13.339
11972POPC  H11X99827   8.912   2.523  13.314
11972POPC  H11Y99828   8.754   2.592  13.363
11972POPC  C31299829   8.738   2.433  13.218
11972POPC  H12X99830   8.628   2.448  13.226
11972POPC  H12Y99831   8.757   2.323  13.217
11972POPC  C31399832   8.791   2.493  13.088
11972POPC  H13X99833   8.819   2.599  13.109
11972POPC  H13Y99834   8.713   2.494  13.009
11972POPC  C31499835   8.915   2.418  13.037
11972POPC  H14X99836   8.975   2.384  13.124
11972POPC  H14Y99837   8.977   2.490  12.980
11972POPC  C31599838   8.881   2.295  12.950
11972POPC  H15X99839   8.782   2.260  12.986
11972POPC  H15Y99840   8.953   2.214  12.971
11972POPC  C31699841   8.877   2.319  12.799
11972POPC  H16X99842   8.834   2.418  12.776
11972POPC  H16Y99843   8.817   2.241  12.747
11972POPC  H16Z99844   8.980   2.314  12.756
11973POPC     N99845   7.922   1.175  14.875
11973POPC   C1299846   7.793   1.247  14.838
11973POPC  H12A99847   7.790   1.343  14.887
11973POPC  H12B99848   7.711   1.188  14.877
11973POPC   C1399849   7.934   1.170  15.023
11973POPC  H13A99850   7.947   1.269  15.065
11973POPC  H13B99851   7.845   1.127  15.069
11973POPC  H13C99852   8.019   1.110  15.054
11973POPC   C1499853   7.917   1.033  14.826
11973POPC  H14A99854   7.882   1.032  14.723
11973POPC  H14B99855   8.015   0.987  14.830
11973POPC  H14C99856   7.847   0.974  14.883
11973POPC   C1599857   8.040   1.241  14.811
11973POPC  H15A99858   8.133   1.198  14.848
11973POPC  H15B99859   8.040   1.347  14.831
11973POPC  H15C99860   8.034   1.228  14.703
11973POPC   C1199861   7.764   1.271  14.689
11973POPC  H11A99862   7.847   1.331  14.644
11973POPC  H11B99863   7.670   1.330  14.679
11973POPC     P99864   7.795   1.115  14.481
11973POPC   O1399865   7.710   1.191  14.387
11973POPC   O1499866   7.799   0.967  14.469
11973POPC   O1299867   7.746   1.145  14.627
11973POPC   O1199868   7.946   1.167  14.488
11973POPC    C199869   8.042   1.103  14.401
11973POPC    HA99870   8.004   1.007  14.358
11973POPC    HB99871   8.132   1.076  14.460
11973POPC    C299872   8.085   1.192  14.282
11973POPC    HS99873   8.165   1.258  14.322
11973POPC   O2199874   7.973   1.269  14.235
11973POPC   C2199875   8.007   1.379  14.170
11973POPC   O2299876   8.119   1.426  14.166
11973POPC   C2299877   7.885   1.432  14.093
11973POPC   H2R99878   7.835   1.506  14.159
11973POPC   H2S99879   7.816   1.347  14.077
11973POPC    C399880   8.142   1.110  14.163
11973POPC    HX99881   8.235   1.061  14.193
11973POPC    HY99882   8.167   1.179  14.080
11973POPC   O3199883   8.052   1.003  14.127
11973POPC   C3199884   7.989   1.016  14.014
11973POPC   O3299885   8.007   1.103  13.930
11973POPC   C3299886   7.889   0.903  14.001
11973POPC   H2X99887   7.803   0.927  14.067
11973POPC   H2Y99888   7.935   0.808  14.037
11973POPC   C2399889   7.919   1.498  13.957
11973POPC   H3R99890   7.991   1.435  13.899
11973POPC   H3S99891   7.968   1.596  13.977
11973POPC   C2499892   7.795   1.523  13.869
11973POPC   H4R99893   7.820   1.595  13.788
11973POPC   H4S99894   7.718   1.572  13.933
11973POPC   C2599895   7.733   1.398  13.803
11973POPC   H5R99896   7.636   1.426  13.756
11973POPC   H5S99897   7.710   1.324  13.884
11973POPC   C2699898   7.819   1.326  13.697
11973POPC   H6R99899   7.769   1.228  13.674
11973POPC   H6S99900   7.919   1.302  13.738
11973POPC   C2799901   7.834   1.400  13.563
11973POPC   H7R99902   7.896   1.491  13.576
11973POPC   H7S99903   7.733   1.435  13.531
11973POPC   C2899904   7.892   1.314  13.447
11973POPC   H8R99905   7.896   1.380  13.357
11973POPC   H8S99906   7.816   1.237  13.428
11973POPC   C2999907   8.023   1.244  13.463
11973POPC   H9199908   8.098   1.303  13.516
11973POPC  C21099909   8.057   1.120  13.420
11973POPC  H10199910   8.157   1.084  13.444
11973POPC  C21199911   7.971   1.021  13.346
11973POPC  H11R99912   7.906   1.074  13.273
11973POPC  H11S99913   7.906   0.970  13.421
11973POPC  C21299914   8.046   0.911  13.268
11973POPC  H12R99915   8.118   0.866  13.339
11973POPC  H12S99916   8.103   0.958  13.184
11973POPC  C21399917   7.963   0.793  13.212
11973POPC  H13R99918   7.916   0.744  13.300
11973POPC  H13S99919   8.030   0.718  13.166
11973POPC  C21499920   7.854   0.823  13.108
11973POPC  H14R99921   7.793   0.910  13.139
11973POPC  H14S99922   7.786   0.735  13.102
11973POPC  C21599923   7.899   0.858  12.966
11973POPC  H15R99924   7.929   0.766  12.911
11973POPC  H15S99925   7.987   0.926  12.971
11973POPC  C21699926   7.785   0.931  12.892
11973POPC  H16R99927   7.752   1.018  12.954
11973POPC  H16S99928   7.697   0.864  12.884
11973POPC  C21799929   7.824   0.983  12.753
11973POPC  H17R99930   7.878   0.903  12.698
11973POPC  H17S99931   7.895   1.067  12.768
11973POPC  C21899932   7.706   1.032  12.669
11973POPC  H18R99933   7.742   1.080  12.576
11973POPC  H18S99934   7.645   1.106  12.726
11973POPC  H18T99935   7.641   0.947  12.641
11973POPC   C3399936   7.842   0.888  13.855
11973POPC   H3X99937   7.922   0.841  13.794
11973POPC   H3Y99938   7.822   0.989  13.811
11973POPC   C3499939   7.713   0.808  13.845
11973POPC   H4X99940   7.630   0.870  13.885
11973POPC   H4Y99941   7.721   0.717  13.909
11973POPC   C3599942   7.682   0.765  13.701
11973POPC   H5X99943   7.583   0.713  13.699
11973POPC   H5Y99944   7.760   0.693  13.668
11973POPC   C3699945   7.679   0.882  13.602
11973POPC   H6X99946   7.773   0.942  13.606
11973POPC   H6Y99947   7.595   0.949  13.629
11973POPC   C3799948   7.664   0.832  13.458
11973POPC   H7X99949   7.586   0.753  13.454
11973POPC   H7Y99950   7.757   0.778  13.431
11973POPC   C3899951   7.638   0.941  13.352
11973POPC   H8X99952   7.576   0.898  13.271
11973POPC   H8Y99953   7.735   0.965  13.308
11973POPC   C3999954   7.588   1.080  13.395
11973POPC   H9X99955   7.659   1.126  13.465
11973POPC   H9Y99956   7.498   1.065  13.455
11973POPC  C31099957   7.556   1.175  13.276
11973POPC  H10X99958   7.476   1.245  13.309
11973POPC  H10Y99959   7.518   1.114  13.191
11973POPC  C31199960   7.670   1.265  13.224
11973POPC  H11X99961   7.759   1.200  13.214
11973POPC  H11Y99962   7.688   1.343  13.301
11973POPC  C31299963   7.651   1.341  13.091
11973POPC  H12X99964   7.555   1.396  13.094
11973POPC  H12Y99965   7.646   1.267  13.007
11973POPC  C31399966   7.766   1.441  13.061
11973POPC  H13X99967   7.775   1.512  13.146
11973POPC  H13Y99968   7.742   1.500  12.970
11973POPC  C31499969   7.900   1.370  13.039
11973POPC  H14X99970   7.899   1.319  12.940
11973POPC  H14Y99971   7.909   1.289  13.115
11973POPC  C31599972   8.030   1.451  13.054
11973POPC  H15X99973   8.019   1.534  13.127
11973POPC  H15Y99974   8.059   1.495  12.956
11973POPC  C31699975   8.139   1.355  13.102
11973POPC  H16X99976   8.135   1.342  13.212
11973POPC  H16Y99977   8.240   1.388  13.072
11973POPC  H16Z99978   8.124   1.256  13.056
11974POPC     N99979   0.535   6.315  14.847
11974POPC   C1299980   0.667   6.267  14.787
11974POPC  H12A99981   0.722   6.215  14.863
11974POPC  H12B99982   0.724   6.357  14.762
11974POPC   C1399983   0.475   6.415  14.753
11974POPC  H13A99984   0.380   6.453  14.789
11974POPC  H13B99985   0.539   6.501  14.734
11974POPC  H13C99986   0.461   6.371  14.653
11974POPC   C1499987   0.439   6.201  14.864
11974POPC  H14A99988   0.345   6.235  14.907
11974POPC  H14B99989   0.417   6.159  14.766
11974POPC  H14C99990   0.480   6.124  14.927
11974POPC   C1599991   0.560   6.380  14.980
11974POPC  H15A99992   0.471   6.437  15.010
11974POPC  H15B99993   0.641   6.453  14.976
11974POPC  H15C99994   0.582   6.308  15.058
11974POPC   C1199995   0.665   6.183  14.656
11974POPC  H11A99996   0.600   6.093  14.669
11974POPC  H11B99997   0.768   6.144  14.635
11974POPC     P99998   0.709   6.372  14.482
11974POPC   O1399999   0.748   6.457  14.598
11974POPC   O14    0   0.641   6.434  14.367
11974POPC   O12    1   0.617   6.257  14.544
11974POPC   O11    2   0.837   6.291  14.428
11974POPC    C1    3   0.819   6.233  14.298
11974POPC    HA    4   0.815   6.309  14.217
11974POPC    HB    5   0.719   6.181  14.294
11974POPC    C2    6   0.927   6.126  14.264
11974POPC    HS    7   0.962   6.084  14.361
11974POPC   O21    8   1.039   6.178  14.187
11974POPC   C21    9   1.147   6.102  14.175
11974POPC   O22   10   1.173   6.007  14.247
11974POPC   C22   11   1.234   6.150  14.057
11974POPC   H2R   12   1.340   6.126  14.078
11974POPC   H2S   13   1.223   6.260  14.046
11974POPC    C3   14   0.855   6.013  14.187
11974POPC    HX   15   0.761   5.996  14.241
11974POPC    HY   16   0.911   5.920  14.195
11974POPC   O31   17   0.818   6.046  14.052
11974POPC   C31   18   0.863   5.960  13.962
11974POPC   O32   19   0.963   5.892  13.971
11974POPC   C32   20   0.764   5.957  13.848
11974POPC   H2X   21   0.775   6.049  13.788
11974POPC   H2Y   22   0.663   5.957  13.894
11974POPC   C23   23   1.185   6.079  13.928
11974POPC   H3R   24   1.075   6.096  13.928
11974POPC   H3S   25   1.204   5.969  13.936
11974POPC   C24   26   1.228   6.128  13.789
11974POPC   H4R   27   1.323   6.079  13.759
11974POPC   H4S   28   1.246   6.238  13.791
11974POPC   C25   29   1.114   6.093  13.690
11974POPC   H5R   30   1.019   6.131  13.734
11974POPC   H5S   31   1.106   5.982  13.684
11974POPC   C26   32   1.123   6.154  13.549
11974POPC   H6R   33   1.208   6.104  13.497
11974POPC   H6S   34   1.141   6.263  13.556
11974POPC   C27   35   0.996   6.129  13.467
11974POPC   H7R   36   0.908   6.143  13.533
11974POPC   H7S   37   1.008   6.022  13.439
11974POPC   C28   38   0.970   6.205  13.335
11974POPC   H8R   39   0.881   6.158  13.289
11974POPC   H8S   40   1.051   6.182  13.265
11974POPC   C29   41   0.949   6.353  13.344
11974POPC   H91   42   1.032   6.406  13.393
11974POPC  C210   43   0.845   6.424  13.294
11974POPC  H101   44   0.845   6.534  13.306
11974POPC  C211   45   0.726   6.371  13.218
11974POPC  H11R   46   0.633   6.409  13.267
11974POPC  H11S   47   0.719   6.260  13.222
11974POPC  C212   48   0.717   6.414  13.071
11974POPC  H12R   49   0.731   6.524  13.063
11974POPC  H12S   50   0.613   6.392  13.039
11974POPC  C213   51   0.809   6.347  12.967
11974POPC  H13R   52   0.839   6.245  12.997
11974POPC  H13S   53   0.897   6.413  12.960
11974POPC  C214   54   0.736   6.348  12.831
11974POPC  H14R   55   0.701   6.453  12.822
11974POPC  H14S   56   0.647   6.284  12.834
11974POPC  C215   57   0.805   6.315  12.698
11974POPC  H15R   58   0.786   6.209  12.673
11974POPC  H15S   59   0.915   6.330  12.702
11974POPC  C216   60   0.742   6.405  12.589
11974POPC  H16R   61   0.783   6.380  12.489
11974POPC  H16S   62   0.776   6.508  12.613
11974POPC  C217   63   0.588   6.400  12.585
11974POPC  H17R   64   0.543   6.493  12.548
11974POPC  H17S   65   0.542   6.387  12.686
11974POPC  C218   66   0.535   6.294  12.491
11974POPC  H18R   67   0.425   6.289  12.492
11974POPC  H18S   68   0.574   6.196  12.524
11974POPC  H18T   69   0.568   6.315  12.388
11974POPC   C33   70   0.778   5.830  13.762
11974POPC   H3X   71   0.774   5.739  13.826
11974POPC   H3Y   72   0.877   5.831  13.711
11974POPC   C34   73   0.665   5.825  13.659
11974POPC   H4X   74   0.620   5.926  13.652
11974POPC   H4Y   75   0.585   5.755  13.693
11974POPC   C35   76   0.714   5.786  13.519
11974POPC   H5X   77   0.632   5.744  13.458
11974POPC   H5Y   78   0.794   5.709  13.529
11974POPC   C36   79   0.772   5.907  13.447
11974POPC   H6X   80   0.850   5.940  13.517
11974POPC   H6Y   81   0.696   5.988  13.438
11974POPC   C37   82   0.831   5.875  13.309
11974POPC   H7X   83   0.893   5.785  13.319
11974POPC   H7Y   84   0.899   5.954  13.272
11974POPC   C38   85   0.723   5.856  13.204
11974POPC   H8X   86   0.634   5.818  13.257
11974POPC   H8Y   87   0.753   5.780  13.130
11974POPC   C39   88   0.689   5.989  13.135
11974POPC   H9X   89   0.779   6.032  13.086
11974POPC   H9Y   90   0.657   6.059  13.215
11974POPC  C310   91   0.577   5.976  13.032
11974POPC  H10X   92   0.503   5.903  13.070
11974POPC  H10Y   93   0.618   5.935  12.937
11974POPC  C311   94   0.503   6.107  13.004
11974POPC  H11X   95   0.433   6.088  12.920
11974POPC  H11Y   96   0.577   6.183  12.975
11974POPC  C312   97   0.424   6.159  13.124
11974POPC  H12X   98   0.490   6.203  13.202
11974POPC  H12Y   99   0.376   6.068  13.163
11974POPC  C313  100   0.304   6.249  13.095
11974POPC  H13X  101   0.243   6.257  13.188
11974POPC  H13Y  102   0.241   6.197  13.019
11974POPC  C314  103   0.336   6.390  13.047
11974POPC  H14X  104   0.397   6.383  12.954
11974POPC  H14Y  105   0.396   6.445  13.123
11974POPC  C315  106   0.204   6.463  13.018
11974POPC  H15X  107   0.169   6.514  13.111
11974POPC  H15Y  108   0.128   6.386  12.993
11974POPC  C316  109   0.208   6.561  12.902
11974POPC  H16X  110   0.255   6.514  12.813
11974POPC  H16Y  111   0.265   6.652  12.926
11974POPC  H16Z  112   0.105   6.593  12.875
11975POPC     N  113   0.879   1.677  14.857
11975POPC   C12  114   0.755   1.656  14.771
11975POPC  H12A  115   0.703   1.752  14.760
11975POPC  H12B  116   0.686   1.592  14.823
11975POPC   C13  117   0.840   1.688  15.001
11975POPC  H13A  118   0.814   1.591  15.042
11975POPC  H13B  119   0.921   1.729  15.060
11975POPC  H13C  120   0.755   1.754  15.012
11975POPC   C14  121   0.973   1.563  14.837
11975POPC  H14A  122   0.932   1.470  14.875
11975POPC  H14B  123   0.995   1.554  14.730
11975POPC  H14C  124   1.066   1.579  14.890
11975POPC   C15  125   0.944   1.805  14.814
11975POPC  H15A  126   0.876   1.888  14.830
11975POPC  H15B  127   0.962   1.801  14.706
11975POPC  H15C  128   1.036   1.827  14.867
11975POPC   C11  129   0.776   1.608  14.626
11975POPC  H11A  130   0.677   1.586  14.580
11975POPC  H11B  131   0.834   1.513  14.624
11975POPC     P  132   0.762   1.832  14.497
11975POPC   O13  133   0.856   1.940  14.461
11975POPC   O14  134   0.659   1.866  14.599
11975POPC   O12  135   0.846   1.708  14.552
11975POPC   O11  136   0.699   1.770  14.368
11975POPC    C1  137   0.789   1.732  14.262
11975POPC    HA  138   0.830   1.631  14.281
11975POPC    HB  139   0.875   1.802  14.249
11975POPC    C2  140   0.706   1.728  14.132
11975POPC    HS  141   0.765   1.683  14.050
11975POPC   O21  142   0.659   1.858  14.095
11975POPC   C21  143   0.751   1.943  14.058
11975POPC   O22  144   0.869   1.921  14.039
11975POPC   C22  145   0.683   2.076  14.029
11975POPC   H2R  146   0.749   2.158  14.064
11975POPC   H2S  147   0.586   2.082  14.084
11975POPC    C3  148   0.582   1.641  14.162
11975POPC    HX  149   0.529   1.683  14.250
11975POPC    HY  150   0.619   1.539  14.189
11975POPC   O31  151   0.488   1.638  14.054
11975POPC   C31  152   0.522   1.554  13.959
11975POPC   O32  153   0.603   1.464  13.968
11975POPC   C32  154   0.446   1.591  13.833
11975POPC   H2X  155   0.446   1.701  13.823
11975POPC   H2Y  156   0.342   1.555  13.844
11975POPC   C23  157   0.660   2.089  13.877
11975POPC   H3R  158   0.758   2.081  13.825
11975POPC   H3S  159   0.621   2.190  13.853
11975POPC   C24  160   0.560   1.984  13.824
11975POPC   H4R  161   0.463   1.996  13.876
11975POPC   H4S  162   0.598   1.882  13.845
11975POPC   C25  163   0.541   1.997  13.673
11975POPC   H5R  164   0.520   2.103  13.646
11975POPC   H5S  165   0.454   1.937  13.642
11975POPC   C26  166   0.662   1.946  13.595
11975POPC   H6R  167   0.679   1.838  13.617
11975POPC   H6S  168   0.752   2.002  13.630
11975POPC   C27  169   0.651   1.968  13.444
11975POPC   H7R  170   0.620   2.074  13.427
11975POPC   H7S  171   0.572   1.902  13.400
11975POPC   C28  172   0.786   1.949  13.375
11975POPC   H8R  173   0.858   2.018  13.425
11975POPC   H8S  174   0.777   1.987  13.270
11975POPC   C29  175   0.842   1.809  13.373
11975POPC   H91  176   0.804   1.744  13.292
11975POPC  C210  177   0.933   1.759  13.458
11975POPC  H101  178   0.972   1.657  13.439
11975POPC  C211  179   0.999   1.830  13.573
11975POPC  H11R  180   0.984   1.769  13.665
11975POPC  H11S  181   0.953   1.928  13.594
11975POPC  C212  182   1.150   1.853  13.556
11975POPC  H12R  183   1.202   1.758  13.537
11975POPC  H12S  184   1.187   1.889  13.655
11975POPC  C213  185   1.182   1.966  13.455
11975POPC  H13R  186   1.278   2.017  13.481
11975POPC  H13S  187   1.097   2.035  13.469
11975POPC  C214  188   1.181   1.933  13.305
11975POPC  H14R  189   1.139   1.831  13.296
11975POPC  H14S  190   1.285   1.930  13.267
11975POPC  C215  191   1.100   2.034  13.221
11975POPC  H15R  192   1.157   2.129  13.214
11975POPC  H15S  193   1.005   2.058  13.274
11975POPC  C216  194   1.061   1.987  13.079
11975POPC  H16R  195   1.152   1.970  13.019
11975POPC  H16S  196   1.006   2.070  13.029
11975POPC  C217  197   0.971   1.861  13.078
11975POPC  H17R  198   0.867   1.895  13.098
11975POPC  H17S  199   0.999   1.794  13.162
11975POPC  C218  200   0.974   1.774  12.953
11975POPC  H18R  201   0.996   1.834  12.863
11975POPC  H18S  202   0.877   1.721  12.939
11975POPC  H18T  203   1.051   1.695  12.962
11975POPC   C33  204   0.515   1.527  13.712
11975POPC   H3X  205   0.521   1.416  13.723
11975POPC   H3Y  206   0.619   1.567  13.709
11975POPC   C34  207   0.448   1.562  13.580
11975POPC   H4X  208   0.411   1.667  13.585
11975POPC   H4Y  209   0.361   1.495  13.565
11975POPC   C35  210   0.546   1.553  13.463
11975POPC   H5X  211   0.603   1.458  13.471
11975POPC   H5Y  212   0.618   1.637  13.470
11975POPC   C36  213   0.478   1.554  13.326
11975POPC   H6X  214   0.560   1.555  13.251
11975POPC   H6Y  215   0.419   1.647  13.312
11975POPC   C37  216   0.391   1.431  13.304
11975POPC   H7X  217   0.296   1.445  13.361
11975POPC   H7Y  218   0.441   1.342  13.347
11975POPC   C38  219   0.360   1.404  13.157
11975POPC   H8X  220   0.327   1.498  13.108
11975POPC   H8Y  221   0.275   1.332  13.150
11975POPC   C39  222   0.480   1.350  13.078
11975POPC   H9X  223   0.457   1.244  13.050
11975POPC   H9Y  224   0.570   1.347  13.142
11975POPC  C310  225   0.509   1.431  12.950
11975POPC  H10X  226   0.414   1.458  12.899
11975POPC  H10Y  227   0.565   1.363  12.881
11975POPC  C311  228   0.594   1.559  12.967
11975POPC  H11X  229   0.677   1.552  12.893
11975POPC  H11Y  230   0.641   1.560  13.067
11975POPC  C312  231   0.522   1.694  12.940
11975POPC  H12X  232   0.457   1.721  13.026
11975POPC  H12Y  233   0.456   1.683  12.851
11975POPC  C313  234   0.624   1.807  12.911
11975POPC  H13X  235   0.683   1.775  12.823
11975POPC  H13Y  236   0.693   1.812  12.998
11975POPC  C314  237   0.568   1.949  12.885
11975POPC  H14X  238   0.561   2.000  12.984
11975POPC  H14Y  239   0.465   1.941  12.844
11975POPC  C315  240   0.650   2.041  12.789
11975POPC  H15X  241   0.611   2.144  12.802
11975POPC  H15Y  242   0.630   2.015  12.683
11975POPC  C316  243   0.802   2.040  12.806
11975POPC  H16X  244   0.829   2.056  12.912
11975POPC  H16Y  245   0.848   2.120  12.745
11975POPC  H16Z  246   0.843   1.943  12.771
11976POPC     N  247   3.210  -0.150  14.599
11976POPC   C12  248   3.225  -0.100  14.743
11976POPC  H12A  249   3.220  -0.184  14.810
11976POPC  H12B  250   3.136  -0.040  14.765
11976POPC   C13  251   3.333  -0.218  14.549
11976POPC  H13A  252   3.370  -0.296  14.615
11976POPC  H13B  253   3.314  -0.264  14.453
11976POPC  H13C  254   3.411  -0.144  14.536
11976POPC   C14  255   3.094  -0.245  14.595
11976POPC  H14A  256   3.003  -0.195  14.628
11976POPC  H14B  257   3.077  -0.281  14.494
11976POPC  H14C  258   3.108  -0.332  14.658
11976POPC   C15  259   3.181  -0.035  14.507
11976POPC  H15A  260   3.269   0.030  14.502
11976POPC  H15B  261   3.101   0.027  14.544
11976POPC  H15C  262   3.158  -0.068  14.407
11976POPC   C11  263   3.349  -0.016  14.778
11976POPC  H11A  264   3.441  -0.078  14.767
11976POPC  H11B  265   3.344   0.015  14.885
11976POPC     P  266   3.446   0.222  14.708
11976POPC   O13  267   3.524   0.206  14.832
11976POPC   O14  268   3.363   0.344  14.693
11976POPC   O12  269   3.351   0.098  14.694
11976POPC   O11  270   3.550   0.212  14.592
11976POPC    C1  271   3.593   0.091  14.528
11976POPC    HA  272   3.552   0.000  14.577
11976POPC    HB  273   3.704   0.085  14.533
11976POPC    C2  274   3.554   0.092  14.378
11976POPC    HS  275   3.614   0.175  14.333
11976POPC   O21  276   3.411   0.116  14.373
11976POPC   C21  277   3.378   0.204  14.280
11976POPC   O22  278   3.451   0.244  14.191
11976POPC   C22  279   3.236   0.253  14.307
11976POPC   H2R  280   3.235   0.287  14.413
11976POPC   H2S  281   3.167   0.167  14.297
11976POPC    C3  282   3.592  -0.040  14.304
11976POPC    HX  283   3.528  -0.124  14.339
11976POPC    HY  284   3.696  -0.065  14.336
11976POPC   O31  285   3.594  -0.028  14.160
11976POPC   C31  286   3.480  -0.057  14.098
11976POPC   O32  287   3.377  -0.093  14.152
11976POPC   C32  288   3.498  -0.044  13.947
11976POPC   H2X  289   3.604  -0.062  13.922
11976POPC   H2Y  290   3.472   0.060  13.918
11976POPC   C23  291   3.191   0.369  14.215
11976POPC   H3R  292   3.276   0.436  14.190
11976POPC   H3S  293   3.116   0.430  14.271
11976POPC   C24  294   3.122   0.323  14.086
11976POPC   H4R  295   3.068   0.411  14.044
11976POPC   H4S  296   3.046   0.245  14.108
11976POPC   C25  297   3.219   0.270  13.979
11976POPC   H5R  298   3.272   0.180  14.017
11976POPC   H5S  299   3.297   0.348  13.959
11976POPC   C26  300   3.152   0.234  13.846
11976POPC   H6R  301   3.078   0.152  13.862
11976POPC   H6S  302   3.230   0.195  13.776
11976POPC   C27  303   3.081   0.353  13.780
11976POPC   H7R  304   3.152   0.438  13.772
11976POPC   H7S  305   2.997   0.386  13.845
11976POPC   C28  306   3.021   0.318  13.642
11976POPC   H8R  307   2.947   0.396  13.615
11976POPC   H8S  308   2.964   0.223  13.654
11976POPC   C29  309   3.126   0.311  13.535
11976POPC   H91  310   3.186   0.403  13.524
11976POPC  C210  311   3.152   0.207  13.454
11976POPC  H101  312   3.233   0.218  13.381
11976POPC  C211  313   3.081   0.074  13.452
11976POPC  H11R  314   2.985   0.076  13.507
11976POPC  H11S  315   3.144  -0.002  13.503
11976POPC  C212  316   3.054   0.024  13.308
11976POPC  H12R  317   2.985   0.094  13.255
11976POPC  H12S  318   3.003  -0.075  13.315
11976POPC  C213  319   3.182   0.008  13.226
11976POPC  H13R  320   3.253  -0.043  13.293
11976POPC  H13S  321   3.225   0.107  13.201
11976POPC  C214  322   3.171  -0.076  13.098
11976POPC  H14R  323   3.144  -0.180  13.127
11976POPC  H14S  324   3.270  -0.081  13.050
11976POPC  C215  325   3.070  -0.022  12.996
11976POPC  H15R  326   2.969  -0.038  13.039
11976POPC  H15S  327   3.077  -0.083  12.903
11976POPC  C216  328   3.083   0.126  12.960
11976POPC  H16R  329   3.074   0.189  13.052
11976POPC  H16S  330   2.999   0.154  12.893
11976POPC  C217  331   3.214   0.159  12.888
11976POPC  H17R  332   3.224   0.091  12.800
11976POPC  H17S  333   3.299   0.138  12.957
11976POPC  C218  334   3.222   0.304  12.841
11976POPC  H18R  335   3.208   0.373  12.927
11976POPC  H18S  336   3.142   0.324  12.766
11976POPC  H18T  337   3.320   0.324  12.795
11976POPC   C33  338   3.409  -0.146  13.872
11976POPC   H3X  339   3.302  -0.114  13.882
11976POPC   H3Y  340   3.418  -0.246  13.919
11976POPC   C34  341   3.444  -0.160  13.724
11976POPC   H4X  342   3.371  -0.231  13.678
11976POPC   H4Y  343   3.545  -0.205  13.713
11976POPC   C35  344   3.439  -0.027  13.648
11976POPC   H5X  345   3.530   0.033  13.667
11976POPC   H5Y  346   3.352   0.031  13.687
11976POPC   C36  347   3.416  -0.046  13.497
11976POPC   H6X  348   3.393   0.053  13.453
11976POPC   H6Y  349   3.326  -0.111  13.484
11976POPC   C37  350   3.531  -0.109  13.418
11976POPC   H7X  351   3.552  -0.210  13.457
11976POPC   H7Y  352   3.623  -0.047  13.429
11976POPC   C38  353   3.493  -0.120  13.269
11976POPC   H8X  354   3.473  -0.017  13.230
11976POPC   H8Y  355   3.400  -0.180  13.260
11976POPC   C39  356   3.597  -0.189  13.182
11976POPC   H9X  357   3.616  -0.290  13.224
11976POPC   H9Y  358   3.692  -0.131  13.188
11976POPC  C310  359   3.553  -0.205  13.036
11976POPC  H10X  360   3.456  -0.261  13.034
11976POPC  H10Y  361   3.628  -0.266  12.981
11976POPC  C311  362   3.536  -0.072  12.962
11976POPC  H11X  363   3.459  -0.009  13.012
11976POPC  H11Y  364   3.498  -0.095  12.860
11976POPC  C312  365   3.666   0.008  12.953
11976POPC  H12X  366   3.742  -0.052  12.899
11976POPC  H12Y  367   3.706   0.029  13.055
11976POPC  C313  368   3.646   0.143  12.884
11976POPC  H13X  369   3.742   0.198  12.875
11976POPC  H13Y  370   3.579   0.205  12.948
11976POPC  C314  371   3.582   0.133  12.746
11976POPC  H14X  372   3.574   0.239  12.716
11976POPC  H14Y  373   3.478   0.095  12.757
11976POPC  C315  374   3.652   0.048  12.637
11976POPC  H15X  375   3.575   0.024  12.561
11976POPC  H15Y  376   3.685  -0.049  12.679
11976POPC  C316  377   3.769   0.114  12.562
11976POPC  H16X  378   3.744   0.217  12.530
11976POPC  H16Y  379   3.795   0.054  12.472
11976POPC  H16Z  380   3.859   0.118  12.626
11977POPC     N  381   6.857   8.893  14.876
11977POPC   C12  382   6.772   8.877  14.751
11977POPC  H12A  383   6.683   8.819  14.773
11977POPC  H12B  384   6.829   8.822  14.677
11977POPC   C13  385   6.979   8.974  14.845
11977POPC  H13A  386   6.949   9.060  14.783
11977POPC  H13B  387   7.029   9.009  14.934
11977POPC  H13C  388   7.050   8.920  14.784
11977POPC   C14  389   6.770   8.965  14.975
11977POPC  H14A  390   6.731   9.055  14.929
11977POPC  H14B  391   6.689   8.901  15.009
11977POPC  H14C  392   6.825   9.000  15.063
11977POPC   C15  393   6.901   8.763  14.935
11977POPC  H15A  394   6.967   8.708  14.870
11977POPC  H15B  395   6.818   8.695  14.956
11977POPC  H15C  396   6.954   8.778  15.028
11977POPC   C11  397   6.729   9.010  14.684
11977POPC  H11A  398   6.681   9.082  14.754
11977POPC  H11B  399   6.655   8.990  14.605
11977POPC     P  400   6.850   9.187  14.530
11977POPC   O13  401   6.940   9.285  14.593
11977POPC   O14  402   6.714   9.226  14.488
11977POPC   O12  403   6.844   9.065  14.628
11977POPC   O11  404   6.925   9.117  14.410
11977POPC    C1  405   7.023   9.014  14.429
11977POPC    HA  406   7.044   8.994  14.537
11977POPC    HB  407   7.120   9.047  14.388
11977POPC    C2  408   6.982   8.875  14.367
11977POPC    HS  409   7.036   8.798  14.427
11977POPC   O21  410   7.017   8.861  14.228
11977POPC   C21  411   7.147   8.854  14.204
11977POPC   O22  412   7.233   8.841  14.290
11977POPC   C22  413   7.169   8.859  14.054
11977POPC   H2R  414   7.084   8.915  14.009
11977POPC   H2S  415   7.163   8.754  14.022
11977POPC    C3  416   6.830   8.841  14.379
11977POPC    HX  417   6.798   8.852  14.484
11977POPC    HY  418   6.823   8.733  14.352
11977POPC   O31  419   6.746   8.916  14.288
11977POPC   C31  420   6.618   8.932  14.317
11977POPC   O32  421   6.563   8.905  14.423
11977POPC   C32  422   6.543   8.980  14.195
11977POPC   H2X  423   6.588   9.075  14.160
11977POPC   H2Y  424   6.440   8.999  14.231
11977POPC   C23  425   7.304   8.919  14.008
11977POPC   H3R  426   7.312   8.901  13.899
11977POPC   H3S  427   7.388   8.865  14.058
11977POPC   C24  428   7.322   9.070  14.031
11977POPC   H4R  429   7.414   9.102  13.977
11977POPC   H4S  430   7.341   9.088  14.140
11977POPC   C25  431   7.204   9.158  13.987
11977POPC   H5R  432   7.136   9.101  13.920
11977POPC   H5S  433   7.241   9.245  13.929
11977POPC   C26  434   7.126   9.213  14.108
11977POPC   H6R  435   7.186   9.295  14.154
11977POPC   H6S  436   7.115   9.134  14.185
11977POPC   C27  437   6.987   9.268  14.075
11977POPC   H7R  438   6.994   9.339  13.990
11977POPC   H7S  439   6.953   9.325  14.165
11977POPC   C28  440   6.883   9.159  14.046
11977POPC   H8R  441   6.877   9.091  14.134
11977POPC   H8S  442   6.917   9.097  13.960
11977POPC   C29  443   6.749   9.223  14.021
11977POPC   H91  444   6.701   9.261  14.113
11977POPC  C210  445   6.684   9.236  13.903
11977POPC  H101  446   6.585   9.284  13.903
11977POPC  C211  447   6.733   9.188  13.769
11977POPC  H11R  448   6.815   9.113  13.780
11977POPC  H11S  449   6.775   9.273  13.710
11977POPC  C212  450   6.621   9.120  13.687
11977POPC  H12R  451   6.539   9.191  13.665
11977POPC  H12S  452   6.577   9.039  13.749
11977POPC  C213  453   6.672   9.055  13.557
11977POPC  H13R  454   6.618   8.959  13.544
11977POPC  H13S  455   6.780   9.030  13.566
11977POPC  C214  456   6.647   9.138  13.430
11977POPC  H14R  457   6.706   9.232  13.434
11977POPC  H14S  458   6.539   9.164  13.426
11977POPC  C215  459   6.682   9.061  13.302
11977POPC  H15R  460   6.636   8.959  13.308
11977POPC  H15S  461   6.792   9.047  13.294
11977POPC  C216  462   6.629   9.130  13.175
11977POPC  H16R  463   6.685   9.224  13.158
11977POPC  H16S  464   6.522   9.157  13.191
11977POPC  C217  465   6.638   9.041  13.049
11977POPC  H17R  466   6.674   8.940  13.080
11977POPC  H17S  467   6.715   9.084  12.980
11977POPC  C218  468   6.506   9.025  12.975
11977POPC  H18R  469   6.468   9.123  12.940
11977POPC  H18S  470   6.429   8.979  13.040
11977POPC  H18T  471   6.519   8.961  12.885
11977POPC   C33  472   6.534   8.873  14.084
11977POPC   H3X  473   6.453   8.901  14.013
11977POPC   H3Y  474   6.506   8.776  14.130
11977POPC   C34  475   6.663   8.856  14.002
11977POPC   H4X  476   6.754   8.858  14.066
11977POPC   H4Y  477   6.670   8.941  13.931
11977POPC   C35  478   6.663   8.723  13.926
11977POPC   H5X  479   6.565   8.713  13.875
11977POPC   H5Y  480   6.673   8.638  13.997
11977POPC   C36  481   6.775   8.717  13.822
11977POPC   H6X  482   6.780   8.817  13.774
11977POPC   H6Y  483   6.749   8.645  13.742
11977POPC   C37  484   6.909   8.676  13.884
11977POPC   H7X  485   6.901   8.571  13.923
11977POPC   H7Y  486   6.928   8.742  13.971
11977POPC   C38  487   7.029   8.685  13.788
11977POPC   H8X  488   7.029   8.596  13.722
11977POPC   H8Y  489   7.123   8.675  13.844
11977POPC   C39  490   7.031   8.816  13.707
11977POPC   H9X  491   7.024   8.900  13.780
11977POPC   H9Y  492   6.941   8.821  13.642
11977POPC  C310  493   7.153   8.838  13.618
11977POPC  H10X  494   7.148   8.774  13.527
11977POPC  H10Y  495   7.245   8.810  13.674
11977POPC  C311  496   7.167   8.986  13.576
11977POPC  H11X  497   7.265   9.001  13.525
11977POPC  H11Y  498   7.169   9.048  13.669
11977POPC  C312  499   7.053   9.038  13.487
11977POPC  H12X  500   6.996   9.114  13.545
11977POPC  H12Y  501   6.982   8.956  13.462
11977POPC  C313  502   7.101   9.104  13.356
11977POPC  H13X  503   7.204   9.144  13.369
11977POPC  H13Y  504   7.034   9.191  13.334
11977POPC  C314  505   7.095   9.010  13.235
11977POPC  H14X  506   6.990   8.979  13.217
11977POPC  H14Y  507   7.155   8.919  13.255
11977POPC  C315  508   7.148   9.078  13.108
11977POPC  H15X  509   7.256   9.101  13.121
11977POPC  H15Y  510   7.095   9.175  13.095
11977POPC  C316  511   7.130   8.996  12.981
11977POPC  H16X  512   7.172   9.051  12.894
11977POPC  H16Y  513   7.022   8.977  12.961
11977POPC  H16Z  514   7.181   8.898  12.989
11978POPC     N  515   2.156   8.716  14.874
11978POPC   C12  516   2.222   8.829  14.796
11978POPC  H12A  517   2.312   8.791  14.751
11978POPC  H12B  518   2.248   8.905  14.868
11978POPC   C13  519   2.131   8.597  14.787
11978POPC  H13A  520   2.071   8.630  14.700
11978POPC  H13B  521   2.221   8.556  14.746
11978POPC  H13C  522   2.070   8.525  14.838
11978POPC   C14  523   2.236   8.685  14.997
11978POPC  H14A  524   2.333   8.643  14.973
11978POPC  H14B  525   2.257   8.775  15.056
11978POPC  H14C  526   2.185   8.617  15.065
11978POPC   C15  527   2.020   8.766  14.911
11978POPC  H15A  528   1.966   8.701  14.976
11978POPC  H15B  529   1.960   8.782  14.819
11978POPC  H15C  530   2.023   8.865  14.957
11978POPC   C11  531   2.140   8.899  14.683
11978POPC  H11A  532   2.209   8.970  14.632
11978POPC  H11B  533   2.060   8.961  14.729
11978POPC     P  534   1.937   8.788  14.548
11978POPC   O13  535   1.854   8.887  14.618
11978POPC   O14  536   1.910   8.644  14.574
11978POPC   O12  537   2.090   8.806  14.589
11978POPC   O11  538   1.942   8.814  14.392
11978POPC    C1  539   2.057   8.772  14.318
11978POPC    HA  540   2.047   8.665  14.290
11978POPC    HB  541   2.153   8.784  14.375
11978POPC    C2  542   2.078   8.860  14.192
11978POPC    HS  543   2.087   8.964  14.233
11978POPC   O21  544   1.968   8.843  14.099
11978POPC   C21  545   1.939   8.956  14.034
11978POPC   O22  546   1.997   9.061  14.050
11978POPC   C22  547   1.828   8.934  13.929
11978POPC   H2R  548   1.748   9.007  13.952
11978POPC   H2S  549   1.787   8.832  13.939
11978POPC    C3  550   2.213   8.826  14.123
11978POPC    HX  551   2.200   8.732  14.064
11978POPC    HY  552   2.291   8.808  14.201
11978POPC   O31  553   2.254   8.937  14.043
11978POPC   C31  554   2.349   8.915  13.956
11978POPC   O32  555   2.408   8.810  13.940
11978POPC   C32  556   2.361   9.038  13.869
11978POPC   H2X  557   2.461   9.084  13.884
11978POPC   H2Y  558   2.282   9.110  13.897
11978POPC   C23  559   1.886   8.960  13.787
11978POPC   H3R  560   1.951   8.873  13.762
11978POPC   H3S  561   1.949   9.051  13.796
11978POPC   C24  562   1.792   8.989  13.668
11978POPC   H4R  563   1.718   9.065  13.703
11978POPC   H4S  564   1.737   8.898  13.639
11978POPC   C25  565   1.864   9.048  13.543
11978POPC   H5R  566   1.909   8.969  13.480
11978POPC   H5S  567   1.942   9.121  13.574
11978POPC   C26  568   1.770   9.111  13.442
11978POPC   H6R  569   1.700   9.166  13.505
11978POPC   H6S  570   1.716   9.028  13.392
11978POPC   C27  571   1.830   9.207  13.336
11978POPC   H7R  572   1.940   9.206  13.346
11978POPC   H7S  573   1.800   9.312  13.355
11978POPC   C28  574   1.782   9.178  13.193
11978POPC   H8R  575   1.679   9.213  13.176
11978POPC   H8S  576   1.780   9.067  13.184
11978POPC   C29  577   1.866   9.236  13.084
11978POPC   H91  578   1.822   9.313  13.018
11978POPC  C210  579   1.990   9.193  13.064
11978POPC  H101  580   2.046   9.234  12.981
11978POPC  C211  581   2.057   9.085  13.146
11978POPC  H11R  582   1.994   9.049  13.230
11978POPC  H11S  583   2.149   9.122  13.194
11978POPC  C212  584   2.090   8.956  13.073
11978POPC  H12R  585   1.995   8.901  13.055
11978POPC  H12S  586   2.137   8.894  13.151
11978POPC  C213  587   2.155   8.964  12.934
11978POPC  H13R  588   2.089   9.029  12.872
11978POPC  H13S  589   2.149   8.861  12.894
11978POPC  C214  590   2.301   9.007  12.906
11978POPC  H14R  591   2.326   9.107  12.943
11978POPC  H14S  592   2.307   9.014  12.794
11978POPC  C215  593   2.409   8.908  12.948
11978POPC  H15R  594   2.508   8.945  12.913
11978POPC  H15S  595   2.387   8.814  12.895
11978POPC  C216  596   2.412   8.876  13.097
11978POPC  H16R  597   2.311   8.859  13.133
11978POPC  H16S  598   2.445   8.966  13.150
11978POPC  C217  599   2.471   8.740  13.134
11978POPC  H17R  600   2.526   8.740  13.230
11978POPC  H17S  601   2.548   8.722  13.062
11978POPC  C218  602   2.363   8.630  13.135
11978POPC  H18R  603   2.324   8.613  13.032
11978POPC  H18S  604   2.277   8.662  13.197
11978POPC  H18T  605   2.398   8.534  13.176
11978POPC   C33  606   2.338   8.996  13.724
11978POPC   H3X  607   2.423   8.930  13.700
11978POPC   H3Y  608   2.342   9.085  13.657
11978POPC   C34  609   2.200   8.927  13.710
11978POPC   H4X  610   2.133   9.012  13.738
11978POPC   H4Y  611   2.184   8.846  13.783
11978POPC   C35  612   2.153   8.874  13.573
11978POPC   H5X  613   2.199   8.923  13.485
11978POPC   H5Y  614   2.051   8.912  13.576
11978POPC   C36  615   2.118   8.725  13.552
11978POPC   H6X  616   2.022   8.700  13.604
11978POPC   H6Y  617   2.195   8.661  13.599
11978POPC   C37  618   2.105   8.687  13.402
11978POPC   H7X  619   2.134   8.580  13.391
11978POPC   H7Y  620   2.180   8.748  13.348
11978POPC   C38  621   1.966   8.708  13.338
11978POPC   H8X  622   1.945   8.817  13.337
11978POPC   H8Y  623   1.889   8.659  13.401
11978POPC   C39  624   1.949   8.654  13.193
11978POPC   H9X  625   1.952   8.543  13.196
11978POPC   H9Y  626   2.032   8.689  13.129
11978POPC  C310  627   1.815   8.698  13.127
11978POPC  H10X  628   1.820   8.803  13.092
11978POPC  H10Y  629   1.737   8.695  13.207
11978POPC  C311  630   1.767   8.606  13.013
11978POPC  H11X  631   1.655   8.612  13.012
11978POPC  H11Y  632   1.793   8.501  13.036
11978POPC  C312  633   1.810   8.645  12.870
11978POPC  H12X  634   1.792   8.753  12.861
11978POPC  H12Y  635   1.743   8.593  12.798
11978POPC  C313  636   1.956   8.621  12.830
11978POPC  H13X  637   1.989   8.526  12.877
11978POPC  H13Y  638   2.019   8.699  12.876
11978POPC  C314  639   1.980   8.610  12.676
11978POPC  H14X  640   1.910   8.541  12.626
11978POPC  H14Y  641   2.081   8.567  12.661
11978POPC  C315  642   1.969   8.738  12.594
11978POPC  H15X  643   1.862   8.761  12.576
11978POPC  H15Y  644   2.017   8.718  12.495
11978POPC  C316  645   2.036   8.857  12.659
11978POPC  H16X  646   2.143   8.836  12.679
11978POPC  H16Y  647   1.986   8.878  12.755
11978POPC  H16Z  648   2.029   8.948  12.596
11979POPC     N  649   8.216   8.327  14.622
11979POPC   C12  650   8.149   8.241  14.515
11979POPC  H12A  651   8.225   8.197  14.451
11979POPC  H12B  652   8.087   8.304  14.454
11979POPC   C13  653   8.276   8.235  14.723
11979POPC  H13A  654   8.319   8.289  14.805
11979POPC  H13B  655   8.198   8.169  14.761
11979POPC  H13C  656   8.356   8.174  14.680
11979POPC   C14  657   8.320   8.416  14.563
11979POPC  H14A  658   8.360   8.481  14.639
11979POPC  H14B  659   8.407   8.359  14.528
11979POPC  H14C  660   8.280   8.475  14.481
11979POPC   C15  661   8.107   8.408  14.686
11979POPC  H15A  662   8.074   8.487  14.622
11979POPC  H15B  663   8.135   8.445  14.783
11979POPC  H15C  664   8.021   8.340  14.700
11979POPC   C11  665   8.060   8.123  14.566
11979POPC  H11A  666   8.129   8.043  14.602
11979POPC  H11B  667   8.004   8.082  14.479
11979POPC     P  668   7.904   8.046  14.758
11979POPC   O13  669   7.772   8.085  14.814
11979POPC   O14  670   8.007   8.003  14.856
11979POPC   O12  671   7.967   8.163  14.669
11979POPC   O11  672   7.894   7.934  14.649
11979POPC    C1  673   7.795   7.834  14.635
11979POPC    HA  674   7.736   7.820  14.729
11979POPC    HB  675   7.845   7.737  14.615
11979POPC    C2  676   7.699   7.870  14.519
11979POPC    HS  677   7.631   7.782  14.503
11979POPC   O21  678   7.762   7.908  14.396
11979POPC   C21  679   7.844   7.822  14.347
11979POPC   O22  680   7.852   7.704  14.375
11979POPC   C22  681   7.924   7.888  14.234
11979POPC   H2R  682   8.032   7.886  14.260
11979POPC   H2S  683   7.893   7.993  14.222
11979POPC    C3  684   7.613   7.991  14.558
11979POPC    HX  685   7.586   7.980  14.665
11979POPC    HY  686   7.524   7.986  14.491
11979POPC   O31  687   7.687   8.113  14.540
11979POPC   C31  688   7.612   8.218  14.521
11979POPC   O32  689   7.489   8.218  14.523
11979POPC   C32  690   7.700   8.331  14.471
11979POPC   H2X  691   7.785   8.344  14.541
11979POPC   H2Y  692   7.639   8.423  14.471
11979POPC   C23  693   7.896   7.805  14.108
11979POPC   H3R  694   7.794   7.832  14.072
11979POPC   H3S  695   7.892   7.696  14.135
11979POPC   C24  696   8.000   7.812  13.996
11979POPC   H4R  697   7.952   7.777  13.902
11979POPC   H4S  698   8.080   7.739  14.018
11979POPC   C25  699   8.065   7.947  13.967
11979POPC   H5R  700   8.077   8.009  14.059
11979POPC   H5S  701   8.001   8.004  13.897
11979POPC   C26  702   8.204   7.922  13.907
11979POPC   H6R  703   8.198   7.841  13.831
11979POPC   H6S  704   8.272   7.886  13.988
11979POPC   C27  705   8.268   8.045  13.843
11979POPC   H7R  706   8.376   8.022  13.828
11979POPC   H7S  707   8.262   8.130  13.915
11979POPC   C28  708   8.205   8.083  13.708
11979POPC   H8R  709   8.097   8.104  13.720
11979POPC   H8S  710   8.213   7.995  13.639
11979POPC   C29  711   8.276   8.202  13.651
11979POPC   H91  712   8.227   8.299  13.669
11979POPC  C210  713   8.393   8.200  13.585
11979POPC  H101  714   8.433   8.294  13.546
11979POPC  C211  715   8.476   8.078  13.552
11979POPC  H11R  716   8.434   7.984  13.596
11979POPC  H11S  717   8.579   8.089  13.594
11979POPC  C212  718   8.487   8.059  13.400
11979POPC  H12R  719   8.557   7.975  13.378
11979POPC  H12S  720   8.530   8.151  13.354
11979POPC  C213  721   8.352   8.026  13.336
11979POPC  H13R  722   8.272   8.088  13.381
11979POPC  H13S  723   8.328   7.920  13.357
11979POPC  C214  724   8.348   8.051  13.185
11979POPC  H14R  725   8.258   7.997  13.147
11979POPC  H14S  726   8.439   8.008  13.138
11979POPC  C215  727   8.335   8.199  13.146
11979POPC  H15R  728   8.429   8.251  13.176
11979POPC  H15S  729   8.251   8.245  13.203
11979POPC  C216  730   8.313   8.224  12.996
11979POPC  H16R  731   8.395   8.176  12.939
11979POPC  H16S  732   8.320   8.333  12.979
11979POPC  C217  733   8.177   8.180  12.940
11979POPC  H17R  734   8.097   8.227  13.001
11979POPC  H17S  735   8.166   8.070  12.948
11979POPC  C218  736   8.152   8.224  12.795
11979POPC  H18R  737   8.158   8.335  12.788
11979POPC  H18S  738   8.051   8.192  12.763
11979POPC  H18T  739   8.227   8.182  12.724
11979POPC   C33  740   7.753   8.302  14.328
11979POPC   H3X  741   7.836   8.228  14.331
11979POPC   H3Y  742   7.794   8.398  14.287
11979POPC   C34  743   7.643   8.250  14.235
11979POPC   H4X  744   7.551   8.308  14.259
11979POPC   H4Y  745   7.620   8.142  14.254
11979POPC   C35  746   7.668   8.274  14.086
11979POPC   H5X  747   7.722   8.370  14.075
11979POPC   H5Y  748   7.569   8.286  14.037
11979POPC   C36  749   7.737   8.164  14.006
11979POPC   H6X  750   7.815   8.113  14.066
11979POPC   H6Y  751   7.788   8.214  13.921
11979POPC   C37  752   7.635   8.064  13.950
11979POPC   H7X  753   7.551   8.121  13.903
11979POPC   H7Y  754   7.593   8.005  14.034
11979POPC   C38  755   7.691   7.970  13.843
11979POPC   H8X  756   7.614   7.895  13.815
11979POPC   H8Y  757   7.778   7.916  13.885
11979POPC   C39  758   7.738   8.040  13.716
11979POPC   H9X  759   7.816   8.116  13.739
11979POPC   H9Y  760   7.652   8.093  13.667
11979POPC  C310  761   7.797   7.939  13.619
11979POPC  H10X  762   7.719   7.864  13.591
11979POPC  H10Y  763   7.881   7.884  13.669
11979POPC  C311  764   7.851   8.006  13.493
11979POPC  H11X  765   7.937   8.070  13.522
11979POPC  H11Y  766   7.773   8.071  13.447
11979POPC  C312  767   7.898   7.902  13.392
11979POPC  H12X  768   7.812   7.868  13.330
11979POPC  H12Y  769   7.938   7.813  13.445
11979POPC  C313  770   8.009   7.959  13.304
11979POPC  H13X  771   8.043   7.883  13.232
11979POPC  H13Y  772   8.095   7.981  13.371
11979POPC  C314  773   7.971   8.087  13.229
11979POPC  H14X  774   8.058   8.112  13.165
11979POPC  H14Y  775   7.960   8.171  13.302
11979POPC  C315  776   7.845   8.079  13.142
11979POPC  H15X  777   7.833   8.176  13.089
11979POPC  H15Y  778   7.756   8.067  13.209
11979POPC  C316  779   7.846   7.965  13.040
11979POPC  H16X  780   7.754   7.968  12.977
11979POPC  H16Y  781   7.849   7.866  13.090
11979POPC  H16Z  782   7.935   7.973  12.975
11980POPC     N  783   7.535   0.377  14.606
11980POPC   C12  784   7.464   0.510  14.626
11980POPC  H12A  785   7.382   0.517  14.556
11980POPC  H12B  786   7.530   0.591  14.602
11980POPC   C13  787   7.449   0.260  14.643
11980POPC  H13A  788   7.398   0.282  14.738
11980POPC  H13B  789   7.373   0.240  14.569
11980POPC  H13C  790   7.510   0.171  14.657
11980POPC   C14  791   7.578   0.357  14.465
11980POPC  H14A  792   7.621   0.257  14.452
11980POPC  H14B  793   7.496   0.365  14.394
11980POPC  H14C  794   7.655   0.427  14.436
11980POPC   C15  795   7.657   0.373  14.694
11980POPC  H15A  796   7.729   0.449  14.665
11980POPC  H15B  797   7.704   0.276  14.688
11980POPC  H15C  798   7.627   0.387  14.797
11980POPC   C11  799   7.399   0.533  14.763
11980POPC  H11A  800   7.372   0.641  14.772
11980POPC  H11B  801   7.474   0.516  14.844
11980POPC     P  802   7.139   0.500  14.748
11980POPC   O13  803   7.142   0.641  14.789
11980POPC   O14  804   7.045   0.413  14.824
11980POPC   O12  805   7.286   0.444  14.778
11980POPC   O11  806   7.118   0.491  14.590
11980POPC    C1  807   7.181   0.397  14.504
11980POPC    HA  808   7.154   0.292  14.533
11980POPC    HB  809   7.289   0.404  14.503
11980POPC    C2  810   7.142   0.415  14.354
11980POPC    HS  811   7.197   0.336  14.298
11980POPC   O21  812   7.169   0.547  14.296
11980POPC   C21  813   7.294   0.562  14.249
11980POPC   O22  814   7.382   0.479  14.263
11980POPC   C22  815   7.321   0.706  14.193
11980POPC   H2R  816   7.425   0.731  14.224
11980POPC   H2S  817   7.252   0.768  14.252
11980POPC    C3  818   6.991   0.382  14.346
11980POPC    HX  819   6.937   0.444  14.421
11980POPC    HY  820   6.975   0.276  14.376
11980POPC   O31  821   6.937   0.408  14.217
11980POPC   C31  822   6.988   0.332  14.121
11980POPC   O32  823   7.066   0.240  14.135
11980POPC   C32  824   6.933   0.373  13.989
11980POPC   H2X  825   6.854   0.450  14.006
11980POPC   H2Y  826   6.890   0.284  13.938
11980POPC   C23  827   7.301   0.757  14.045
11980POPC   H3R  828   7.198   0.729  14.015
11980POPC   H3S  829   7.374   0.711  13.976
11980POPC   C24  830   7.317   0.913  14.041
11980POPC   H4R  831   7.424   0.935  14.065
11980POPC   H4S  832   7.262   0.950  14.130
11980POPC   C25  833   7.278   1.012  13.924
11980POPC   H5R  834   7.365   1.029  13.858
11980POPC   H5S  835   7.260   1.107  13.980
11980POPC   C26  836   7.150   0.992  13.838
11980POPC   H6R  837   7.080   0.950  13.910
11980POPC   H6S  838   7.178   0.918  13.764
11980POPC   C27  839   7.085   1.106  13.752
11980POPC   H7R  840   7.174   1.157  13.708
11980POPC   H7S  841   7.032   1.176  13.819
11980POPC   C28  842   6.986   1.084  13.627
11980POPC   H8R  843   7.045   1.057  13.540
11980POPC   H8S  844   6.951   1.186  13.602
11980POPC   C29  845   6.860   0.998  13.622
11980POPC   H91  846   6.793   1.017  13.706
11980POPC  C210  847   6.817   0.912  13.525
11980POPC  H101  848   6.729   0.852  13.551
11980POPC  C211  849   6.882   0.874  13.393
11980POPC  H11R  850   6.984   0.912  13.397
11980POPC  H11S  851   6.832   0.928  13.309
11980POPC  C212  852   6.885   0.721  13.358
11980POPC  H12R  853   6.779   0.695  13.351
11980POPC  H12S  854   6.921   0.659  13.441
11980POPC  C213  855   6.952   0.666  13.227
11980POPC  H13R  856   7.062   0.674  13.231
11980POPC  H13S  857   6.916   0.724  13.139
11980POPC  C214  858   6.915   0.516  13.209
11980POPC  H14R  859   6.805   0.506  13.197
11980POPC  H14S  860   6.942   0.464  13.305
11980POPC  C215  861   6.977   0.433  13.095
11980POPC  H15R  862   6.944   0.327  13.111
11980POPC  H15S  863   7.088   0.432  13.101
11980POPC  C216  864   6.933   0.469  12.952
11980POPC  H16R  865   6.983   0.563  12.921
11980POPC  H16S  866   6.823   0.487  12.951
11980POPC  C217  867   6.962   0.357  12.852
11980POPC  H17R  868   6.900   0.268  12.880
11980POPC  H17S  869   7.069   0.327  12.861
11980POPC  C218  870   6.933   0.392  12.706
11980POPC  H18R  871   6.837   0.447  12.697
11980POPC  H18S  872   6.926   0.300  12.644
11980POPC  H18T  873   7.014   0.454  12.663
11980POPC   C33  874   7.040   0.433  13.899
11980POPC   H3X  875   7.089   0.521  13.947
11980POPC   H3Y  876   6.975   0.464  13.815
11980POPC   C34  877   7.143   0.340  13.835
11980POPC   H4X  878   7.085   0.266  13.775
11980POPC   H4Y  879   7.201   0.285  13.912
11980POPC   C35  880   7.243   0.413  13.741
11980POPC   H5X  881   7.297   0.492  13.797
11980POPC   H5Y  882   7.188   0.462  13.658
11980POPC   C36  883   7.345   0.318  13.677
11980POPC   H6X  884   7.411   0.277  13.756
11980POPC   H6Y  885   7.409   0.375  13.607
11980POPC   C37  886   7.278   0.201  13.603
11980POPC   H7X  887   7.221   0.139  13.676
11980POPC   H7Y  888   7.356   0.134  13.562
11980POPC   C38  889   7.182   0.244  13.490
11980POPC   H8X  890   7.096   0.301  13.532
11980POPC   H8Y  891   7.142   0.153  13.440
11980POPC   C39  892   7.250   0.333  13.384
11980POPC   H9X  893   7.267   0.433  13.428
11980POPC   H9Y  894   7.180   0.347  13.298
11980POPC  C310  895   7.382   0.273  13.333
11980POPC  H10X  896   7.360   0.171  13.295
11980POPC  H10Y  897   7.455   0.263  13.417
11980POPC  C311  898   7.449   0.354  13.223
11980POPC  H11X  899   7.377   0.359  13.137
11980POPC  H11Y  900   7.539   0.301  13.187
11980POPC  C312  901   7.488   0.498  13.262
11980POPC  H12X  902   7.596   0.500  13.292
11980POPC  H12Y  903   7.430   0.532  13.350
11980POPC  C313  904   7.463   0.596  13.148
11980POPC  H13X  905   7.488   0.699  13.180
11980POPC  H13Y  906   7.355   0.594  13.122
11980POPC  C314  907   7.546   0.560  13.024
11980POPC  H14X  908   7.532   0.453  12.997
11980POPC  H14Y  909   7.653   0.574  13.048
11980POPC  C315  910   7.509   0.643  12.902
11980POPC  H15X  911   7.500   0.751  12.930
11980POPC  H15Y  912   7.409   0.610  12.864
11980POPC  C316  913   7.614   0.625  12.794
11980POPC  H16X  914   7.712   0.665  12.826
11980POPC  H16Y  915   7.583   0.677  12.701
11980POPC  H16Z  916   7.628   0.517  12.773
11981POPC     N  917   2.398   0.344  14.752
11981POPC   C12  918   2.391   0.315  14.602
11981POPC  H12A  919   2.416   0.403  14.545
11981POPC  H12B  920   2.288   0.287  14.579
11981POPC   C13  921   2.324   0.235  14.825
11981POPC  H13A  922   2.217   0.239  14.811
11981POPC  H13B  923   2.357   0.138  14.785
11981POPC  H13C  924   2.345   0.236  14.931
11981POPC   C14  925   2.539   0.340  14.803
11981POPC  H14A  926   2.580   0.239  14.792
11981POPC  H14B  927   2.604   0.408  14.749
11981POPC  H14C  928   2.543   0.364  14.909
11981POPC   C15  929   2.335   0.475  14.784
11981POPC  H15A  930   2.333   0.489  14.892
11981POPC  H15B  931   2.233   0.481  14.748
11981POPC  H15C  932   2.388   0.558  14.740
11981POPC   C11  933   2.475   0.198  14.548
11981POPC  H11A  934   2.583   0.222  14.555
11981POPC  H11B  935   2.450   0.181  14.440
11981POPC     P  936   2.509  -0.054  14.603
11981POPC   O13  937   2.503  -0.125  14.733
11981POPC   O14  938   2.644  -0.032  14.546
11981POPC   O12  939   2.441   0.084  14.625
11981POPC   O11  940   2.411  -0.122  14.500
11981POPC    C1  941   2.461  -0.216  14.405
11981POPC    HA  942   2.401  -0.309  14.414
11981POPC    HB  943   2.568  -0.244  14.421
11981POPC    C2  944   2.444  -0.164  14.261
11981POPC    HS  945   2.470  -0.249  14.193
11981POPC   O21  946   2.524  -0.045  14.237
11981POPC   C21  947   2.613  -0.056  14.140
11981POPC   O22  948   2.641  -0.156  14.077
11981POPC   C22  949   2.673   0.083  14.113
11981POPC   H2R  950   2.768   0.069  14.057
11981POPC   H2S  951   2.697   0.129  14.210
11981POPC    C3  952   2.297  -0.127  14.235
11981POPC    HX  953   2.273  -0.037  14.298
11981POPC    HY  954   2.230  -0.210  14.266
11981POPC   O31  955   2.284  -0.103  14.095
11981POPC   C31  956   2.205  -0.006  14.057
11981POPC   O32  957   2.127   0.058  14.125
11981POPC   C32  958   2.236   0.019  13.910
11981POPC   H2X  959   2.158  -0.032  13.851
11981POPC   H2Y  960   2.335  -0.027  13.886
11981POPC   C23  961   2.575   0.172  14.033
11981POPC   H3R  962   2.476   0.166  14.085
11981POPC   H3S  963   2.560   0.133  13.930
11981POPC   C24  964   2.613   0.321  14.029
11981POPC   H4R  965   2.654   0.349  14.128
11981POPC   H4S  966   2.520   0.381  14.014
11981POPC   C25  967   2.714   0.359  13.920
11981POPC   H5R  968   2.795   0.282  13.917
11981POPC   H5S  969   2.762   0.456  13.947
11981POPC   C26  970   2.655   0.376  13.779
11981POPC   H6R  971   2.607   0.282  13.744
11981POPC   H6S  972   2.740   0.397  13.710
11981POPC   C27  973   2.555   0.493  13.767
11981POPC   H7R  974   2.590   0.576  13.833
11981POPC   H7S  975   2.455   0.462  13.804
11981POPC   C28  976   2.544   0.550  13.624
11981POPC   H8R  977   2.645   0.583  13.591
11981POPC   H8S  978   2.481   0.642  13.627
11981POPC   C29  979   2.483   0.450  13.530
11981POPC   H91  980   2.375   0.434  13.544
11981POPC  C210  981   2.546   0.378  13.436
11981POPC  H101  982   2.486   0.308  13.377
11981POPC  C211  983   2.693   0.377  13.402
11981POPC  H11R  984   2.747   0.459  13.453
11981POPC  H11S  985   2.705   0.395  13.293
11981POPC  C212  986   2.764   0.245  13.439
11981POPC  H12R  987   2.754   0.226  13.548
11981POPC  H12S  988   2.872   0.261  13.417
11981POPC  C213  989   2.721   0.119  13.363
11981POPC  H13R  990   2.625   0.083  13.403
11981POPC  H13S  991   2.794   0.038  13.384
11981POPC  C214  992   2.713   0.139  13.211
11981POPC  H14R  993   2.802   0.198  13.178
11981POPC  H14S  994   2.623   0.199  13.186
11981POPC  C215  995   2.710   0.008  13.131
11981POPC  H15R  996   2.620  -0.050  13.159
11981POPC  H15S  997   2.799  -0.054  13.155
11981POPC  C216  998   2.705   0.036  12.980
11981POPC  H16R  999   2.800   0.081  12.944
11981POPC  H16S 1000   2.628   0.114  12.968
11981POPC  C217 1001   2.669  -0.087  12.895
11981POPC  H17R 1002   2.615  -0.052  12.805
11981POPC  H17S 1003   2.599  -0.152  12.952
11981POPC  C218 1004   2.785  -0.167  12.839
11981POPC  H18R 1005   2.756  -0.273  12.823
11981POPC  H18S 1006   2.872  -0.164  12.906
11981POPC  H18T 1007   2.817  -0.125  12.741
11981POPC   C33 1008   2.248   0.168  13.873
11981POPC   H3X 1009   2.321   0.219  13.940
11981POPC   H3Y 1010   2.150   0.220  13.884
11981POPC   C34 1011   2.298   0.179  13.730
11981POPC   H4X 1012   2.383   0.108  13.716
11981POPC   H4Y 1013   2.337   0.281  13.709
11981POPC   C35 1014   2.185   0.147  13.632
11981POPC   H5X 1015   2.102   0.218  13.651
11981POPC   H5Y 1016   2.147   0.043  13.650
11981POPC   C36 1017   2.225   0.159  13.486
11981POPC   H6X 1018   2.242   0.266  13.461
11981POPC   H6Y 1019   2.137   0.123  13.427
11981POPC   C37 1020   2.350   0.079  13.451
11981POPC   H7X 1021   2.338  -0.027  13.485
11981POPC   H7Y 1022   2.439   0.120  13.505
11981POPC   C38 1023   2.377   0.080  13.301
11981POPC   H8X 1024   2.467   0.017  13.281
11981POPC   H8Y 1025   2.396   0.182  13.261
11981POPC   C39 1026   2.261   0.021  13.225
11981POPC   H9X 1027   2.173   0.089  13.225
11981POPC   H9Y 1028   2.232  -0.070  13.281
11981POPC  C310 1029   2.299  -0.015  13.081
11981POPC  H10X 1030   2.259  -0.117  13.068
11981POPC  H10Y 1031   2.409  -0.022  13.067
11981POPC  C311 1032   2.234   0.073  12.974
11981POPC  H11X 1033   2.285   0.171  12.966
11981POPC  H11Y 1034   2.129   0.094  13.007
11981POPC  C312 1035   2.224   0.000  12.839
11981POPC  H12X 1036   2.149   0.050  12.776
11981POPC  H12Y 1037   2.186  -0.103  12.854
11981POPC  C313 1038   2.355  -0.018  12.761
11981POPC  H13X 1039   2.336  -0.067  12.664
11981POPC  H13Y 1040   2.415  -0.091  12.819
11981POPC  C314 1041   2.440   0.108  12.743
11981POPC  H14X 1042   2.525   0.084  12.675
11981POPC  H14Y 1043   2.481   0.133  12.843
11981POPC  C315 1044   2.377   0.238  12.694
11981POPC  H15X 1045   2.299   0.272  12.766
11981POPC  H15Y 1046   2.330   0.224  12.595
11981POPC  C316 1047   2.488   0.344  12.685
11981POPC  H16X 1048   2.570   0.307  12.620
11981POPC  H16Y 1049   2.531   0.362  12.786
11981POPC  H16Z 1050   2.449   0.440  12.645
11982POPC     N 1051   1.074   1.034  14.863
11982POPC   C12 1052   1.043   1.115  14.738
11982POPC  H12A 1053   1.128   1.184  14.725
11982POPC  H12B 1054   0.954   1.173  14.751
11982POPC   C13 1055   1.223   1.032  14.878
11982POPC  H13A 1056   1.265   1.001  14.782
11982POPC  H13B 1057   1.264   1.130  14.898
11982POPC  H13C 1058   1.251   0.960  14.953
11982POPC   C14 1059   1.010   1.085  14.987
11982POPC  H14A 1060   1.027   1.190  15.003
11982POPC  H14B 1061   0.902   1.069  14.983
11982POPC  H14C 1062   1.044   1.031  15.075
11982POPC   C15 1063   1.031   0.891  14.843
11982POPC  H15A 1064   1.061   0.860  14.743
11982POPC  H15B 1065   0.926   0.875  14.858
11982POPC  H15C 1066   1.083   0.827  14.914
11982POPC   C11 1067   1.037   1.039  14.602
11982POPC  H11A 1068   1.018   1.115  14.522
11982POPC  H11B 1069   0.950   0.970  14.602
11982POPC     P 1070   1.281   1.051  14.523
11982POPC   O13 1071   1.399   0.962  14.517
11982POPC   O14 1072   1.287   1.173  14.607
11982POPC   O12 1073   1.157   0.964  14.577
11982POPC   O11 1074   1.230   1.089  14.378
11982POPC    C1 1075   1.242   0.999  14.267
11982POPC    HA 1076   1.158   0.926  14.269
11982POPC    HB 1077   1.338   0.941  14.271
11982POPC    C2 1078   1.238   1.074  14.130
11982POPC    HS 1079   1.337   1.122  14.116
11982POPC   O21 1080   1.130   1.169  14.131
11982POPC   C21 1081   1.165   1.289  14.175
11982POPC   O22 1082   1.278   1.330  14.195
11982POPC   C22 1083   1.039   1.375  14.186
11982POPC   H2R 1084   1.066   1.472  14.233
11982POPC   H2S 1085   0.969   1.325  14.255
11982POPC    C3 1086   1.217   0.975  14.011
11982POPC    HX 1087   1.122   0.920  14.031
11982POPC    HY 1088   1.300   0.901  14.016
11982POPC   O31 1089   1.221   1.040  13.882
11982POPC   C31 1090   1.116   1.024  13.802
11982POPC   O32 1091   1.012   0.969  13.832
11982POPC   C32 1092   1.150   1.077  13.662
11982POPC   H2X 1093   1.254   1.049  13.636
11982POPC   H2Y 1094   1.144   1.187  13.668
11982POPC   C23 1095   0.972   1.400  14.049
11982POPC   H3R 1096   0.871   1.444  14.064
11982POPC   H3S 1097   0.957   1.302  13.997
11982POPC   C24 1098   1.053   1.495  13.958
11982POPC   H4R 1099   1.162   1.476  13.973
11982POPC   H4S 1100   1.034   1.600  13.988
11982POPC   C25 1101   1.023   1.476  13.808
11982POPC   H5R 1102   1.059   1.374  13.780
11982POPC   H5S 1103   1.082   1.550  13.750
11982POPC   C26 1104   0.875   1.487  13.771
11982POPC   H6R 1105   0.839   1.589  13.800
11982POPC   H6S 1106   0.816   1.413  13.830
11982POPC   C27 1107   0.842   1.466  13.621
11982POPC   H7R 1108   0.815   1.565  13.579
11982POPC   H7S 1109   0.750   1.404  13.617
11982POPC   C28 1110   0.950   1.400  13.533
11982POPC   H8R 1111   0.974   1.302  13.579
11982POPC   H8S 1112   1.042   1.462  13.535
11982POPC   C29 1113   0.902   1.380  13.390
11982POPC   H91 1114   0.799   1.412  13.371
11982POPC  C210 1115   0.974   1.329  13.288
11982POPC  H101 1116   0.925   1.320  13.189
11982POPC  C211 1117   1.118   1.281  13.290
11982POPC  H11R 1118   1.123   1.172  13.270
11982POPC  H11S 1119   1.164   1.298  13.390
11982POPC  C212 1120   1.203   1.350  13.182
11982POPC  H12R 1121   1.188   1.459  13.199
11982POPC  H12S 1122   1.165   1.327  13.080
11982POPC  C213 1123   1.355   1.324  13.190
11982POPC  H13R 1124   1.386   1.283  13.288
11982POPC  H13S 1125   1.395   1.426  13.178
11982POPC  C214 1126   1.426   1.255  13.073
11982POPC  H14R 1127   1.370   1.287  12.982
11982POPC  H14S 1128   1.418   1.145  13.082
11982POPC  C215 1129   1.573   1.301  13.050
11982POPC  H15R 1130   1.599   1.385  13.117
11982POPC  H15S 1131   1.576   1.341  12.947
11982POPC  C216 1132   1.681   1.191  13.058
11982POPC  H16R 1133   1.636   1.094  13.029
11982POPC  H16S 1134   1.716   1.177  13.163
11982POPC  C217 1135   1.805   1.215  12.968
11982POPC  H17R 1136   1.880   1.136  12.993
11982POPC  H17S 1137   1.852   1.313  12.994
11982POPC  C218 1138   1.784   1.211  12.815
11982POPC  H18R 1139   1.737   1.304  12.777
11982POPC  H18S 1140   1.720   1.126  12.785
11982POPC  H18T 1141   1.882   1.198  12.764
11982POPC   C33 1142   1.052   1.027  13.551
11982POPC   H3X 1143   1.044   1.108  13.476
11982POPC   H3Y 1144   0.950   1.012  13.592
11982POPC   C34 1145   1.098   0.900  13.475
11982POPC   H4X 1146   1.114   0.818  13.548
11982POPC   H4Y 1147   1.195   0.921  13.426
11982POPC   C35 1148   0.997   0.851  13.367
11982POPC   H5X 1149   0.899   0.832  13.415
11982POPC   H5Y 1150   1.034   0.755  13.324
11982POPC   C36 1151   0.980   0.953  13.252
11982POPC   H6X 1152   1.081   0.976  13.212
11982POPC   H6Y 1153   0.936   1.046  13.295
11982POPC   C37 1154   0.892   0.913  13.132
11982POPC   H7X 1155   0.790   0.885  13.167
11982POPC   H7Y 1156   0.936   0.825  13.081
11982POPC   C38 1157   0.883   1.032  13.033
11982POPC   H8X 1158   0.986   1.064  13.007
11982POPC   H8Y 1159   0.834   1.116  13.088
11982POPC   C39 1160   0.805   1.006  12.903
11982POPC   H9X 1161   0.712   0.952  12.931
11982POPC   H9Y 1162   0.862   0.940  12.834
11982POPC  C310 1163   0.762   1.136  12.831
11982POPC  H10X 1164   0.725   1.206  12.909
11982POPC  H10Y 1165   0.674   1.113  12.766
11982POPC  C311 1166   0.867   1.212  12.747
11982POPC  H11X 1167   0.948   1.248  12.814
11982POPC  H11Y 1168   0.815   1.302  12.705
11982POPC  C312 1169   0.933   1.140  12.627
11982POPC  H12X 1170   1.011   1.072  12.666
11982POPC  H12Y 1171   0.983   1.215  12.563
11982POPC  C313 1172   0.837   1.058  12.539
11982POPC  H13X 1173   0.738   1.108  12.539
11982POPC  H13Y 1174   0.827   0.961  12.591
11982POPC  C314 1175   0.878   1.040  12.392
11982POPC  H14X 1176   0.906   1.140  12.352
11982POPC  H14Y 1177   0.789   1.005  12.335
11982POPC  C315 1178   0.989   0.940  12.355
11982POPC  H15X 1179   1.073   0.950  12.427
11982POPC  H15Y 1180   1.028   0.973  12.255
11982POPC  C316 1181   0.946   0.794  12.340
11982POPC  H16X 1182   1.018   0.737  12.278
11982POPC  H16Y 1183   0.935   0.744  12.439
11982POPC  H16Z 1184   0.849   0.790  12.287
11983POPC     N 1185   7.757   8.950  14.892
11983POPC   C12 1186   7.741   9.075  14.806
11983POPC  H12A 1187   7.783   9.160  14.858
11983POPC  H12B 1188   7.635   9.096  14.789
11983POPC   C13 1189   7.670   8.842  14.836
11983POPC  H13A 1190   7.692   8.745  14.878
11983POPC  H13B 1191   7.566   8.865  14.853
11983POPC  H13C 1192   7.683   8.839  14.727
11983POPC   C14 1193   7.900   8.907  14.890
11983POPC  H14A 1194   7.963   8.991  14.917
11983POPC  H14B 1195   7.920   8.824  14.958
11983POPC  H14C 1196   7.924   8.876  14.789
11983POPC   C15 1197   7.713   8.974  15.033
11983POPC  H15A 1198   7.733   8.886  15.093
11983POPC  H15B 1199   7.606   8.997  15.037
11983POPC  H15C 1200   7.765   9.058  15.076
11983POPC   C11 1201   7.806   9.072  14.665
11983POPC  H11A 1202   7.914   9.049  14.671
11983POPC  H11B 1203   7.799   9.175  14.622
11983POPC     P 1204   7.646   9.021  14.467
11983POPC   O13 1205   7.562   9.135  14.514
11983POPC   O14 1206   7.577   8.902  14.414
11983POPC   O12 1207   7.741   8.973  14.585
11983POPC   O11 1208   7.755   9.073  14.361
11983POPC    C1 1209   7.849   8.979  14.306
11983POPC    HA 1210   7.807   8.929  14.216
11983POPC    HB 1211   7.873   8.899  14.380
11983POPC    C2 1212   7.984   9.047  14.269
11983POPC    HS 1213   8.006   9.121  14.349
11983POPC   O21 1214   7.967   9.114  14.142
11983POPC   C21 1215   8.071   9.154  14.072
11983POPC   O22 1216   8.187   9.159  14.107
11983POPC   C22 1217   8.026   9.179  13.929
11983POPC   H2R 1218   8.079   9.269  13.892
11983POPC   H2S 1219   7.916   9.195  13.925
11983POPC    C3 1220   8.098   8.941  14.265
11983POPC    HX 1221   8.093   8.883  14.359
11983POPC    HY 1222   8.199   8.989  14.263
11983POPC   O31 1223   8.080   8.855  14.151
11983POPC   C31 1224   8.156   8.748  14.147
11983POPC   O32 1225   8.246   8.722  14.224
11983POPC   C32 1226   8.096   8.654  14.043
11983POPC   H2X 1227   8.141   8.554  14.057
11983POPC   H2Y 1228   8.122   8.692  13.942
11983POPC   C23 1229   8.068   9.056  13.850
11983POPC   H3R 1230   7.998   8.973  13.873
11983POPC   H3S 1231   8.169   9.023  13.882
11983POPC   C24 1232   8.076   9.078  13.699
11983POPC   H4R 1233   8.135   9.170  13.678
11983POPC   H4S 1234   7.975   9.089  13.656
11983POPC   C25 1235   8.147   8.956  13.641
11983POPC   H5R 1236   8.089   8.866  13.670
11983POPC   H5S 1237   8.246   8.945  13.689
11983POPC   C26 1238   8.165   8.956  13.489
11983POPC   H6R 1239   8.236   9.036  13.457
11983POPC   H6S 1240   8.066   8.977  13.443
11983POPC   C27 1241   8.217   8.818  13.446
11983POPC   H7R 1242   8.170   8.741  13.511
11983POPC   H7S 1243   8.326   8.815  13.468
11983POPC   C28 1244   8.191   8.780  13.300
11983POPC   H8R 1245   8.230   8.676  13.286
11983POPC   H8S 1246   8.248   8.847  13.232
11983POPC   C29 1247   8.045   8.776  13.270
11983POPC   H91 1248   7.990   8.707  13.334
11983POPC  C210 1249   7.980   8.848  13.177
11983POPC  H101 1250   7.871   8.837  13.168
11983POPC  C211 1251   8.043   8.946  13.083
11983POPC  H11R 1252   7.983   8.955  12.989
11983POPC  H11S 1253   8.145   8.913  13.052
11983POPC  C212 1254   8.051   9.085  13.147
11983POPC  H12R 1255   8.105   9.082  13.244
11983POPC  H12S 1256   7.949   9.124  13.165
11983POPC  C213 1257   8.122   9.183  13.056
11983POPC  H13R 1258   8.099   9.286  13.092
11983POPC  H13S 1259   8.085   9.174  12.951
11983POPC  C214 1260   8.274   9.169  13.055
11983POPC  H14R 1261   8.306   9.072  13.013
11983POPC  H14S 1262   8.314   9.178  13.158
11983POPC  C215 1263   8.327   9.283  12.968
11983POPC  H15R 1264   8.420   9.325  13.011
11983POPC  H15S 1265   8.249   9.361  12.971
11983POPC  C216 1266   8.348   9.242  12.823
11983POPC  H16R 1267   8.252   9.221  12.771
11983POPC  H16S 1268   8.407   9.147  12.819
11983POPC  C217 1269   8.430   9.346  12.748
11983POPC  H17R 1270   8.529   9.357  12.800
11983POPC  H17S 1271   8.380   9.445  12.749
11983POPC  C218 1272   8.452   9.298  12.606
11983POPC  H18R 1273   8.351   9.280  12.562
11983POPC  H18S 1274   8.506   9.201  12.607
11983POPC  H18T 1275   8.506   9.372  12.544
11983POPC   C33 1276   7.943   8.649  14.064
11983POPC   H3X 1277   7.899   8.750  14.053
11983POPC   H3Y 1278   7.922   8.617  14.169
11983POPC   C34 1279   7.868   8.555  13.971
11983POPC   H4X 1280   7.761   8.562  14.003
11983POPC   H4Y 1281   7.902   8.450  13.986
11983POPC   C35 1282   7.872   8.590  13.822
11983POPC   H5X 1283   7.803   8.520  13.768
11983POPC   H5Y 1284   7.975   8.573  13.783
11983POPC   C36 1285   7.831   8.734  13.791
11983POPC   H6X 1286   7.897   8.803  13.847
11983POPC   H6Y 1287   7.727   8.753  13.825
11983POPC   C37 1288   7.843   8.766  13.642
11983POPC   H7X 1289   7.939   8.728  13.602
11983POPC   H7Y 1290   7.843   8.877  13.629
11983POPC   C38 1291   7.726   8.708  13.564
11983POPC   H8X 1292   7.635   8.754  13.608
11983POPC   H8Y 1293   7.721   8.598  13.574
11983POPC   C39 1294   7.726   8.746  13.417
11983POPC   H9X 1295   7.803   8.687  13.363
11983POPC   H9Y 1296   7.753   8.853  13.412
11983POPC  C310 1297   7.591   8.719  13.350
11983POPC  H10X 1298   7.510   8.760  13.413
11983POPC  H10Y 1299   7.576   8.609  13.343
11983POPC  C311 1300   7.584   8.781  13.211
11983POPC  H11X 1301   7.483   8.761  13.168
11983POPC  H11Y 1302   7.660   8.733  13.146
11983POPC  C312 1303   7.607   8.933  13.214
11983POPC  H12X 1304   7.713   8.955  13.241
11983POPC  H12Y 1305   7.543   8.979  13.293
11983POPC  C313 1306   7.581   9.003  13.081
11983POPC  H13X 1307   7.614   9.109  13.089
11983POPC  H13Y 1308   7.471   9.003  13.063
11983POPC  C314 1309   7.654   8.936  12.964
11983POPC  H14X 1310   7.613   8.834  12.949
11983POPC  H14Y 1311   7.762   8.926  12.989
11983POPC  C315 1312   7.640   9.012  12.832
11983POPC  H15X 1313   7.676   8.945  12.750
11983POPC  H15Y 1314   7.707   9.101  12.834
11983POPC  C316 1315   7.496   9.057  12.802
11983POPC  H16X 1316   7.424   8.982  12.840
11983POPC  H16Y 1317   7.479   9.068  12.693
11983POPC  H16Z 1318   7.475   9.154  12.851
11984POPC     N 1319   9.082   7.229  14.643
11984POPC   C12 1320   9.209   7.146  14.661
11984POPC  H12A 1321   9.236   7.099  14.567
11984POPC  H12B 1322   9.191   7.064  14.730
11984POPC   C13 1323   9.102   7.310  14.519
11984POPC  H13A 1324   9.098   7.249  14.430
11984POPC  H13B 1325   9.034   7.392  14.512
11984POPC  H13C 1326   9.203   7.352  14.523
11984POPC   C14 1327   8.961   7.146  14.629
11984POPC  H14A 1328   8.969   7.075  14.546
11984POPC  H14B 1329   8.944   7.085  14.718
11984POPC  H14C 1330   8.873   7.206  14.612
11984POPC   C15 1331   9.063   7.321  14.759
11984POPC  H15A 1332   9.058   7.266  14.853
11984POPC  H15B 1333   8.973   7.380  14.750
11984POPC  H15C 1334   9.147   7.391  14.765
11984POPC   C11 1335   9.335   7.225  14.708
11984POPC  H11A 1336   9.421   7.154  14.708
11984POPC  H11B 1337   9.320   7.254  14.814
11984POPC     P 1338   9.407   7.474  14.689
11984POPC   O13 1339   9.523   7.454  14.779
11984POPC   O14 1340   9.285   7.531  14.750
11984POPC   O12 1341   9.367   7.336  14.622
11984POPC   O11 1342   9.456   7.564  14.571
11984POPC    C1 1343   9.567   7.532  14.486
11984POPC    HA 1344   9.560   7.427  14.449
11984POPC    HB 1345   9.664   7.547  14.539
11984POPC    C2 1346   9.561   7.626  14.363
11984POPC    HS 1347   9.580   7.730  14.399
11984POPC   O21 1348   9.431   7.606  14.309
11984POPC   C21 1349   9.353   7.710  14.301
11984POPC   O22 1350   9.378   7.825  14.333
11984POPC   C22 1351   9.221   7.659  14.241
11984POPC   H2R 1352   9.144   7.662  14.320
11984POPC   H2S 1353   9.236   7.552  14.211
11984POPC    C3 1354   9.665   7.596  14.250
11984POPC    HX 1355   9.662   7.487  14.225
11984POPC    HY 1356   9.766   7.620  14.291
11984POPC   O31 1357   9.644   7.678  14.133
11984POPC   C31 1358   9.556   7.637  14.043
11984POPC   O32 1359   9.499   7.529  14.042
11984POPC   C32 1360   9.527   7.748  13.939
11984POPC   H2X 1361   9.609   7.820  13.939
11984POPC   H2Y 1362   9.438   7.803  13.974
11984POPC   C23 1363   9.179   7.739  14.116
11984POPC   H3R 1364   9.261   7.736  14.042
11984POPC   H3S 1365   9.165   7.845  14.147
11984POPC   C24 1366   9.052   7.688  14.048
11984POPC   H4R 1367   9.025   7.756  13.964
11984POPC   H4S 1368   8.969   7.692  14.122
11984POPC   C25 1369   9.061   7.546  13.990
11984POPC   H5R 1370   8.962   7.518  13.949
11984POPC   H5S 1371   9.084   7.474  14.071
11984POPC   C26 1372   9.160   7.527  13.874
11984POPC   H6R 1373   9.262   7.552  13.909
11984POPC   H6S 1374   9.133   7.593  13.788
11984POPC   C27 1375   9.156   7.380  13.830
11984POPC   H7R 1376   9.056   7.357  13.787
11984POPC   H7S 1377   9.166   7.322  13.924
11984POPC   C28 1378   9.266   7.338  13.732
11984POPC   H8R 1379   9.362   7.383  13.763
11984POPC   H8S 1380   9.242   7.376  13.630
11984POPC   C29 1381   9.273   7.187  13.740
11984POPC   H91 1382   9.300   7.149  13.840
11984POPC  C210 1383   9.257   7.098  13.641
11984POPC  H101 1384   9.269   6.992  13.664
11984POPC  C211 1385   9.227   7.128  13.496
11984POPC  H11R 1386   9.173   7.224  13.481
11984POPC  H11S 1387   9.164   7.047  13.452
11984POPC  C212 1388   9.362   7.134  13.425
11984POPC  H12R 1389   9.428   7.052  13.464
11984POPC  H12S 1390   9.413   7.230  13.449
11984POPC  C213 1391   9.357   7.115  13.273
11984POPC  H13R 1392   9.326   7.210  13.224
11984POPC  H13S 1393   9.283   7.036  13.248
11984POPC  C214 1394   9.496   7.071  13.225
11984POPC  H14R 1395   9.530   6.988  13.290
11984POPC  H14S 1396   9.565   7.156  13.238
11984POPC  C215 1397   9.504   7.023  13.080
11984POPC  H15R 1398   9.450   6.927  13.067
11984POPC  H15S 1399   9.611   7.004  13.057
11984POPC  C216 1400   9.453   7.126  12.980
11984POPC  H16R 1401   9.470   7.228  13.021
11984POPC  H16S 1402   9.344   7.112  12.968
11984POPC  C217 1403   9.524   7.114  12.845
11984POPC  H17R 1404   9.633   7.112  12.866
11984POPC  H17S 1405   9.508   7.207  12.787
11984POPC  C218 1406   9.481   6.992  12.763
11984POPC  H18R 1407   9.512   6.899  12.814
11984POPC  H18S 1408   9.529   6.995  12.662
11984POPC  H18T 1409   9.372   6.988  12.749
11984POPC   C33 1410   9.508   7.702  13.793
11984POPC   H3X 1411   9.428   7.625  13.788
11984POPC   H3Y 1412   9.601   7.656  13.754
11984POPC   C34 1413   9.469   7.823  13.704
11984POPC   H4X 1414   9.547   7.902  13.714
11984POPC   H4Y 1415   9.374   7.865  13.745
11984POPC   C35 1416   9.447   7.791  13.556
11984POPC   H5X 1417   9.543   7.771  13.504
11984POPC   H5Y 1418   9.402   7.881  13.508
11984POPC   C36 1419   9.353   7.671  13.534
11984POPC   H6X 1420   9.277   7.670  13.616
11984POPC   H6Y 1421   9.411   7.576  13.542
11984POPC   C37 1422   9.277   7.673  13.400
11984POPC   H7X 1423   9.229   7.773  13.387
11984POPC   H7Y 1424   9.197   7.597  13.404
11984POPC   C38 1425   9.370   7.643  13.282
11984POPC   H8X 1426   9.430   7.552  13.306
11984POPC   H8Y 1427   9.441   7.728  13.271
11984POPC   C39 1428   9.300   7.617  13.147
11984POPC   H9X 1429   9.255   7.516  13.149
11984POPC   H9Y 1430   9.379   7.619  13.069
11984POPC  C310 1431   9.192   7.720  13.108
11984POPC  H10X 1432   9.238   7.821  13.102
11984POPC  H10Y 1433   9.114   7.722  13.187
11984POPC  C311 1434   9.121   7.687  12.975
11984POPC  H11X 1435   9.194   7.675  12.893
11984POPC  H11Y 1436   9.056   7.774  12.949
11984POPC  C312 1437   9.030   7.563  12.987
11984POPC  H12X 1438   8.980   7.573  13.087
11984POPC  H12Y 1439   9.089   7.470  12.993
11984POPC  C313 1440   8.915   7.556  12.886
11984POPC  H13X 1441   8.868   7.656  12.885
11984POPC  H13Y 1442   8.839   7.486  12.928
11984POPC  C314 1443   8.938   7.503  12.743
11984POPC  H14X 1444   8.837   7.502  12.696
11984POPC  H14Y 1445   8.971   7.397  12.748
11984POPC  C315 1446   9.028   7.582  12.647
11984POPC  H15X 1447   9.134   7.576  12.679
11984POPC  H15Y 1448   9.002   7.689  12.651
11984POPC  C316 1449   9.014   7.531  12.502
11984POPC  H16X 1450   8.909   7.500  12.484
11984POPC  H16Y 1451   9.076   7.442  12.480
11984POPC  H16Z 1452   9.043   7.610  12.429
11985POPC     N 1453   0.341   8.251  14.787
11985POPC   C12 1454   0.258   8.124  14.765
11985POPC  H12A 1455   0.183   8.144  14.690
11985POPC  H12B 1456   0.207   8.099  14.857
11985POPC   C13 1457   0.467   8.216  14.860
11985POPC  H13A 1458   0.523   8.141  14.806
11985POPC  H13B 1459   0.528   8.304  14.874
11985POPC  H13C 1460   0.446   8.178  14.959
11985POPC   C14 1461   0.381   8.312  14.657
11985POPC  H14A 1462   0.442   8.239  14.603
11985POPC  H14B 1463   0.295   8.333  14.595
11985POPC  H14C 1464   0.436   8.403  14.673
11985POPC   C15 1465   0.265   8.349  14.870
11985POPC  H15A 1466   0.323   8.438  14.891
11985POPC  H15B 1467   0.234   8.306  14.965
11985POPC  H15C 1468   0.172   8.379  14.825
11985POPC   C11 1469   0.332   7.996  14.717
11985POPC  H11A 1470   0.259   7.912  14.710
11985POPC  H11B 1471   0.407   7.966  14.794
11985POPC     P 1472   0.507   7.925  14.540
11985POPC   O13 1473   0.453   7.809  14.464
11985POPC   O14 1474   0.595   7.891  14.654
11985POPC   O12 1475   0.391   8.021  14.590
11985POPC   O11 1476   0.595   8.020  14.451
11985POPC    C1 1477   0.542   8.123  14.370
11985POPC    HA 1478   0.625   8.193  14.342
11985POPC    HB 1479   0.464   8.182  14.422
11985POPC    C2 1480   0.484   8.064  14.241
11985POPC    HS 1481   0.404   7.992  14.273
11985POPC   O21 1482   0.591   7.996  14.170
11985POPC   C21 1483   0.541   7.922  14.075
11985POPC   O22 1484   0.423   7.900  14.058
11985POPC   C22 1485   0.651   7.868  13.984
11985POPC   H2R 1486   0.650   7.757  13.991
11985POPC   H2S 1487   0.749   7.905  14.019
11985POPC    C3 1488   0.418   8.174  14.154
11985POPC    HX 1489   0.356   8.235  14.223
11985POPC    HY 1490   0.350   8.127  14.080
11985POPC   O31 1491   0.518   8.252  14.085
11985POPC   C31 1492   0.465   8.360  14.028
11985POPC   O32 1493   0.350   8.397  14.043
11985POPC   C32 1494   0.570   8.431  13.944
11985POPC   H2X 1495   0.657   8.453  14.010
11985POPC   H2Y 1496   0.525   8.527  13.910
11985POPC   C23 1497   0.630   7.910  13.836
11985POPC   H3R 1498   0.720   7.874  13.781
11985POPC   H3S 1499   0.628   8.021  13.827
11985POPC   C24 1500   0.503   7.852  13.771
11985POPC   H4R 1501   0.415   7.906  13.811
11985POPC   H4S 1502   0.493   7.745  13.801
11985POPC   C25 1503   0.500   7.860  13.618
11985POPC   H5R 1504   0.519   7.964  13.586
11985POPC   H5S 1505   0.399   7.832  13.581
11985POPC   C26 1506   0.602   7.765  13.555
11985POPC   H6R 1507   0.583   7.660  13.587
11985POPC   H6S 1508   0.703   7.793  13.595
11985POPC   C27 1509   0.610   7.771  13.403
11985POPC   H7R 1510   0.562   7.863  13.364
11985POPC   H7S 1511   0.555   7.684  13.360
11985POPC   C28 1512   0.758   7.771  13.362
11985POPC   H8R 1513   0.814   7.703  13.429
11985POPC   H8S 1514   0.798   7.873  13.381
11985POPC   C29 1515   0.783   7.728  13.221
11985POPC   H91 1516   0.813   7.623  13.209
11985POPC  C210 1517   0.773   7.806  13.113
11985POPC  H101 1518   0.811   7.766  13.019
11985POPC  C211 1519   0.737   7.951  13.104
11985POPC  H11R 1520   0.730   7.999  13.203
11985POPC  H11S 1521   0.638   7.963  13.055
11985POPC  C212 1522   0.841   8.019  13.015
11985POPC  H12R 1523   0.851   7.966  12.917
11985POPC  H12S 1524   0.939   8.015  13.067
11985POPC  C213 1525   0.811   8.165  12.986
11985POPC  H13R 1526   0.896   8.205  12.926
11985POPC  H13S 1527   0.810   8.222  13.081
11985POPC  C214 1528   0.682   8.192  12.907
11985POPC  H14R 1529   0.592   8.152  12.960
11985POPC  H14S 1530   0.688   8.144  12.808
11985POPC  C215 1531   0.669   8.344  12.892
11985POPC  H15R 1532   0.772   8.376  12.869
11985POPC  H15S 1533   0.640   8.389  12.990
11985POPC  C216 1534   0.580   8.398  12.780
11985POPC  H16R 1535   0.558   8.505  12.802
11985POPC  H16S 1536   0.485   8.342  12.775
11985POPC  C217 1537   0.653   8.392  12.645
11985POPC  H17R 1538   0.647   8.287  12.611
11985POPC  H17S 1539   0.761   8.415  12.663
11985POPC  C218 1540   0.604   8.488  12.536
11985POPC  H18R 1541   0.575   8.586  12.578
11985POPC  H18S 1542   0.517   8.444  12.483
11985POPC  H18T 1543   0.684   8.503  12.460
11985POPC   C33 1544   0.616   8.348  13.823
11985POPC   H3X 1545   0.530   8.322  13.757
11985POPC   H3Y 1546   0.660   8.252  13.858
11985POPC   C34 1547   0.721   8.424  13.742
11985POPC   H4X 1548   0.788   8.475  13.815
11985POPC   H4Y 1549   0.673   8.502  13.679
11985POPC   C35 1550   0.810   8.334  13.655
11985POPC   H5X 1551   0.860   8.258  13.720
11985POPC   H5Y 1552   0.887   8.399  13.610
11985POPC   C36 1553   0.737   8.263  13.541
11985POPC   H6X 1554   0.636   8.233  13.574
11985POPC   H6Y 1555   0.792   8.170  13.513
11985POPC   C37 1556   0.730   8.353  13.416
11985POPC   H7X 1557   0.834   8.379  13.385
11985POPC   H7Y 1558   0.678   8.448  13.442
11985POPC   C38 1559   0.659   8.286  13.299
11985POPC   H8X 1560   0.715   8.194  13.271
11985POPC   H8Y 1561   0.660   8.355  13.211
11985POPC   C39 1562   0.515   8.247  13.330
11985POPC   H9X 1563   0.459   8.337  13.367
11985POPC   H9Y 1564   0.513   8.171  13.411
11985POPC  C310 1565   0.443   8.189  13.208
11985POPC  H10X 1566   0.500   8.101  13.171
11985POPC  H10Y 1567   0.438   8.265  13.127
11985POPC  C311 1568   0.301   8.145  13.246
11985POPC  H11X 1569   0.253   8.233  13.294
11985POPC  H11Y 1570   0.306   8.065  13.323
11985POPC  C312 1571   0.216   8.098  13.127
11985POPC  H12X 1572   0.191   8.186  13.064
11985POPC  H12Y 1573   0.120   8.056  13.167
11985POPC  C313 1574   0.282   7.993  13.037
11985POPC  H13X 1575   0.369   8.040  12.986
11985POPC  H13Y 1576   0.209   7.963  12.958
11985POPC  C314 1577   0.327   7.869  13.113
11985POPC  H14X 1578   0.238   7.816  13.152
11985POPC  H14Y 1579   0.388   7.899  13.202
11985POPC  C315 1580   0.413   7.775  13.029
11985POPC  H15X 1581   0.442   7.692  13.097
11985POPC  H15Y 1582   0.507   7.825  13.001
11985POPC  C316 1583   0.347   7.724  12.901
11985POPC  H16X 1584   0.343   7.805  12.825
11985POPC  H16Y 1585   0.244   7.687  12.919
11985POPC  H16Z 1586   0.407   7.640  12.858
11986POPC     N 1587   9.290   1.873  14.899
11986POPC   C12 1588   9.253   1.964  14.781
11986POPC  H12A 1589   9.303   2.060  14.789
11986POPC  H12B 1590   9.146   1.984  14.787
11986POPC   C13 1591   9.194   1.756  14.894
11986POPC  H13A 1592   9.200   1.710  14.795
11986POPC  H13B 1593   9.212   1.684  14.971
11986POPC  H13C 1594   9.091   1.790  14.903
11986POPC   C14 1595   9.428   1.815  14.891
11986POPC  H14A 1596   9.444   1.774  14.792
11986POPC  H14B 1597   9.507   1.884  14.915
11986POPC  H14C 1598   9.438   1.735  14.964
11986POPC   C15 1599   9.268   1.934  15.032
11986POPC  H15A 1600   9.161   1.938  15.055
11986POPC  H15B 1601   9.312   2.031  15.047
11986POPC  H15C 1602   9.307   1.870  15.112
11986POPC   C11 1603   9.275   1.909  14.638
11986POPC  H11A 1604   9.384   1.901  14.619
11986POPC  H11B 1605   9.233   1.980  14.562
11986POPC     P 1606   9.152   1.717  14.497
11986POPC   O13 1607   9.037   1.797  14.456
11986POPC   O14 1608   9.130   1.573  14.528
11986POPC   O12 1609   9.215   1.781  14.627
11986POPC   O11 1610   9.278   1.733  14.403
11986POPC    C1 1611   9.408   1.693  14.450
11986POPC    HA 1612   9.406   1.641  14.548
11986POPC    HB 1613   9.472   1.783  14.465
11986POPC    C2 1614   9.478   1.597  14.350
11986POPC    HS 1615   9.580   1.577  14.390
11986POPC   O21 1616   9.491   1.651  14.217
11986POPC   C21 1617   9.544   1.771  14.205
11986POPC   O22 1618   9.617   1.827  14.286
11986POPC   C22 1619   9.502   1.828  14.071
11986POPC   H2R 1620   9.440   1.756  14.015
11986POPC   H2S 1621   9.596   1.844  14.014
11986POPC    C3 1622   9.403   1.461  14.339
11986POPC    HX 1623   9.397   1.415  14.440
11986POPC    HY 1624   9.466   1.398  14.274
11986POPC   O31 1625   9.274   1.474  14.276
11986POPC   C31 1626   9.188   1.375  14.293
11986POPC   O32 1627   9.206   1.274  14.359
11986POPC   C32 1628   9.062   1.399  14.211
11986POPC   H2X 1629   9.037   1.507  14.213
11986POPC   H2Y 1630   8.981   1.343  14.261
11986POPC   C23 1631   9.431   1.964  14.088
11986POPC   H3R 1632   9.417   2.008  13.988
11986POPC   H3S 1633   9.501   2.032  14.142
11986POPC   C24 1634   9.298   1.962  14.166
11986POPC   H4R 1635   9.281   2.067  14.200
11986POPC   H4S 1636   9.310   1.902  14.259
11986POPC   C25 1637   9.165   1.922  14.098
11986POPC   H5R 1638   9.143   1.991  14.016
11986POPC   H5S 1639   9.087   1.938  14.176
11986POPC   C26 1640   9.139   1.781  14.043
11986POPC   H6R 1641   9.133   1.711  14.129
11986POPC   H6S 1642   9.226   1.752  13.981
11986POPC   C27 1643   9.009   1.774  13.956
11986POPC   H7R 1644   8.974   1.878  13.940
11986POPC   H7S 1645   8.931   1.720  14.013
11986POPC   C28 1646   9.032   1.712  13.815
11986POPC   H8R 1647   9.100   1.633  13.846
11986POPC   H8S 1648   9.095   1.781  13.759
11986POPC   C29 1649   8.940   1.637  13.721
11986POPC   H91 1650   8.911   1.537  13.758
11986POPC  C210 1651   8.891   1.677  13.602
11986POPC  H101 1652   8.827   1.606  13.546
11986POPC  C211 1653   8.914   1.808  13.531
11986POPC  H11R 1654   8.956   1.881  13.602
11986POPC  H11S 1655   8.811   1.842  13.508
11986POPC  C212 1656   8.981   1.835  13.395
11986POPC  H12R 1657   9.092   1.841  13.404
11986POPC  H12S 1658   8.948   1.936  13.361
11986POPC  C213 1659   8.936   1.733  13.290
11986POPC  H13R 1660   8.951   1.774  13.188
11986POPC  H13S 1661   8.828   1.711  13.304
11986POPC  C214 1662   9.020   1.607  13.301
11986POPC  H14R 1663   8.966   1.522  13.253
11986POPC  H14S 1664   9.034   1.580  13.408
11986POPC  C215 1665   9.157   1.630  13.239
11986POPC  H15R 1666   9.201   1.721  13.284
11986POPC  H15S 1667   9.148   1.645  13.129
11986POPC  C216 1668   9.250   1.513  13.269
11986POPC  H16R 1669   9.250   1.451  13.178
11986POPC  H16S 1670   9.210   1.457  13.355
11986POPC  C217 1671   9.398   1.545  13.287
11986POPC  H17R 1672   9.455   1.450  13.280
11986POPC  H17S 1673   9.415   1.590  13.387
11986POPC  C218 1674   9.443   1.642  13.179
11986POPC  H18R 1675   9.391   1.622  13.083
11986POPC  H18S 1676   9.553   1.643  13.166
11986POPC  H18T 1677   9.412   1.741  13.211
11986POPC   C33 1678   9.077   1.343  14.068
11986POPC   H3X 1679   8.977   1.350  14.020
11986POPC   H3Y 1680   9.108   1.236  14.069
11986POPC   C34 1681   9.174   1.424  13.981
11986POPC   H4X 1682   9.279   1.409  14.013
11986POPC   H4Y 1683   9.151   1.530  14.001
11986POPC   C35 1684   9.157   1.389  13.831
11986POPC   H5X 1685   9.049   1.394  13.807
11986POPC   H5Y 1686   9.181   1.282  13.816
11986POPC   C36 1687   9.238   1.473  13.728
11986POPC   H6X 1688   9.167   1.520  13.656
11986POPC   H6Y 1689   9.294   1.400  13.669
11986POPC   C37 1690   9.338   1.580  13.778
11986POPC   H7X 1691   9.392   1.542  13.868
11986POPC   H7Y 1692   9.284   1.671  13.806
11986POPC   C38 1693   9.440   1.630  13.673
11986POPC   H8X 1694   9.416   1.578  13.578
11986POPC   H8Y 1695   9.542   1.597  13.703
11986POPC   C39 1696   9.440   1.783  13.650
11986POPC   H9X 1697   9.452   1.834  13.748
11986POPC   H9Y 1698   9.341   1.813  13.608
11986POPC  C310 1699   9.553   1.830  13.555
11986POPC  H10X 1700   9.570   1.751  13.479
11986POPC  H10Y 1701   9.643   1.835  13.617
11986POPC  C311 1702   9.532   1.964  13.479
11986POPC  H11X 1703   9.632   2.003  13.449
11986POPC  H11Y 1704   9.485   2.041  13.543
11986POPC  C312 1705   9.455   1.933  13.350
11986POPC  H12X 1706   9.376   1.860  13.379
11986POPC  H12Y 1707   9.530   1.882  13.285
11986POPC  C313 1708   9.385   2.037  13.260
11986POPC  H13X 1709   9.456   2.113  13.224
11986POPC  H13Y 1710   9.304   2.089  13.312
11986POPC  C314 1711   9.316   1.968  13.140
11986POPC  H14X 1712   9.266   1.875  13.174
11986POPC  H14Y 1713   9.393   1.939  13.065
11986POPC  C315 1714   9.204   2.048  13.074
11986POPC  H15X 1715   9.242   2.151  13.065
11986POPC  H15Y 1716   9.116   2.053  13.143
11986POPC  C316 1717   9.161   1.996  12.937
11986POPC  H16X 1718   9.246   1.999  12.866
11986POPC  H16Y 1719   9.079   2.057  12.895
11986POPC  H16Z 1720   9.127   1.890  12.945
11987POPC     N 1721   8.826   1.350  14.642
11987POPC   C12 1722   8.865   1.258  14.757
11987POPC  H12A 1723   8.804   1.283  14.843
11987POPC  H12B 1724   8.968   1.277  14.785
11987POPC   C13 1725   8.678   1.341  14.619
11987POPC  H13A 1726   8.650   1.237  14.601
11987POPC  H13B 1727   8.622   1.373  14.705
11987POPC  H13C 1728   8.647   1.398  14.533
11987POPC   C14 1729   8.863   1.492  14.673
11987POPC  H14A 1730   8.969   1.502  14.696
11987POPC  H14B 1731   8.849   1.557  14.587
11987POPC  H14C 1732   8.804   1.532  14.754
11987POPC   C15 1733   8.897   1.310  14.517
11987POPC  H15A 1734   8.866   1.209  14.486
11987POPC  H15B 1735   9.006   1.311  14.529
11987POPC  H15C 1736   8.877   1.379  14.436
11987POPC   C11 1737   8.846   1.107  14.739
11987POPC  H11A 1738   8.920   1.052  14.802
11987POPC  H11B 1739   8.868   1.077  14.634
11987POPC     P 1740   8.654   0.929  14.744
11987POPC   O13 1741   8.505   0.937  14.749
11987POPC   O14 1742   8.726   0.832  14.830
11987POPC   O12 1743   8.713   1.074  14.780
11987POPC   O11 1744   8.703   0.916  14.593
11987POPC    C1 1745   8.639   0.993  14.493
11987POPC    HA 1746   8.714   1.031  14.420
11987POPC    HB 1747   8.589   1.083  14.536
11987POPC    C2 1748   8.535   0.908  14.420
11987POPC    HS 1749   8.507   0.823  14.486
11987POPC   O21 1750   8.598   0.861  14.300
11987POPC   C21 1751   8.532   0.772  14.231
11987POPC   O22 1752   8.414   0.745  14.241
11987POPC   C22 1753   8.636   0.696  14.147
11987POPC   H2R 1754   8.613   0.589  14.154
11987POPC   H2S 1755   8.735   0.709  14.192
11987POPC    C3 1756   8.408   0.993  14.393
11987POPC    HX 1757   8.379   1.046  14.487
11987POPC    HY 1758   8.324   0.925  14.367
11987POPC   O31 1759   8.433   1.082  14.283
11987POPC   C31 1760   8.482   1.201  14.308
11987POPC   O32 1761   8.483   1.259  14.415
11987POPC   C32 1762   8.558   1.250  14.185
11987POPC   H2X 1763   8.655   1.196  14.184
11987POPC   H2Y 1764   8.577   1.358  14.197
11987POPC   C23 1765   8.642   0.740  14.001
11987POPC   H3R 1766   8.541   0.771  13.966
11987POPC   H3S 1767   8.672   0.651  13.940
11987POPC   C24 1768   8.748   0.849  13.980
11987POPC   H4R 1769   8.839   0.825  14.039
11987POPC   H4S 1770   8.709   0.947  14.017
11987POPC   C25 1771   8.789   0.859  13.834
11987POPC   H5R 1772   8.824   0.760  13.799
11987POPC   H5S 1773   8.873   0.931  13.821
11987POPC   C26 1774   8.669   0.905  13.754
11987POPC   H6R 1775   8.658   1.014  13.768
11987POPC   H6S 1776   8.575   0.858  13.790
11987POPC   C27 1777   8.676   0.875  13.606
11987POPC   H7R 1778   8.626   0.776  13.593
11987POPC   H7S 1779   8.781   0.869  13.570
11987POPC   C28 1780   8.597   0.980  13.529
11987POPC   H8R 1781   8.612   0.959  13.421
11987POPC   H8S 1782   8.637   1.080  13.548
11987POPC   C29 1783   8.454   0.971  13.579
11987POPC   H91 1784   8.432   1.020  13.675
11987POPC  C210 1785   8.357   0.914  13.509
11987POPC  H101 1786   8.253   0.911  13.546
11987POPC  C211 1787   8.384   0.857  13.374
11987POPC  H11R 1788   8.305   0.786  13.346
11987POPC  H11S 1789   8.481   0.803  13.367
11987POPC  C212 1790   8.381   0.978  13.282
11987POPC  H12R 1791   8.458   1.052  13.309
11987POPC  H12S 1792   8.285   1.031  13.299
11987POPC  C213 1793   8.387   0.950  13.133
11987POPC  H13R 1794   8.317   0.867  13.107
11987POPC  H13S 1795   8.489   0.921  13.101
11987POPC  C214 1796   8.341   1.080  13.069
11987POPC  H14R 1797   8.417   1.157  13.093
11987POPC  H14S 1798   8.247   1.111  13.119
11987POPC  C215 1799   8.311   1.074  12.920
11987POPC  H15R 1800   8.205   1.047  12.905
11987POPC  H15S 1801   8.368   0.989  12.876
11987POPC  C216 1802   8.354   1.205  12.851
11987POPC  H16R 1803   8.435   1.181  12.779
11987POPC  H16S 1804   8.402   1.270  12.927
11987POPC  C217 1805   8.248   1.292  12.782
11987POPC  H17R 1806   8.284   1.314  12.679
11987POPC  H17S 1807   8.244   1.389  12.835
11987POPC  C218 1808   8.104   1.239  12.772
11987POPC  H18R 1809   8.037   1.319  12.735
11987POPC  H18S 1810   8.066   1.204  12.870
11987POPC  H18T 1811   8.098   1.153  12.702
11987POPC   C33 1812   8.487   1.222  14.051
11987POPC   H3X 1813   8.394   1.284  14.046
11987POPC   H3Y 1814   8.456   1.116  14.042
11987POPC   C34 1815   8.579   1.254  13.932
11987POPC   H4X 1816   8.619   1.159  13.890
11987POPC   H4Y 1817   8.669   1.311  13.965
11987POPC   C35 1818   8.503   1.330  13.823
11987POPC   H5X 1819   8.428   1.398  13.869
11987POPC   H5Y 1820   8.448   1.258  13.759
11987POPC   C36 1821   8.599   1.416  13.740
11987POPC   H6X 1822   8.664   1.470  13.810
11987POPC   H6Y 1823   8.544   1.493  13.681
11987POPC   C37 1824   8.691   1.334  13.652
11987POPC   H7X 1825   8.673   1.227  13.674
11987POPC   H7Y 1826   8.798   1.354  13.674
11987POPC   C38 1827   8.661   1.366  13.507
11987POPC   H8X 1828   8.668   1.475  13.487
11987POPC   H8Y 1829   8.555   1.335  13.487
11987POPC   C39 1830   8.752   1.294  13.410
11987POPC   H9X 1831   8.767   1.188  13.442
11987POPC   H9Y 1832   8.854   1.339  13.406
11987POPC  C310 1833   8.687   1.296  13.273
11987POPC  H10X 1834   8.731   1.380  13.214
11987POPC  H10Y 1835   8.577   1.314  13.280
11987POPC  C311 1836   8.706   1.164  13.204
11987POPC  H11X 1837   8.629   1.089  13.229
11987POPC  H11Y 1838   8.802   1.119  13.240
11987POPC  C312 1839   8.714   1.179  13.054
11987POPC  H12X 1840   8.751   1.280  13.024
11987POPC  H12Y 1841   8.615   1.164  13.006
11987POPC  C313 1842   8.811   1.073  13.011
11987POPC  H13X 1843   8.767   0.977  13.044
11987POPC  H13Y 1844   8.909   1.086  13.060
11987POPC  C314 1845   8.835   1.077  12.863
11987POPC  H14X 1846   8.875   1.175  12.830
11987POPC  H14Y 1847   8.735   1.070  12.819
11987POPC  C315 1848   8.929   0.964  12.822
11987POPC  H15X 1849   9.028   1.010  12.824
11987POPC  H15Y 1850   8.914   0.935  12.717
11987POPC  C316 1851   8.933   0.843  12.915
11987POPC  H16X 1852   8.973   0.872  13.014
11987POPC  H16Y 1853   8.999   0.764  12.874
11987POPC  H16Z 1854   8.830   0.801  12.927
11988POPC     N 1855   1.406   9.656  14.645
11988POPC   C12 1856   1.531   9.613  14.566
11988POPC  H12A 1857   1.545   9.683  14.485
11988POPC  H12B 1858   1.510   9.518  14.516
11988POPC   C13 1859   1.298   9.695  14.550
11988POPC  H13A 1860   1.275   9.615  14.481
11988POPC  H13B 1861   1.208   9.724  14.602
11988POPC  H13C 1862   1.331   9.780  14.491
11988POPC   C14 1863   1.363   9.540  14.729
11988POPC  H14A 1864   1.449   9.506  14.788
11988POPC  H14B 1865   1.280   9.563  14.794
11988POPC  H14C 1866   1.334   9.455  14.669
11988POPC   C15 1867   1.433   9.776  14.729
11988POPC  H15A 1868   1.487   9.853  14.674
11988POPC  H15B 1869   1.492   9.749  14.816
11988POPC  H15C 1870   1.341   9.823  14.762
11988POPC   C11 1871   1.668   9.596  14.640
11988POPC  H11A 1872   1.695   9.693  14.687
11988POPC  H11B 1873   1.745   9.577  14.561
11988POPC     P 1874   1.693   9.342  14.698
11988POPC   O13 1875   1.643   9.257  14.809
11988POPC   O14 1876   1.837   9.333  14.661
11988POPC   O12 1877   1.668   9.493  14.740
11988POPC   O11 1878   1.596   9.335  14.576
11988POPC    C1 1879   1.539   9.210  14.536
11988POPC    HA 1880   1.469   9.172  14.613
11988POPC    HB 1881   1.619   9.134  14.521
11988POPC    C2 1882   1.464   9.231  14.402
11988POPC    HS 1883   1.440   9.132  14.356
11988POPC   O21 1884   1.548   9.308  14.316
11988POPC   C21 1885   1.652   9.239  14.273
11988POPC   O22 1886   1.660   9.117  14.274
11988POPC   C22 1887   1.746   9.335  14.205
11988POPC   H2R 1888   1.846   9.329  14.252
11988POPC   H2S 1889   1.708   9.439  14.214
11988POPC    C3 1890   1.327   9.304  14.424
11988POPC    HX 1891   1.343   9.386  14.497
11988POPC    HY 1892   1.258   9.231  14.472
11988POPC   O31 1893   1.266   9.351  14.301
11988POPC   C31 1894   1.305   9.471  14.259
11988POPC   O32 1895   1.376   9.546  14.324
11988POPC   C32 1896   1.239   9.512  14.127
11988POPC   H2X 1897   1.261   9.620  14.109
11988POPC   H2Y 1898   1.129   9.503  14.141
11988POPC   C23 1899   1.748   9.292  14.058
11988POPC   H3R 1900   1.644   9.275  14.021
11988POPC   H3S 1901   1.803   9.196  14.050
11988POPC   C24 1902   1.812   9.394  13.966
11988POPC   H4R 1903   1.919   9.410  13.992
11988POPC   H4S 1904   1.759   9.492  13.976
11988POPC   C25 1905   1.800   9.346  13.822
11988POPC   H5R 1906   1.695   9.316  13.802
11988POPC   H5S 1907   1.864   9.256  13.807
11988POPC   C26 1908   1.841   9.458  13.728
11988POPC   H6R 1909   1.950   9.470  13.746
11988POPC   H6S 1910   1.792   9.553  13.757
11988POPC   C27 1911   1.814   9.427  13.581
11988POPC   H7R 1912   1.857   9.328  13.559
11988POPC   H7S 1913   1.874   9.501  13.523
11988POPC   C28 1914   1.666   9.445  13.533
11988POPC   H8R 1915   1.669   9.456  13.422
11988POPC   H8S 1916   1.644   9.546  13.572
11988POPC   C29 1917   1.549   9.355  13.570
11988POPC   H91 1918   1.524   9.363  13.677
11988POPC  C210 1919   1.474   9.268  13.495
11988POPC  H101 1920   1.395   9.211  13.546
11988POPC  C211 1921   1.489   9.236  13.347
11988POPC  H11R 1922   1.569   9.163  13.338
11988POPC  H11S 1923   1.520   9.324  13.288
11988POPC  C212 1924   1.380   9.156  13.273
11988POPC  H12R 1925   1.291   9.222  13.264
11988POPC  H12S 1926   1.352   9.066  13.332
11988POPC  C213 1927   1.423   9.110  13.130
11988POPC  H13R 1928   1.480   9.191  13.082
11988POPC  H13S 1929   1.329   9.096  13.072
11988POPC  C214 1930   1.503   8.977  13.123
11988POPC  H14R 1931   1.435   8.897  13.158
11988POPC  H14S 1932   1.586   8.980  13.195
11988POPC  C215 1933   1.559   8.935  12.984
11988POPC  H15R 1934   1.481   8.933  12.906
11988POPC  H15S 1935   1.595   8.830  12.992
11988POPC  C216 1936   1.676   9.021  12.933
11988POPC  H16R 1937   1.761   8.995  13.000
11988POPC  H16S 1938   1.652   9.128  12.944
11988POPC  C217 1939   1.730   8.993  12.791
11988POPC  H17R 1940   1.711   8.888  12.762
11988POPC  H17S 1941   1.840   9.011  12.796
11988POPC  C218 1942   1.676   9.076  12.676
11988POPC  H18R 1943   1.697   9.183  12.692
11988POPC  H18S 1944   1.567   9.059  12.666
11988POPC  H18T 1945   1.724   9.045  12.581
11988POPC   C33 1946   1.281   9.426  14.006
11988POPC   H3X 1947   1.191   9.413  13.941
11988POPC   H3Y 1948   1.311   9.324  14.040
11988POPC   C34 1949   1.393   9.481  13.916
11988POPC   H4X 1950   1.400   9.409  13.832
11988POPC   H4Y 1951   1.491   9.478  13.969
11988POPC   C35 1952   1.370   9.621  13.858
11988POPC   H5X 1953   1.400   9.697  13.934
11988POPC   H5Y 1954   1.261   9.635  13.836
11988POPC   C36 1955   1.450   9.644  13.729
11988POPC   H6X 1956   1.413   9.574  13.652
11988POPC   H6Y 1957   1.557   9.621  13.749
11988POPC   C37 1958   1.441   9.787  13.673
11988POPC   H7X 1959   1.534   9.843  13.696
11988POPC   H7Y 1960   1.357   9.839  13.725
11988POPC   C38 1961   1.412   9.796  13.522
11988POPC   H8X 1962   1.389   9.902  13.497
11988POPC   H8Y 1963   1.322   9.735  13.497
11988POPC   C39 1964   1.529   9.753  13.432
11988POPC   H9X 1965   1.538   9.643  13.435
11988POPC   H9Y 1966   1.624   9.796  13.470
11988POPC  C310 1967   1.511   9.796  13.285
11988POPC  H10X 1968   1.605   9.780  13.229
11988POPC  H10Y 1969   1.488   9.904  13.284
11988POPC  C311 1970   1.398   9.719  13.214
11988POPC  H11X 1971   1.384   9.764  13.113
11988POPC  H11Y 1972   1.303   9.732  13.270
11988POPC  C312 1973   1.428   9.569  13.199
11988POPC  H12X 1974   1.457   9.527  13.298
11988POPC  H12Y 1975   1.514   9.555  13.130
11988POPC  C313 1976   1.309   9.490  13.148
11988POPC  H13X 1977   1.224   9.497  13.220
11988POPC  H13Y 1978   1.338   9.383  13.140
11988POPC  C314 1979   1.266   9.537  13.011
11988POPC  H14X 1980   1.353   9.530  12.942
11988POPC  H14Y 1981   1.234   9.644  13.014
11988POPC  C315 1982   1.151   9.455  12.955
11988POPC  H15X 1983   1.059   9.483  13.012
11988POPC  H15Y 1984   1.169   9.347  12.969
11988POPC  C316 1985   1.135   9.485  12.807
11988POPC  H16X 1986   1.101   9.590  12.791
11988POPC  H16Y 1987   1.065   9.420  12.755
11988POPC  H16Z 1988   1.232   9.470  12.756
11989POPC     N 1989   1.101   8.616  14.776
11989POPC   C12 1990   0.989   8.634  14.674
11989POPC  H12A 1991   0.922   8.549  14.678
11989POPC  H12B 1992   1.032   8.635  14.575
11989POPC   C13 1993   1.172   8.486  14.761
11989POPC  H13A 1994   1.104   8.404  14.778
11989POPC  H13B 1995   1.216   8.476  14.663
11989POPC  H13C 1996   1.250   8.479  14.835
11989POPC   C14 1997   1.204   8.724  14.759
11989POPC  H14A 1998   1.279   8.726  14.838
11989POPC  H14B 1999   1.252   8.720  14.662
11989POPC  H14C 2000   1.153   8.821  14.761
11989POPC   C15 2001   1.041   8.620  14.911
11989POPC  H15A 2002   0.975   8.535  14.929
11989POPC  H15B 2003   0.986   8.711  14.928
11989POPC  H15C 2004   1.116   8.611  14.989
11989POPC   C11 2005   0.901   8.762  14.685
11989POPC  H11A 2006   0.847   8.762  14.782
11989POPC  H11B 2007   0.823   8.756  14.605
11989POPC     P 2008   0.937   9.000  14.575
11989POPC   O13 2009   1.048   9.099  14.571
11989POPC   O14 2010   0.807   9.054  14.620
11989POPC   O12 2011   0.978   8.883  14.676
11989POPC   O11 2012   0.919   8.921  14.439
11989POPC    C1 2013   1.015   8.825  14.393
11989POPC    HA 2014   0.962   8.750  14.330
11989POPC    HB 2015   1.066   8.771  14.475
11989POPC    C2 2016   1.127   8.887  14.306
11989POPC    HS 2017   1.203   8.929  14.377
11989POPC   O21 2018   1.065   8.992  14.232
11989POPC   C21 2019   1.145   9.082  14.184
11989POPC   O22 2020   1.267   9.080  14.189
11989POPC   C22 2021   1.059   9.186  14.116
11989POPC   H2R 2022   1.109   9.284  14.126
11989POPC   H2S 2023   0.962   9.192  14.170
11989POPC    C3 2024   1.194   8.781  14.214
11989POPC    HX 2025   1.233   8.700  14.279
11989POPC    HY 2026   1.284   8.826  14.165
11989POPC   O31 2027   1.098   8.726  14.121
11989POPC   C31 2028   1.098   8.785  14.001
11989POPC   O32 2029   1.188   8.854  13.957
11989POPC   C32 2030   0.962   8.768  13.931
11989POPC   H2X 2031   0.928   8.870  13.904
11989POPC   H2Y 2032   0.889   8.727  14.004
11989POPC   C23 2033   1.037   9.147  13.970
11989POPC   H3R 2034   0.997   9.043  13.971
11989POPC   H3S 2035   1.132   9.144  13.911
11989POPC   C24 2036   0.932   9.234  13.902
11989POPC   H4R 2037   0.982   9.316  13.847
11989POPC   H4S 2038   0.869   9.279  13.983
11989POPC   C25 2039   0.838   9.155  13.811
11989POPC   H5R 2040   0.756   9.221  13.774
11989POPC   H5S 2041   0.789   9.073  13.869
11989POPC   C26 2042   0.908   9.096  13.689
11989POPC   H6R 2043   0.981   9.020  13.723
11989POPC   H6S 2044   0.964   9.176  13.635
11989POPC   C27 2045   0.807   9.033  13.591
11989POPC   H7R 2046   0.750   9.115  13.542
11989POPC   H7S 2047   0.734   8.971  13.647
11989POPC   C28 2048   0.872   8.946  13.483
11989POPC   H8R 2049   0.798   8.934  13.401
11989POPC   H8S 2050   0.883   8.844  13.525
11989POPC   C29 2051   1.006   8.994  13.433
11989POPC   H91 2052   1.090   8.935  13.470
11989POPC  C210 2053   1.034   9.099  13.354
11989POPC  H101 2054   1.137   9.110  13.321
11989POPC  C211 2055   0.938   9.196  13.291
11989POPC  H11R 2056   0.974   9.301  13.304
11989POPC  H11S 2057   0.837   9.190  13.337
11989POPC  C212 2058   0.924   9.171  13.140
11989POPC  H12R 2059   1.008   9.220  13.086
11989POPC  H12S 2060   0.830   9.219  13.106
11989POPC  C213 2061   0.920   9.023  13.097
11989POPC  H13R 2062   1.010   8.970  13.134
11989POPC  H13S 2063   0.922   9.021  12.987
11989POPC  C214 2064   0.797   8.948  13.148
11989POPC  H14R 2065   0.745   9.014  13.221
11989POPC  H14S 2066   0.830   8.857  13.203
11989POPC  C215 2067   0.696   8.911  13.039
11989POPC  H15R 2068   0.668   9.006  12.990
11989POPC  H15S 2069   0.607   8.866  13.087
11989POPC  C216 2070   0.749   8.816  12.932
11989POPC  H16R 2071   0.839   8.860  12.884
11989POPC  H16S 2072   0.673   8.804  12.851
11989POPC  C217 2073   0.784   8.679  12.987
11989POPC  H17R 2074   0.690   8.623  13.011
11989POPC  H17S 2075   0.841   8.689  13.082
11989POPC  C218 2076   0.869   8.603  12.887
11989POPC  H18R 2077   0.808   8.576  12.798
11989POPC  H18S 2078   0.910   8.511  12.933
11989POPC  H18T 2079   0.954   8.665  12.852
11989POPC   C33 2080   0.965   8.685  13.801
11989POPC   H3X 2081   0.866   8.694  13.751
11989POPC   H3Y 2082   0.982   8.578  13.825
11989POPC   C34 2083   1.072   8.731  13.699
11989POPC   H4X 2084   1.171   8.722  13.749
11989POPC   H4Y 2085   1.059   8.837  13.673
11989POPC   C35 2086   1.075   8.646  13.572
11989POPC   H5X 2087   1.009   8.687  13.493
11989POPC   H5Y 2088   1.032   8.547  13.597
11989POPC   C36 2089   1.218   8.624  13.520
11989POPC   H6X 2090   1.225   8.519  13.484
11989POPC   H6Y 2091   1.292   8.634  13.602
11989POPC   C37 2092   1.258   8.709  13.401
11989POPC   H7X 2093   1.366   8.691  13.379
11989POPC   H7Y 2094   1.247   8.817  13.424
11989POPC   C38 2095   1.177   8.671  13.277
11989POPC   H8X 2096   1.068   8.689  13.292
11989POPC   H8Y 2097   1.189   8.562  13.256
11989POPC   C39 2098   1.227   8.747  13.157
11989POPC   H9X 2099   1.335   8.723  13.144
11989POPC   H9Y 2100   1.215   8.857  13.174
11989POPC  C310 2101   1.155   8.705  13.031
11989POPC  H10X 2102   1.047   8.727  13.041
11989POPC  H10Y 2103   1.166   8.595  13.019
11989POPC  C311 2104   1.213   8.773  12.908
11989POPC  H11X 2105   1.192   8.709  12.820
11989POPC  H11Y 2106   1.323   8.780  12.918
11989POPC  C312 2107   1.152   8.912  12.886
11989POPC  H12X 2108   1.141   8.960  12.985
11989POPC  H12Y 2109   1.052   8.903  12.840
11989POPC  C313 2110   1.241   9.006  12.806
11989POPC  H13X 2111   1.325   9.036  12.871
11989POPC  H13Y 2112   1.188   9.101  12.788
11989POPC  C314 2113   1.292   8.949  12.674
11989POPC  H14X 2114   1.341   8.851  12.691
11989POPC  H14Y 2115   1.369   9.019  12.633
11989POPC  C315 2116   1.180   8.941  12.570
11989POPC  H15X 2117   1.088   8.900  12.616
11989POPC  H15Y 2118   1.212   8.873  12.488
11989POPC  C316 2119   1.153   9.078  12.511
11989POPC  H16X 2120   1.233   9.103  12.439
11989POPC  H16Y 2121   1.153   9.153  12.593
11989POPC  H16Z 2122   1.055   9.084  12.459
11990POPC     N 2123   9.100   8.118  14.778
11990POPC   C12 2124   9.043   8.109  14.637
11990POPC  H12A 2125   8.969   8.030  14.633
11990POPC  H12B 2126   9.121   8.082  14.568
11990POPC   C13 2127   8.992   8.167  14.869
11990POPC  H13A 2128   9.013   8.151  14.973
11990POPC  H13B 2129   8.974   8.273  14.851
11990POPC  H13C 2130   8.898   8.118  14.843
11990POPC   C14 2131   9.148   7.985  14.830
11990POPC  H14A 2132   9.064   7.916  14.844
11990POPC  H14B 2133   9.224   7.942  14.767
11990POPC  H14C 2134   9.190   7.997  14.930
11990POPC   C15 2135   9.213   8.216  14.784
11990POPC  H15A 2136   9.302   8.175  14.738
11990POPC  H15B 2137   9.237   8.241  14.888
11990POPC  H15C 2138   9.185   8.308  14.735
11990POPC   C11 2139   8.968   8.234  14.584
11990POPC  H11A 2140   8.962   8.229  14.473
11990POPC  H11B 2141   9.025   8.327  14.605
11990POPC     P 2142   8.718   8.151  14.599
11990POPC   O13 2143   8.596   8.234  14.581
11990POPC   O14 2144   8.709   8.032  14.688
11990POPC   O12 2145   8.838   8.244  14.645
11990POPC   O11 2146   8.772   8.102  14.457
11990POPC    C1 2147   8.695   8.085  14.337
11990POPC    HA 2148   8.585   8.092  14.356
11990POPC    HB 2149   8.717   7.984  14.296
11990POPC    C2 2150   8.732   8.179  14.218
11990POPC    HS 2151   8.651   8.166  14.142
11990POPC   O21 2152   8.862   8.139  14.167
11990POPC   C21 2153   8.867   8.106  14.038
11990POPC   O22 2154   8.778   8.117  13.957
11990POPC   C22 2155   9.004   8.043  14.012
11990POPC   H2R 2156   9.015   8.033  13.903
11990POPC   H2S 2157   8.998   7.942  14.055
11990POPC    C3 2158   8.732   8.328  14.259
11990POPC    HX 2159   8.780   8.335  14.360
11990POPC    HY 2160   8.626   8.360  14.273
11990POPC   O31 2161   8.795   8.409  14.157
11990POPC   C31 2162   8.911   8.463  14.194
11990POPC   O32 2163   8.946   8.484  14.309
11990POPC   C32 2164   9.000   8.491  14.071
11990POPC   H2X 2165   9.097   8.443  14.092
11990POPC   H2Y 2166   9.018   8.600  14.068
11990POPC   C23 2167   9.122   8.121  14.073
11990POPC   H3R 2168   9.135   8.094  14.180
11990POPC   H3S 2169   9.098   8.230  14.070
11990POPC   C24 2170   9.255   8.104  13.997
11990POPC   H4R 2171   9.238   8.048  13.903
11990POPC   H4S 2172   9.326   8.045  14.059
11990POPC   C25 2173   9.316   8.240  13.961
11990POPC   H5R 2174   9.325   8.303  14.052
11990POPC   H5S 2175   9.245   8.292  13.893
11990POPC   C26 2176   9.452   8.231  13.892
11990POPC   H6R 2177   9.458   8.139  13.831
11990POPC   H6S 2178   9.531   8.225  13.970
11990POPC   C27 2179   9.477   8.352  13.801
11990POPC   H7R 2180   9.585   8.376  13.795
11990POPC   H7S 2181   9.425   8.440  13.844
11990POPC   C28 2182   9.425   8.322  13.659
11990POPC   H8R 2183   9.329   8.265  13.671
11990POPC   H8S 2184   9.497   8.253  13.610
11990POPC   C29 2185   9.398   8.443  13.575
11990POPC   H91 2186   9.402   8.541  13.625
11990POPC  C210 2187   9.366   8.435  13.445
11990POPC  H101 2188   9.344   8.528  13.390
11990POPC  C211 2189   9.352   8.305  13.369
11990POPC  H11R 2190   9.258   8.254  13.397
11990POPC  H11S 2191   9.432   8.234  13.397
11990POPC  C212 2192   9.355   8.325  13.216
11990POPC  H12R 2193   9.332   8.226  13.169
11990POPC  H12S 2194   9.457   8.356  13.183
11990POPC  C213 2195   9.254   8.425  13.163
11990POPC  H13R 2196   9.258   8.426  13.051
11990POPC  H13S 2197   9.278   8.528  13.196
11990POPC  C214 2198   9.112   8.388  13.207
11990POPC  H14R 2199   9.104   8.355  13.312
11990POPC  H14S 2200   9.086   8.302  13.145
11990POPC  C215 2201   9.013   8.499  13.182
11990POPC  H15R 2202   9.053   8.560  13.098
11990POPC  H15S 2203   9.006   8.565  13.272
11990POPC  C216 2204   8.874   8.447  13.143
11990POPC  H16R 2205   8.817   8.422  13.235
11990POPC  H16S 2206   8.882   8.355  13.082
11990POPC  C217 2207   8.801   8.547  13.057
11990POPC  H17R 2208   8.695   8.516  13.050
11990POPC  H17S 2209   8.842   8.546  12.954
11990POPC  C218 2210   8.815   8.688  13.113
11990POPC  H18R 2211   8.800   8.691  13.223
11990POPC  H18S 2212   8.744   8.755  13.064
11990POPC  H18T 2213   8.916   8.727  13.092
11990POPC   C33 2214   8.951   8.446  13.930
11990POPC   H3X 2215   8.844   8.473  13.917
11990POPC   H3Y 2216   8.956   8.335  13.922
11990POPC   C34 2217   9.041   8.508  13.821
11990POPC   H4X 2218   9.144   8.471  13.840
11990POPC   H4Y 2219   9.043   8.618  13.836
11990POPC   C35 2220   9.008   8.481  13.672
11990POPC   H5X 2221   9.103   8.493  13.615
11990POPC   H5Y 2222   8.940   8.560  13.635
11990POPC   C36 2223   8.948   8.345  13.637
11990POPC   H6X 2224   8.923   8.344  13.528
11990POPC   H6Y 2225   8.852   8.330  13.692
11990POPC   C37 2226   9.042   8.227  13.665
11990POPC   H7X 2227   9.082   8.234  13.768
11990POPC   H7Y 2228   9.128   8.235  13.595
11990POPC   C38 2229   8.973   8.092  13.645
11990POPC   H8X 2230   8.908   8.101  13.556
11990POPC   H8Y 2231   8.905   8.072  13.731
11990POPC   C39 2232   9.074   7.977  13.628
11990POPC   H9X 2233   9.140   7.970  13.717
11990POPC   H9Y 2234   9.140   8.000  13.541
11990POPC  C310 2235   9.008   7.840  13.604
11990POPC  H10X 2236   8.962   7.804  13.699
11990POPC  H10Y 2237   9.087   7.767  13.576
11990POPC  C311 2238   8.900   7.840  13.495
11990POPC  H11X 2239   8.809   7.889  13.536
11990POPC  H11Y 2240   8.872   7.735  13.470
11990POPC  C312 2241   8.938   7.912  13.365
11990POPC  H12X 2242   9.007   7.848  13.306
11990POPC  H12Y 2243   8.993   8.007  13.385
11990POPC  C313 2244   8.815   7.949  13.282
11990POPC  H13X 2245   8.765   8.036  13.329
11990POPC  H13Y 2246   8.743   7.864  13.282
11990POPC  C314 2247   8.849   7.983  13.137
11990POPC  H14X 2248   8.755   8.017  13.090
11990POPC  H14Y 2249   8.885   7.891  13.085
11990POPC  C315 2250   8.956   8.093  13.121
11990POPC  H15X 2251   9.050   8.060  13.169
11990POPC  H15Y 2252   8.919   8.180  13.179
11990POPC  C316 2253   8.989   8.133  12.976
11990POPC  H16X 2254   8.902   8.177  12.924
11990POPC  H16Y 2255   9.026   8.046  12.918
11990POPC  H16Z 2256   9.069   8.210  12.971
11991POPC     N 2257   8.171   0.588  14.759
11991POPC   C12 2258   8.264   0.522  14.657
11991POPC  H12A 2259   8.326   0.450  14.711
11991POPC  H12B 2260   8.330   0.598  14.616
11991POPC   C13 2261   8.059   0.658  14.689
11991POPC  H13A 2262   8.095   0.735  14.620
11991POPC  H13B 2263   8.005   0.584  14.631
11991POPC  H13C 2264   7.992   0.704  14.760
11991POPC   C14 2265   8.113   0.482  14.849
11991POPC  H14A 2266   8.192   0.413  14.881
11991POPC  H14B 2267   8.067   0.524  14.937
11991POPC  H14C 2268   8.043   0.418  14.795
11991POPC   C15 2269   8.252   0.683  14.844
11991POPC  H15A 2270   8.188   0.734  14.916
11991POPC  H15B 2271   8.306   0.758  14.786
11991POPC  H15C 2272   8.328   0.631  14.902
11991POPC   C11 2273   8.200   0.446  14.537
11991POPC  H11A 2274   8.280   0.414  14.466
11991POPC  H11B 2275   8.134   0.514  14.478
11991POPC     P 2276   8.192   0.206  14.637
11991POPC   O13 2277   8.085   0.108  14.665
11991POPC   O14 2278   8.280   0.247  14.750
11991POPC   O12 2279   8.123   0.336  14.581
11991POPC   O11 2280   8.284   0.153  14.519
11991POPC    C1 2281   8.268   0.018  14.476
11991POPC    HA 2282   8.224  -0.049  14.553
11991POPC    HB 2283   8.369  -0.024  14.460
11991POPC    C2 2284   8.180   0.005  14.347
11991POPC    HS 2285   8.171  -0.103  14.327
11991POPC   O21 2286   8.236   0.067  14.232
11991POPC   C21 2287   8.362   0.050  14.206
11991POPC   O22 2288   8.436  -0.040  14.245
11991POPC   C22 2289   8.403   0.173  14.130
11991POPC   H2R 2290   8.341   0.183  14.038
11991POPC   H2S 2291   8.510   0.165  14.102
11991POPC    C3 2292   8.036   0.063  14.360
11991POPC    HX 2293   8.045   0.169  14.394
11991POPC    HY 2294   7.983   0.008  14.440
11991POPC   O31 2295   7.965   0.050  14.234
11991POPC   C31 2296   7.938   0.162  14.168
11991POPC   O32 2297   7.947   0.275  14.212
11991POPC   C32 2298   7.891   0.126  14.026
11991POPC   H2X 2299   7.822   0.040  14.034
11991POPC   H2Y 2300   7.980   0.096  13.968
11991POPC   C23 2301   8.377   0.290  14.226
11991POPC   H3R 2302   8.427   0.267  14.324
11991POPC   H3S 2303   8.269   0.303  14.247
11991POPC   C24 2304   8.435   0.421  14.176
11991POPC   H4R 2305   8.543   0.402  14.157
11991POPC   H4S 2306   8.426   0.496  14.258
11991POPC   C25 2307   8.370   0.477  14.049
11991POPC   H5R 2308   8.393   0.413  13.961
11991POPC   H5S 2309   8.414   0.577  14.030
11991POPC   C26 2310   8.218   0.496  14.061
11991POPC   H6R 2311   8.193   0.515  14.168
11991POPC   H6S 2312   8.167   0.401  14.033
11991POPC   C27 2313   8.163   0.615  13.981
11991POPC   H7R 2314   8.200   0.708  14.029
11991POPC   H7S 2315   8.052   0.615  13.989
11991POPC   C28 2316   8.205   0.619  13.832
11991POPC   H8R 2317   8.315   0.634  13.828
11991POPC   H8S 2318   8.158   0.708  13.784
11991POPC   C29 2319   8.160   0.493  13.763
11991POPC   H91 2320   8.055   0.466  13.779
11991POPC  C210 2321   8.236   0.412  13.686
11991POPC  H101 2322   8.189   0.324  13.640
11991POPC  C211 2323   8.381   0.432  13.654
11991POPC  H11R 2324   8.444   0.355  13.703
11991POPC  H11S 2325   8.420   0.531  13.686
11991POPC  C212 2326   8.400   0.421  13.502
11991POPC  H12R 2327   8.381   0.318  13.468
11991POPC  H12S 2328   8.506   0.442  13.480
11991POPC  C213 2329   8.315   0.519  13.422
11991POPC  H13R 2330   8.312   0.617  13.475
11991POPC  H13S 2331   8.210   0.483  13.416
11991POPC  C214 2332   8.370   0.537  13.280
11991POPC  H14R 2333   8.416   0.441  13.249
11991POPC  H14S 2334   8.452   0.612  13.281
11991POPC  C215 2335   8.263   0.576  13.178
11991POPC  H15R 2336   8.218   0.671  13.209
11991POPC  H15S 2337   8.183   0.498  13.179
11991POPC  C216 2338   8.317   0.591  13.036
11991POPC  H16R 2339   8.359   0.494  13.003
11991POPC  H16S 2340   8.400   0.665  13.034
11991POPC  C217 2341   8.207   0.635  12.939
11991POPC  H17R 2342   8.182   0.742  12.959
11991POPC  H17S 2343   8.115   0.576  12.958
11991POPC  C218 2344   8.247   0.618  12.792
11991POPC  H18R 2345   8.343   0.670  12.772
11991POPC  H18S 2346   8.169   0.658  12.725
11991POPC  H18T 2347   8.262   0.511  12.768
11991POPC   C33 2348   7.820   0.243  13.953
11991POPC   H3X 2349   7.896   0.316  13.917
11991POPC   H3Y 2350   7.755   0.297  14.024
11991POPC   C34 2351   7.731   0.194  13.837
11991POPC   H4X 2352   7.671   0.281  13.800
11991POPC   H4Y 2353   7.658   0.120  13.876
11991POPC   C35 2354   7.806   0.134  13.717
11991POPC   H5X 2355   7.731   0.101  13.642
11991POPC   H5Y 2356   7.863   0.044  13.749
11991POPC   C36 2357   7.900   0.235  13.651
11991POPC   H6X 2358   7.992   0.245  13.712
11991POPC   H6Y 2359   7.849   0.334  13.652
11991POPC   C37 2360   7.936   0.204  13.505
11991POPC   H7X 2361   7.984   0.296  13.467
11991POPC   H7Y 2362   7.843   0.189  13.445
11991POPC   C38 2363   8.031   0.084  13.483
11991POPC   H8X 2364   7.976  -0.010  13.507
11991POPC   H8Y 2365   8.116   0.092  13.554
11991POPC   C39 2366   8.087   0.076  13.340
11991POPC   H9X 2367   8.003   0.076  13.268
11991POPC   H9Y 2368   8.142  -0.020  13.327
11991POPC  C310 2369   8.184   0.193  13.310
11991POPC  H10X 2370   8.273   0.177  13.374
11991POPC  H10Y 2371   8.137   0.289  13.340
11991POPC  C311 2372   8.232   0.214  13.166
11991POPC  H11X 2373   8.298   0.130  13.136
11991POPC  H11Y 2374   8.295   0.305  13.163
11991POPC  C312 2375   8.121   0.233  13.063
11991POPC  H12X 2376   8.054   0.317  13.090
11991POPC  H12Y 2377   8.061   0.141  13.066
11991POPC  C313 2378   8.180   0.257  12.923
11991POPC  H13X 2379   8.267   0.191  12.906
11991POPC  H13Y 2380   8.223   0.359  12.921
11991POPC  C314 2381   8.084   0.245  12.805
11991POPC  H14X 2382   8.144   0.239  12.711
11991POPC  H14Y 2383   8.029   0.341  12.803
11991POPC  C315 2384   7.981   0.130  12.806
11991POPC  H15X 2385   7.881   0.175  12.782
11991POPC  H15Y 2386   7.968   0.083  12.906
11991POPC  C316 2387   8.009   0.019  12.705
11991POPC  H16X 2388   8.099   0.042  12.644
11991POPC  H16Y 2389   7.923   0.007  12.636
11991POPC  H16Z 2390   8.028  -0.078  12.756
11992POPC     N 2391   0.066   1.056  14.829
11992POPC   C12 2392   0.075   1.067  14.676
11992POPC  H12A 2393   0.114   1.165  14.649
11992POPC  H12B 2394  -0.023   1.062  14.631
11992POPC   C13 2395   0.029   0.916  14.870
11992POPC  H13A 2396   0.109   0.848  14.842
11992POPC  H13B 2397   0.016   0.904  14.977
11992POPC  H13C 2398  -0.062   0.886  14.821
11992POPC   C14 2399   0.199   1.088  14.888
11992POPC  H14A 2400   0.275   1.030  14.835
11992POPC  H14B 2401   0.222   1.192  14.872
11992POPC  H14C 2402   0.202   1.067  14.995
11992POPC   C15 2403  -0.032   1.153  14.886
11992POPC  H15A 2404  -0.134   1.116  14.879
11992POPC  H15B 2405  -0.026   1.248  14.834
11992POPC  H15C 2406  -0.008   1.169  14.991
11992POPC   C11 2407   0.168   0.968  14.601
11992POPC  H11A 2408   0.157   0.984  14.491
11992POPC  H11B 2409   0.139   0.863  14.621
11992POPC     P 2410   0.426   0.963  14.551
11992POPC   O13 2411   0.407   0.836  14.477
11992POPC   O14 2412   0.542   0.979  14.641
11992POPC   O12 2413   0.302   0.990  14.643
11992POPC   O11 2414   0.428   1.085  14.453
11992POPC    C1 2415   0.411   1.213  14.513
11992POPC    HA 2416   0.494   1.235  14.585
11992POPC    HB 2417   0.315   1.217  14.570
11992POPC    C2 2418   0.404   1.324  14.406
11992POPC    HS 2419   0.326   1.396  14.440
11992POPC   O21 2420   0.372   1.281  14.271
11992POPC   C21 2421   0.264   1.203  14.260
11992POPC   O22 2422   0.189   1.173  14.351
11992POPC   C22 2423   0.226   1.181  14.113
11992POPC   H2R 2424   0.126   1.132  14.113
11992POPC   H2S 2425   0.297   1.109  14.071
11992POPC    C3 2426   0.540   1.400  14.407
11992POPC    HX 2427   0.560   1.436  14.510
11992POPC    HY 2428   0.521   1.491  14.347
11992POPC   O31 2429   0.648   1.322  14.351
11992POPC   C31 2430   0.720   1.252  14.439
11992POPC   O32 2431   0.746   1.289  14.552
11992POPC   C32 2432   0.753   1.115  14.382
11992POPC   H2X 2433   0.670   1.048  14.409
11992POPC   H2Y 2434   0.843   1.077  14.433
11992POPC   C23 2435   0.219   1.307  14.023
11992POPC   H3R 2436   0.306   1.373  14.046
11992POPC   H3S 2437   0.128   1.364  14.048
11992POPC   C24 2438   0.222   1.280  13.871
11992POPC   H4R 2439   0.320   1.237  13.841
11992POPC   H4S 2440   0.213   1.379  13.820
11992POPC   C25 2441   0.107   1.192  13.814
11992POPC   H5R 2442   0.015   1.232  13.859
11992POPC   H5S 2443   0.117   1.087  13.849
11992POPC   C26 2444   0.101   1.197  13.659
11992POPC   H6R 2445   0.189   1.142  13.621
11992POPC   H6S 2446   0.117   1.303  13.628
11992POPC   C27 2447  -0.026   1.143  13.586
11992POPC   H7R 2448  -0.107   1.124  13.660
11992POPC   H7S 2449  -0.002   1.043  13.543
11992POPC   C28 2450  -0.082   1.235  13.473
11992POPC   H8R 2451  -0.036   1.335  13.487
11992POPC   H8S 2452  -0.192   1.249  13.485
11992POPC   C29 2453  -0.042   1.196  13.332
11992POPC   H91 2454   0.064   1.172  13.329
11992POPC  C210 2455  -0.109   1.200  13.215
11992POPC  H101 2456  -0.056   1.166  13.124
11992POPC  C211 2457  -0.251   1.248  13.187
11992POPC  H11R 2458  -0.291   1.305  13.273
11992POPC  H11S 2459  -0.313   1.157  13.183
11992POPC  C212 2460  -0.283   1.334  13.059
11992POPC  H12R 2461  -0.307   1.438  13.090
11992POPC  H12S 2462  -0.376   1.296  13.014
11992POPC  C213 2463  -0.176   1.347  12.948
11992POPC  H13R 2464  -0.073   1.345  12.988
11992POPC  H13S 2465  -0.189   1.445  12.895
11992POPC  C214 2466  -0.200   1.236  12.848
11992POPC  H14R 2467  -0.295   1.258  12.793
11992POPC  H14S 2468  -0.213   1.145  12.911
11992POPC  C215 2469  -0.093   1.206  12.746
11992POPC  H15R 2470   0.003   1.186  12.797
11992POPC  H15S 2471  -0.080   1.293  12.678
11992POPC  C216 2472  -0.134   1.083  12.664
11992POPC  H16R 2473  -0.085   1.089  12.565
11992POPC  H16S 2474  -0.243   1.087  12.642
11992POPC  C217 2475  -0.098   0.950  12.734
11992POPC  H17R 2476  -0.136   0.948  12.839
11992POPC  H17S 2477   0.013   0.945  12.746
11992POPC  C218 2478  -0.148   0.825  12.660
11992POPC  H18R 2479  -0.137   0.833  12.550
11992POPC  H18S 2480  -0.255   0.807  12.679
11992POPC  H18T 2481  -0.089   0.737  12.693
11992POPC   C33 2482   0.773   1.106  14.230
11992POPC   H3X 2483   0.855   1.169  14.194
11992POPC   H3Y 2484   0.680   1.137  14.177
11992POPC   C34 2485   0.806   0.960  14.197
11992POPC   H4X 2486   0.860   0.914  14.282
11992POPC   H4Y 2487   0.871   0.955  14.107
11992POPC   C35 2488   0.678   0.882  14.170
11992POPC   H5X 2489   0.600   0.906  14.246
11992POPC   H5Y 2490   0.700   0.774  14.183
11992POPC   C36 2491   0.628   0.907  14.028
11992POPC   H6X 2492   0.634   0.812  13.971
11992POPC   H6Y 2493   0.694   0.980  13.977
11992POPC   C37 2494   0.486   0.962  14.024
11992POPC   H7X 2495   0.494   1.071  14.046
11992POPC   H7Y 2496   0.425   0.915  14.104
11992POPC   C38 2497   0.415   0.942  13.889
11992POPC   H8X 2498   0.315   0.991  13.894
11992POPC   H8Y 2499   0.396   0.833  13.874
11992POPC   C39 2500   0.491   1.000  13.769
11992POPC   H9X 2501   0.595   0.961  13.766
11992POPC   H9Y 2502   0.498   1.110  13.783
11992POPC  C310 2503   0.422   0.968  13.636
11992POPC  H10X 2504   0.313   0.956  13.657
11992POPC  H10Y 2505   0.459   0.871  13.597
11992POPC  C311 2506   0.440   1.079  13.531
11992POPC  H11X 2507   0.548   1.104  13.520
11992POPC  H11Y 2508   0.391   1.171  13.570
11992POPC  C312 2509   0.380   1.047  13.393
11992POPC  H12X 2510   0.457   1.000  13.328
11992POPC  H12Y 2511   0.350   1.143  13.346
11992POPC  C313 2512   0.257   0.955  13.398
11992POPC  H13X 2513   0.192   0.989  13.481
11992POPC  H13Y 2514   0.288   0.852  13.423
11992POPC  C314 2515   0.171   0.957  13.271
11992POPC  H14X 2516   0.183   1.054  13.218
11992POPC  H14Y 2517   0.064   0.947  13.302
11992POPC  C315 2518   0.197   0.843  13.172
11992POPC  H15X 2519   0.183   0.746  13.224
11992POPC  H15Y 2520   0.303   0.849  13.137
11992POPC  C316 2521   0.102   0.851  13.053
11992POPC  H16X 2522   0.110   0.950  13.003
11992POPC  H16Y 2523  -0.003   0.839  13.088
11992POPC  H16Z 2524   0.124   0.772  12.978
11993POPC     N 2525   8.458   8.856  14.744
11993POPC   C12 2526   8.529   8.956  14.653
11993POPC  H12A 2527   8.582   9.028  14.715
11993POPC  H12B 2528   8.457   9.011  14.594
11993POPC   C13 2529   8.420   8.735  14.665
11993POPC  H13A 2530   8.382   8.657  14.729
11993POPC  H13B 2531   8.351   8.756  14.585
11993POPC  H13C 2532   8.513   8.698  14.620
11993POPC   C14 2533   8.561   8.813  14.844
11993POPC  H14A 2534   8.608   8.897  14.894
11993POPC  H14B 2535   8.525   8.740  14.915
11993POPC  H14C 2536   8.644   8.765  14.790
11993POPC   C15 2537   8.341   8.914  14.816
11993POPC  H15A 2538   8.298   8.840  14.883
11993POPC  H15B 2539   8.263   8.946  14.748
11993POPC  H15C 2540   8.369   8.997  14.879
11993POPC   C11 2541   8.634   8.897  14.555
11993POPC  H11A 2542   8.666   8.977  14.486
11993POPC  H11B 2543   8.589   8.821  14.488
11993POPC     P 2544   8.860   8.924  14.690
11993POPC   O13 2545   8.969   8.835  14.738
11993POPC   O14 2546   8.795   9.006  14.794
11993POPC   O12 2547   8.746   8.838  14.618
11993POPC   O11 2548   8.918   9.020  14.575
11993POPC    C1 2549   8.854   9.140  14.530
11993POPC    HA 2550   8.916   9.226  14.565
11993POPC    HB 2551   8.753   9.156  14.576
11993POPC    C2 2552   8.841   9.162  14.373
11993POPC    HS 2553   8.846   9.272  14.362
11993POPC   O21 2554   8.715   9.113  14.318
11993POPC   C21 2555   8.680   9.168  14.199
11993POPC   O22 2556   8.733   9.268  14.154
11993POPC   C22 2557   8.579   9.080  14.124
11993POPC   H2R 2558   8.479   9.095  14.167
11993POPC   H2S 2559   8.606   8.974  14.141
11993POPC    C3 2560   8.957   9.098  14.290
11993POPC    HX 2561   9.047   9.096  14.355
11993POPC    HY 2562   8.981   9.164  14.204
11993POPC   O31 2563   8.926   8.963  14.250
11993POPC   C31 2564   8.883   8.942  14.126
11993POPC   O32 2565   8.895   9.018  14.032
11993POPC   C32 2566   8.812   8.806  14.130
11993POPC   H2X 2567   8.741   8.810  14.216
11993POPC   H2Y 2568   8.890   8.733  14.158
11993POPC   C23 2569   8.580   9.112  13.972
11993POPC   H3R 2570   8.656   9.048  13.923
11993POPC   H3S 2571   8.612   9.217  13.954
11993POPC   C24 2572   8.445   9.097  13.900
11993POPC   H4R 2573   8.373   9.168  13.947
11993POPC   H4S 2574   8.405   8.995  13.913
11993POPC   C25 2575   8.458   9.131  13.750
11993POPC   H5R 2576   8.519   9.223  13.740
11993POPC   H5S 2577   8.357   9.151  13.707
11993POPC   C26 2578   8.522   9.015  13.672
11993POPC   H6R 2579   8.445   8.937  13.656
11993POPC   H6S 2580   8.600   8.969  13.735
11993POPC   C27 2581   8.584   9.047  13.535
11993POPC   H7R 2582   8.507   9.092  13.468
11993POPC   H7S 2583   8.614   8.950  13.489
11993POPC   C28 2584   8.711   9.135  13.539
11993POPC   H8R 2585   8.681   9.238  13.568
11993POPC   H8S 2586   8.751   9.142  13.435
11993POPC   C29 2587   8.816   9.086  13.635
11993POPC   H91 2588   8.804   9.124  13.738
11993POPC  C210 2589   8.920   9.004  13.610
11993POPC  H101 2590   8.989   8.981  13.694
11993POPC  C211 2591   8.956   8.940  13.478
11993POPC  H11R 2592   8.900   8.987  13.395
11993POPC  H11S 2593   8.927   8.833  13.480
11993POPC  C212 2594   9.106   8.948  13.447
11993POPC  H12R 2595   9.163   8.897  13.528
11993POPC  H12S 2596   9.140   9.054  13.445
11993POPC  C213 2597   9.143   8.881  13.313
11993POPC  H13R 2598   9.123   8.772  13.319
11993POPC  H13S 2599   9.252   8.893  13.295
11993POPC  C214 2600   9.070   8.939  13.191
11993POPC  H14R 2601   9.082   9.050  13.191
11993POPC  H14S 2602   8.962   8.919  13.199
11993POPC  C215 2603   9.124   8.879  13.061
11993POPC  H15R 2604   9.110   8.769  13.067
11993POPC  H15S 2605   9.235   8.892  13.056
11993POPC  C216 2606   9.062   8.930  12.930
11993POPC  H16R 2607   9.082   8.856  12.852
11993POPC  H16S 2608   9.111   9.020  12.890
11993POPC  C217 2609   8.913   8.960  12.926
11993POPC  H17R 2610   8.886   9.028  13.010
11993POPC  H17S 2611   8.858   8.865  12.938
11993POPC  C218 2612   8.869   9.019  12.792
11993POPC  H18R 2613   8.854   9.129  12.800
11993POPC  H18S 2614   8.774   8.974  12.760
11993POPC  H18T 2615   8.946   9.000  12.714
11993POPC   C33 2616   8.732   8.757  14.006
11993POPC   H3X 2617   8.628   8.797  14.010
11993POPC   H3Y 2618   8.723   8.646  14.015
11993POPC   C34 2619   8.791   8.789  13.868
11993POPC   H4X 2620   8.902   8.779  13.875
11993POPC   H4Y 2621   8.770   8.894  13.842
11993POPC   C35 2622   8.742   8.697  13.755
11993POPC   H5X 2623   8.775   8.595  13.779
11993POPC   H5Y 2624   8.792   8.727  13.660
11993POPC   C36 2625   8.590   8.689  13.730
11993POPC   H6X 2626   8.564   8.765  13.653
11993POPC   H6Y 2627   8.533   8.712  13.822
11993POPC   C37 2628   8.544   8.552  13.675
11993POPC   H7X 2629   8.437   8.557  13.646
11993POPC   H7Y 2630   8.552   8.477  13.758
11993POPC   C38 2631   8.629   8.501  13.557
11993POPC   H8X 2632   8.603   8.397  13.531
11993POPC   H8Y 2633   8.735   8.497  13.591
11993POPC   C39 2634   8.625   8.589  13.431
11993POPC   H9X 2635   8.706   8.555  13.363
11993POPC   H9Y 2636   8.648   8.693  13.461
11993POPC  C310 2637   8.492   8.585  13.353
11993POPC  H10X 2638   8.410   8.617  13.419
11993POPC  H10Y 2639   8.471   8.480  13.322
11993POPC  C311 2640   8.495   8.673  13.227
11993POPC  H11X 2641   8.398   8.671  13.174
11993POPC  H11Y 2642   8.566   8.628  13.155
11993POPC  C312 2643   8.537   8.819  13.252
11993POPC  H12X 2644   8.641   8.821  13.292
11993POPC  H12Y 2645   8.471   8.865  13.329
11993POPC  C313 2646   8.533   8.908  13.128
11993POPC  H13X 2647   8.427   8.926  13.100
11993POPC  H13Y 2648   8.578   8.856  13.041
11993POPC  C314 2649   8.607   9.041  13.150
11993POPC  H14X 2650   8.707   9.021  13.195
11993POPC  H14Y 2651   8.549   9.104  13.221
11993POPC  C315 2652   8.626   9.118  13.019
11993POPC  H15X 2653   8.526   9.136  12.979
11993POPC  H15Y 2654   8.673   9.051  12.945
11993POPC  C316 2655   8.702   9.250  13.029
11993POPC  H16X 2656   8.666   9.309  13.116
11993POPC  H16Y 2657   8.687   9.311  12.937
11993POPC  H16Z 2658   8.812   9.232  13.041
11994POPC     N 2659   0.829   0.280  14.817
11994POPC   C12 2660   0.738   0.402  14.807
11994POPC  H12A 2661   0.751   0.464  14.895
11994POPC  H12B 2662   0.635   0.365  14.808
11994POPC   C13 2663   0.774   0.169  14.731
11994POPC  H13A 2664   0.822   0.073  14.746
11994POPC  H13B 2665   0.667   0.154  14.754
11994POPC  H13C 2666   0.771   0.198  14.626
11994POPC   C14 2667   0.965   0.310  14.768
11994POPC  H14A 2668   0.953   0.352  14.668
11994POPC  H14B 2669   1.014   0.382  14.833
11994POPC  H14C 2670   1.022   0.218  14.764
11994POPC   C15 2671   0.827   0.228  14.957
11994POPC  H15A 2672   0.877   0.132  14.963
11994POPC  H15B 2673   0.724   0.207  14.986
11994POPC  H15C 2674   0.869   0.298  15.029
11994POPC   C11 2675   0.748   0.491  14.680
11994POPC  H11A 2676   0.850   0.535  14.670
11994POPC  H11B 2677   0.681   0.580  14.694
11994POPC     P 2678   0.558   0.378  14.549
11994POPC   O13 2679   0.478   0.500  14.568
11994POPC   O14 2680   0.531   0.275  14.650
11994POPC   O12 2681   0.714   0.415  14.564
11994POPC   O11 2682   0.541   0.317  14.404
11994POPC    C1 2683   0.645   0.235  14.351
11994POPC    HA 2684   0.597   0.165  14.281
11994POPC    HB 2685   0.697   0.176  14.429
11994POPC    C2 2686   0.742   0.317  14.267
11994POPC    HS 2687   0.787   0.394  14.336
11994POPC   O21 2688   0.660   0.374  14.165
11994POPC   C21 2689   0.688   0.498  14.138
11994POPC   O22 2690   0.787   0.558  14.178
11994POPC   C22 2691   0.584   0.546  14.038
11994POPC   H2R 2692   0.553   0.648  14.066
11994POPC   H2S 2693   0.494   0.481  14.045
11994POPC    C3 2694   0.857   0.233  14.205
11994POPC    HX 2695   0.895   0.166  14.285
11994POPC    HY 2696   0.942   0.301  14.178
11994POPC   O31 2697   0.811   0.154  14.094
11994POPC   C31 2698   0.825   0.211  13.973
11994POPC   O32 2699   0.902   0.302  13.947
11994POPC   C32 2700   0.721   0.153  13.877
11994POPC   H2X 2701   0.627   0.200  13.910
11994POPC   H2Y 2702   0.712   0.045  13.892
11994POPC   C23 2703   0.643   0.538  13.897
11994POPC   H3R 2704   0.659   0.432  13.870
11994POPC   H3S 2705   0.743   0.588  13.894
11994POPC   C24 2706   0.558   0.602  13.787
11994POPC   H4R 2707   0.616   0.586  13.694
11994POPC   H4S 2708   0.550   0.712  13.801
11994POPC   C25 2709   0.418   0.540  13.776
11994POPC   H5R 2710   0.353   0.577  13.858
11994POPC   H5S 2711   0.428   0.430  13.789
11994POPC   C26 2712   0.348   0.566  13.642
11994POPC   H6R 2713   0.308   0.670  13.641
11994POPC   H6S 2714   0.262   0.496  13.633
11994POPC   C27 2715   0.438   0.550  13.519
11994POPC   H7R 2716   0.484   0.448  13.517
11994POPC   H7S 2717   0.520   0.625  13.522
11994POPC   C28 2718   0.358   0.573  13.391
11994POPC   H8R 2719   0.292   0.660  13.408
11994POPC   H8S 2720   0.289   0.486  13.380
11994POPC   C29 2721   0.443   0.599  13.270
11994POPC   H91 2722   0.499   0.694  13.270
11994POPC  C210 2723   0.454   0.517  13.164
11994POPC  H101 2724   0.516   0.547  13.079
11994POPC  C211 2725   0.383   0.385  13.148
11994POPC  H11R 2726   0.334   0.384  13.049
11994POPC  H11S 2727   0.302   0.371  13.222
11994POPC  C212 2728   0.478   0.264  13.157
11994POPC  H12R 2729   0.424   0.173  13.187
11994POPC  H12S 2730   0.557   0.281  13.233
11994POPC  C213 2731   0.533   0.232  13.019
11994POPC  H13R 2732   0.572   0.327  12.976
11994POPC  H13S 2733   0.447   0.200  12.954
11994POPC  C214 2734   0.640   0.124  13.013
11994POPC  H14R 2735   0.600   0.026  13.043
11994POPC  H14S 2736   0.724   0.147  13.082
11994POPC  C215 2737   0.695   0.121  12.871
11994POPC  H15R 2738   0.721   0.227  12.853
11994POPC  H15S 2739   0.622   0.095  12.793
11994POPC  C216 2740   0.825   0.045  12.852
11994POPC  H16R 2741   0.888   0.062  12.942
11994POPC  H16S 2742   0.872   0.095  12.764
11994POPC  C217 2743   0.818  -0.104  12.820
11994POPC  H17R 2744   0.751  -0.118  12.735
11994POPC  H17S 2745   0.778  -0.162  12.906
11994POPC  C218 2746   0.952  -0.160  12.776
11994POPC  H18R 2747   0.944  -0.264  12.738
11994POPC  H18S 2748   1.023  -0.158  12.861
11994POPC  H18T 2749   0.992  -0.099  12.693
11994POPC   C33 2750   0.731   0.191  13.726
11994POPC   H3X 2751   0.727   0.301  13.714
11994POPC   H3Y 2752   0.639   0.149  13.677
11994POPC   C34 2753   0.851   0.136  13.650
11994POPC   H4X 2754   0.866   0.028  13.673
11994POPC   H4Y 2755   0.943   0.190  13.683
11994POPC   C35 2756   0.835   0.149  13.497
11994POPC   H5X 2757   0.757   0.078  13.461
11994POPC   H5Y 2758   0.932   0.118  13.451
11994POPC   C36 2759   0.800   0.291  13.452
11994POPC   H6X 2760   0.856   0.363  13.516
11994POPC   H6Y 2761   0.692   0.311  13.467
11994POPC   C37 2762   0.839   0.317  13.306
11994POPC   H7X 2763   0.768   0.264  13.240
11994POPC   H7Y 2764   0.940   0.275  13.288
11994POPC   C38 2765   0.843   0.466  13.269
11994POPC   H8X 2766   0.903   0.520  13.345
11994POPC   H8Y 2767   0.741   0.509  13.271
11994POPC   C39 2768   0.908   0.489  13.131
11994POPC   H9X 2769   1.000   0.428  13.122
11994POPC   H9Y 2770   0.937   0.596  13.122
11994POPC  C310 2771   0.812   0.458  13.015
11994POPC  H10X 2772   0.727   0.526  13.031
11994POPC  H10Y 2773   0.776   0.354  13.027
11994POPC  C311 2774   0.872   0.475  12.875
11994POPC  H11X 2775   0.944   0.391  12.858
11994POPC  H11Y 2776   0.930   0.569  12.872
11994POPC  C312 2777   0.771   0.476  12.757
11994POPC  H12X 2778   0.743   0.373  12.731
11994POPC  H12Y 2779   0.824   0.514  12.667
11994POPC  C313 2780   0.642   0.559  12.779
11994POPC  H13X 2781   0.669   0.665  12.759
11994POPC  H13Y 2782   0.606   0.555  12.883
11994POPC  C314 2783   0.521   0.516  12.694
11994POPC  H14X 2784   0.547   0.513  12.586
11994POPC  H14Y 2785   0.441   0.593  12.705
11994POPC  C315 2786   0.458   0.380  12.725
11994POPC  H15X 2787   0.405   0.387  12.822
11994POPC  H15Y 2788   0.537   0.302  12.735
11994POPC  C316 2789   0.362   0.339  12.613
11994POPC  H16X 2790   0.299   0.425  12.582
11994POPC  H16Y 2791   0.295   0.258  12.647
11994POPC  H16Z 2792   0.419   0.302  12.525
11995POPC     N 2793   0.045   8.952  14.611
11995POPC   C12 2794   0.105   8.970  14.751
11995POPC  H12A 2795   0.053   8.906  14.821
11995POPC  H12B 2796   0.084   9.071  14.787
11995POPC   C13 2797  -0.105   8.945  14.619
11995POPC  H13A 2798  -0.141   8.868  14.688
11995POPC  H13B 2799  -0.150   9.038  14.653
11995POPC  H13C 2800  -0.151   8.922  14.523
11995POPC   C14 2801   0.085   9.065  14.521
11995POPC  H14A 2802   0.042   9.056  14.423
11995POPC  H14B 2803   0.057   9.160  14.566
11995POPC  H14C 2804   0.193   9.071  14.509
11995POPC   C15 2805   0.096   8.825  14.551
11995POPC  H15A 2806   0.077   8.741  14.617
11995POPC  H15B 2807   0.203   8.834  14.537
11995POPC  H15C 2808   0.049   8.805  14.455
11995POPC   C11 2809   0.258   8.946  14.775
11995POPC  H11A 2810   0.282   8.839  14.757
11995POPC  H11B 2811   0.283   8.964  14.882
11995POPC     P 2812   0.356   9.181  14.701
11995POPC   O13 2813   0.493   9.217  14.746
11995POPC   O14 2814   0.241   9.234  14.780
11995POPC   O12 2815   0.342   9.024  14.691
11995POPC   O11 2816   0.335   9.207  14.547
11995POPC    C1 2817   0.434   9.167  14.450
11995POPC    HA 2818   0.393   9.084  14.386
11995POPC    HB 2819   0.529   9.130  14.495
11995POPC    C2 2820   0.469   9.285  14.355
11995POPC    HS 2821   0.532   9.356  14.415
11995POPC   O21 2822   0.350   9.350  14.308
11995POPC   C21 2823   0.294   9.437  14.388
11995POPC   O22 2824   0.328   9.469  14.500
11995POPC   C22 2825   0.170   9.493  14.321
11995POPC   H2R 2826   0.190   9.501  14.213
11995POPC   H2S 2827   0.155   9.596  14.359
11995POPC    C3 2828   0.553   9.245  14.229
11995POPC    HX 2829   0.514   9.148  14.189
11995POPC    HY 2830   0.659   9.227  14.258
11995POPC   O31 2831   0.546   9.352  14.132
11995POPC   C31 2832   0.455   9.336  14.037
11995POPC   O32 2833   0.420   9.229  13.991
11995POPC   C32 2834   0.398   9.473  13.995
11995POPC   H2X 2835   0.465   9.553  14.031
11995POPC   H2Y 2836   0.303   9.486  14.050
11995POPC   C23 2837   0.047   9.402  14.343
11995POPC   H3R 2838  -0.004   9.424  14.439
11995POPC   H3S 2839   0.081   9.296  14.350
11995POPC   C24 2840  -0.052   9.413  14.228
11995POPC   H4R 2841  -0.054   9.517  14.189
11995POPC   H4S 2842  -0.154   9.387  14.262
11995POPC   C25 2843  -0.015   9.318  14.113
11995POPC   H5R 2844   0.094   9.327  14.090
11995POPC   H5S 2845  -0.069   9.350  14.022
11995POPC   C26 2846  -0.048   9.171  14.145
11995POPC   H6R 2847  -0.131   9.166  14.218
11995POPC   H6S 2848   0.041   9.124  14.192
11995POPC   C27 2849  -0.090   9.089  14.021
11995POPC   H7R 2850  -0.194   9.117  13.992
11995POPC   H7S 2851  -0.092   8.981  14.048
11995POPC   C28 2852   0.002   9.110  13.900
11995POPC   H8R 2853  -0.004   9.215  13.864
11995POPC   H8S 2854  -0.035   9.047  13.817
11995POPC   C29 2855   0.144   9.079  13.939
11995POPC   H91 2856   0.193   9.154  14.003
11995POPC  C210 2857   0.217   8.975  13.896
11995POPC  H101 2858   0.322   8.966  13.929
11995POPC  C211 2859   0.167   8.871  13.799
11995POPC  H11R 2860   0.065   8.837  13.826
11995POPC  H11S 2861   0.234   8.782  13.802
11995POPC  C212 2862   0.169   8.932  13.658
11995POPC  H12R 2863   0.275   8.961  13.640
11995POPC  H12S 2864   0.109   9.026  13.655
11995POPC  C213 2865   0.120   8.841  13.545
11995POPC  H13R 2866   0.014   8.814  13.561
11995POPC  H13S 2867   0.180   8.747  13.547
11995POPC  C214 2868   0.136   8.907  13.406
11995POPC  H14R 2869   0.063   8.990  13.396
11995POPC  H14S 2870   0.117   8.832  13.327
11995POPC  C215 2871   0.276   8.966  13.389
11995POPC  H15R 2872   0.351   8.891  13.420
11995POPC  H15S 2873   0.285   9.055  13.457
11995POPC  C216 2874   0.314   9.018  13.250
11995POPC  H16R 2875   0.244   9.098  13.218
11995POPC  H16S 2876   0.309   8.936  13.175
11995POPC  C217 2877   0.456   9.073  13.260
11995POPC  H17R 2878   0.526   8.988  13.276
11995POPC  H17S 2879   0.464   9.140  13.349
11995POPC  C218 2880   0.498   9.151  13.137
11995POPC  H18R 2881   0.438   9.243  13.125
11995POPC  H18S 2882   0.483   9.088  13.047
11995POPC  H18T 2883   0.605   9.179  13.143
11995POPC   C33 2884   0.369   9.485  13.843
11995POPC   H3X 2885   0.415   9.399  13.789
11995POPC   H3Y 2886   0.418   9.576  13.803
11995POPC   C34 2887   0.218   9.491  13.813
11995POPC   H4X 2888   0.187   9.597  13.801
11995POPC   H4Y 2889   0.163   9.450  13.900
11995POPC   C35 2890   0.174   9.408  13.692
11995POPC   H5X 2891   0.063   9.394  13.697
11995POPC   H5Y 2892   0.220   9.306  13.700
11995POPC   C36 2893   0.209   9.471  13.556
11995POPC   H6X 2894   0.319   9.476  13.548
11995POPC   H6Y 2895   0.170   9.575  13.552
11995POPC   C37 2896   0.152   9.392  13.436
11995POPC   H7X 2897   0.048   9.426  13.415
11995POPC   H7Y 2898   0.150   9.283  13.459
11995POPC   C38 2899   0.240   9.414  13.312
11995POPC   H8X 2900   0.334   9.356  13.326
11995POPC   H8Y 2901   0.267   9.522  13.313
11995POPC   C39 2902   0.179   9.381  13.173
11995POPC   H9X 2903   0.102   9.303  13.186
11995POPC   H9Y 2904   0.259   9.340  13.107
11995POPC  C310 2905   0.124   9.506  13.100
11995POPC  H10X 2906   0.206   9.578  13.085
11995POPC  H10Y 2907   0.052   9.552  13.172
11995POPC  C311 2908   0.054   9.487  12.964
11995POPC  H11X 2909  -0.032   9.558  12.959
11995POPC  H11Y 2910   0.008   9.390  12.964
11995POPC  C312 2911   0.131   9.518  12.833
11995POPC  H12X 2912   0.225   9.573  12.856
11995POPC  H12Y 2913   0.066   9.590  12.777
11995POPC  C313 2914   0.159   9.401  12.734
11995POPC  H13X 2915   0.266   9.401  12.708
11995POPC  H13Y 2916   0.104   9.421  12.639
11995POPC  C314 2917   0.121   9.262  12.784
11995POPC  H14X 2918   0.014   9.263  12.809
11995POPC  H14Y 2919   0.178   9.241  12.877
11995POPC  C315 2920   0.135   9.144  12.688
11995POPC  H15X 2921   0.233   9.152  12.639
11995POPC  H15Y 2922   0.059   9.149  12.606
11995POPC  C316 2923   0.124   9.009  12.759
11995POPC  H16X 2924   0.017   8.984  12.775
11995POPC  H16Y 2925   0.175   9.012  12.858
11995POPC  H16Z 2926   0.170   8.927  12.699
11996POPC     N 2927   9.263   0.330  14.567
11996POPC   C12 2928   9.143   0.239  14.594
11996POPC  H12A 2929   9.147   0.153  14.530
11996POPC  H12B 2930   9.052   0.294  14.565
11996POPC   C13 2931   9.390   0.264  14.612
11996POPC  H13A 2932   9.479   0.318  14.581
11996POPC  H13B 2933   9.389   0.261  14.722
11996POPC  H13C 2934   9.399   0.161  14.579
11996POPC   C14 2935   9.267   0.363  14.421
11996POPC  H14A 2936   9.280   0.273  14.362
11996POPC  H14B 2937   9.175   0.411  14.390
11996POPC  H14C 2938   9.350   0.429  14.399
11996POPC   C15 2939   9.251   0.456  14.648
11996POPC  H15A 2940   9.337   0.520  14.640
11996POPC  H15B 2941   9.243   0.425  14.753
11996POPC  H15C 2942   9.159   0.510  14.631
11996POPC   C11 2943   9.118   0.190  14.739
11996POPC  H11A 2944   9.205   0.133  14.774
11996POPC  H11B 2945   9.033   0.118  14.741
11996POPC     P 2946   8.961   0.386  14.815
11996POPC   O13 2947   9.004   0.527  14.809
11996POPC   O14 2948   8.867   0.345  14.922
11996POPC   O12 2949   9.093   0.299  14.828
11996POPC   O11 2950   8.906   0.340  14.672
11996POPC    C1 2951   8.798   0.251  14.648
11996POPC    HA 2952   8.711   0.284  14.709
11996POPC    HB 2953   8.822   0.146  14.677
11996POPC    C2 2954   8.752   0.253  14.497
11996POPC    HS 2955   8.648   0.212  14.495
11996POPC   O21 2956   8.838   0.174  14.411
11996POPC   C21 2957   8.810   0.179  14.279
11996POPC   O22 2958   8.708   0.223  14.230
11996POPC   C22 2959   8.937   0.141  14.203
11996POPC   H2R 2960   8.969   0.044  14.244
11996POPC   H2S 2961   9.014   0.217  14.228
11996POPC    C3 2962   8.747   0.401  14.450
11996POPC    HX 2963   8.714   0.460  14.540
11996POPC    HY 2964   8.668   0.412  14.372
11996POPC   O31 2965   8.877   0.446  14.400
11996POPC   C31 2966   8.878   0.579  14.394
11996POPC   O32 2967   8.782   0.650  14.419
11996POPC   C32 2968   9.013   0.631  14.344
11996POPC   H2X 2969   9.083   0.546  14.336
11996POPC   H2Y 2970   9.051   0.702  14.421
11996POPC   C23 2971   8.923   0.129  14.049
11996POPC   H3R 2972   8.964   0.220  14.000
11996POPC   H3S 2973   8.817   0.120  14.018
11996POPC   C24 2974   8.996   0.003  13.999
11996POPC   H4R 2975   8.923  -0.081  13.991
11996POPC   H4S 2976   9.071  -0.027  14.075
11996POPC   C25 2977   9.071   0.020  13.866
11996POPC   H5R 2978   9.137  -0.068  13.848
11996POPC   H5S 2979   9.136   0.109  13.873
11996POPC   C26 2980   8.976   0.032  13.747
11996POPC   H6R 2981   8.875   0.054  13.786
11996POPC   H6S 2982   8.970  -0.065  13.694
11996POPC   C27 2983   9.020   0.140  13.649
11996POPC   H7R 2984   9.107   0.103  13.590
11996POPC   H7S 2985   9.055   0.229  13.705
11996POPC   C28 2986   8.908   0.183  13.554
11996POPC   H8R 2987   8.878   0.098  13.489
11996POPC   H8S 2988   8.952   0.260  13.488
11996POPC   C29 2989   8.789   0.240  13.626
11996POPC   H91 2990   8.711   0.167  13.652
11996POPC  C210 2991   8.773   0.368  13.665
11996POPC  H101 2992   8.682   0.396  13.721
11996POPC  C211 2993   8.873   0.480  13.643
11996POPC  H11R 2994   8.974   0.447  13.676
11996POPC  H11S 2995   8.847   0.565  13.709
11996POPC  C212 2996   8.884   0.531  13.498
11996POPC  H12R 2997   8.928   0.451  13.435
11996POPC  H12S 2998   8.953   0.618  13.495
11996POPC  C213 2999   8.752   0.564  13.428
11996POPC  H13R 3000   8.702   0.643  13.485
11996POPC  H13S 3001   8.689   0.473  13.430
11996POPC  C214 3002   8.765   0.608  13.282
11996POPC  H14R 3003   8.850   0.679  13.274
11996POPC  H14S 3004   8.673   0.662  13.251
11996POPC  C215 3005   8.786   0.490  13.185
11996POPC  H15R 3006   8.853   0.416  13.234
11996POPC  H15S 3007   8.838   0.530  13.096
11996POPC  C216 3008   8.658   0.419  13.137
11996POPC  H16R 3009   8.588   0.496  13.098
11996POPC  H16S 3010   8.610   0.367  13.223
11996POPC  C217 3011   8.683   0.316  13.025
11996POPC  H17R 3012   8.734   0.227  13.068
11996POPC  H17S 3013   8.751   0.362  12.951
11996POPC  C218 3014   8.557   0.270  12.952
11996POPC  H18R 3015   8.585   0.216  12.859
11996POPC  H18S 3016   8.495   0.357  12.922
11996POPC  H18T 3017   8.496   0.202  13.015
11996POPC   C33 3018   8.999   0.704  14.209
11996POPC   H3X 3019   8.931   0.792  14.225
11996POPC   H3Y 3020   8.950   0.637  14.135
11996POPC   C34 3021   9.130   0.758  14.150
11996POPC   H4X 3022   9.165   0.841  14.216
11996POPC   H4Y 3023   9.107   0.803  14.051
11996POPC   C35 3024   9.244   0.656  14.133
11996POPC   H5X 3025   9.271   0.616  14.233
11996POPC   H5Y 3026   9.334   0.710  14.095
11996POPC   C36 3027   9.212   0.540  14.038
11996POPC   H6X 3028   9.103   0.536  14.015
11996POPC   H6Y 3029   9.238   0.444  14.088
11996POPC   C37 3030   9.289   0.546  13.905
11996POPC   H7X 3031   9.271   0.450  13.852
11996POPC   H7Y 3032   9.398   0.553  13.925
11996POPC   C38 3033   9.246   0.662  13.813
11996POPC   H8X 3034   9.265   0.758  13.866
11996POPC   H8Y 3035   9.137   0.654  13.794
11996POPC   C39 3036   9.320   0.664  13.678
11996POPC   H9X 3037   9.430   0.663  13.696
11996POPC   H9Y 3038   9.296   0.759  13.625
11996POPC  C310 3039   9.279   0.546  13.589
11996POPC  H10X 3040   9.169   0.553  13.576
11996POPC  H10Y 3041   9.301   0.450  13.640
11996POPC  C311 3042   9.348   0.543  13.451
11996POPC  H11X 3043   9.457   0.545  13.468
11996POPC  H11Y 3044   9.321   0.634  13.393
11996POPC  C312 3045   9.313   0.418  13.370
11996POPC  H12X 3046   9.346   0.328  13.426
11996POPC  H12Y 3047   9.367   0.419  13.273
11996POPC  C313 3048   9.163   0.406  13.346
11996POPC  H13X 3049   9.124   0.494  13.289
11996POPC  H13Y 3050   9.117   0.405  13.447
11996POPC  C314 3051   9.117   0.275  13.281
11996POPC  H14X 3052   9.007   0.264  13.292
11996POPC  H14Y 3053   9.165   0.190  13.335
11996POPC  C315 3054   9.147   0.269  13.133
11996POPC  H15X 3055   9.162   0.163  13.105
11996POPC  H15Y 3056   9.239   0.326  13.110
11996POPC  C316 3057   9.033   0.321  13.050
11996POPC  H16X 3058   8.936   0.283  13.087
11996POPC  H16Y 3059   9.043   0.289  12.944
11996POPC  H16Z 3060   9.033   0.432  13.057
11997TIP3   OH2 3061   8.071   1.003  10.099
11997TIP3    H1 3062   8.066   1.101  10.089
11997TIP3    H2 3063   8.159   0.993  10.139
11998TIP3   OH2 3064   8.183   0.877   9.748
11998TIP3    H1 3065   8.185   0.854   9.652
11998TIP3    H2 3066   8.265   0.835   9.780
11999TIP3   OH2 3067   8.957   0.918   9.599
11999TIP3    H1 3068   8.972   0.836   9.549
11999TIP3    H2 3069   8.879   0.953   9.552
12000TIP3   OH2 3070   7.889   1.227   9.863
12000TIP3    H1 3071   7.883   1.154   9.799
12000TIP3    H2 3072   7.884   1.304   9.805
12001TIP3   OH2 3073   8.925   1.343   9.794
12001TIP3    H1 3074   8.934   1.248   9.816
12001TIP3    H2 3075   8.839   1.336   9.751
12002TIP3   OH2 3076   9.208   0.641  10.204
12002TIP3    H1 3077   9.196   0.737  10.192
12002TIP3    H2 3078   9.270   0.623  10.130
12003TIP3   OH2 3079   9.170   0.908   9.961
12003TIP3    H1 3080   9.120   0.827   9.934
12003TIP3    H2 3081   9.103   0.960  10.008
12004TIP3   OH2 3082   8.145   1.743   9.910
12004TIP3    H1 3083   8.073   1.695   9.958
12004TIP3    H2 3084   8.154   1.682   9.835
12005TIP3   OH2 3085   8.390   1.175   9.655
12005TIP3    H1 3086   8.346   1.158   9.740
12005TIP3    H2 3087   8.312   1.194   9.597
12006TIP3   OH2 3088   7.524   0.283   9.622
12006TIP3    H1 3089   7.522   0.357   9.558
12006TIP3    H2 3090   7.454   0.316   9.681
12007TIP3   OH2 3091   8.019   0.622   9.630
12007TIP3    H1 3092   8.007   0.528   9.607
12007TIP3    H2 3093   8.043   0.618   9.725
12008TIP3   OH2 3094   8.717   0.402   9.953
12008TIP3    H1 3095   8.711   0.483  10.007
12008TIP3    H2 3096   8.759   0.340  10.015
12009TIP3   OH2 3097   7.964   0.478  10.139
12009TIP3    H1 3098   7.953   0.457  10.044
12009TIP3    H2 3099   7.878   0.442  10.168
12010TIP3   OH2 3100   9.064   0.678   9.886
12010TIP3    H1 3101   8.995   0.640   9.828
12010TIP3    H2 3102   9.046   0.627   9.967
12011TIP3   OH2 3103   8.606   0.825   9.924
12011TIP3    H1 3104   8.514   0.793   9.909
12011TIP3    H2 3105   8.644   0.747   9.970
12012TIP3   OH2 3106   7.502   0.462   9.413
12012TIP3    H1 3107   7.551   0.543   9.436
12012TIP3    H2 3108   7.500   0.468   9.316
12013TIP3   OH2 3109   8.835   0.337   9.545
12013TIP3    H1 3110   8.854   0.387   9.628
12013TIP3    H2 3111   8.898   0.380   9.485
12014TIP3   OH2 3112   8.141   1.280  10.179
12014TIP3    H1 3113   8.159   1.303  10.273
12014TIP3    H2 3114   8.177   1.360  10.137
12015TIP3   OH2 3115   8.623   1.097   9.549
12015TIP3    H1 3116   8.682   1.172   9.525
12015TIP3    H2 3117   8.547   1.144   9.589
12016TIP3   OH2 3118   7.838   0.400   9.900
12016TIP3    H1 3119   7.867   0.384   9.809
12016TIP3    H2 3120   7.742   0.404   9.890
12017TIP3   OH2 3121   8.883   0.531   9.751
12017TIP3    H1 3122   8.807   0.580   9.711
12017TIP3    H2 3123   8.836   0.471   9.813
12018TIP3   OH2 3124   8.771   1.302   9.454
12018TIP3    H1 3125   8.765   1.397   9.474
12018TIP3    H2 3126   8.861   1.293   9.419
12019TIP3   OH2 3127   9.144   1.225  10.341
12019TIP3    H1 3128   9.103   1.300  10.386
12019TIP3    H2 3129   9.149   1.260  10.251
12020TIP3   OH2 3130   7.806   1.416   9.657
12020TIP3    H1 3131   7.899   1.442   9.640
12020TIP3    H2 3132   7.779   1.495   9.707
12021TIP3   OH2 3133   7.743   0.222   9.476
12021TIP3    H1 3134   7.818   0.256   9.526
12021TIP3    H2 3135   7.674   0.228   9.547
12022TIP3   OH2 3136   8.464   0.107   9.823
12022TIP3    H1 3137   8.429   0.036   9.767
12022TIP3    H2 3138   8.541   0.142   9.770
12023TIP3   OH2 3139   7.948   1.582   9.996
12023TIP3    H1 3140   7.942   1.522  10.073
12023TIP3    H2 3141   7.874   1.644  10.020
12024TIP3   OH2 3142   7.832   1.388  10.163
12024TIP3    H1 3143   7.850   1.324  10.235
12024TIP3    H2 3144   7.862   1.336  10.087
12025TIP3   OH2 3145   7.700   1.244   9.294
12025TIP3    H1 3146   7.684   1.173   9.361
12025TIP3    H2 3147   7.687   1.322   9.351
12026TIP3   OH2 3148   8.197   0.989  10.341
12026TIP3    H1 3149   8.282   1.038  10.353
12026TIP3    H2 3150   8.142   1.064  10.309
12027TIP3   OH2 3151   8.190   0.779  10.650
12027TIP3    H1 3152   8.165   0.821  10.567
12027TIP3    H2 3153   8.213   0.689  10.625
12028TIP3   OH2 3154   7.497   0.893   9.513
12028TIP3    H1 3155   7.566   0.961   9.526
12028TIP3    H2 3156   7.434   0.923   9.582
12029TIP3   OH2 3157   7.862   0.884  10.255
12029TIP3    H1 3158   7.930   0.938  10.209
12029TIP3    H2 3159   7.802   0.864  10.179
12030TIP3   OH2 3160   7.896   0.777   9.301
12030TIP3    H1 3161   7.877   0.870   9.282
12030TIP3    H2 3162   7.975   0.787   9.356
12031TIP3   OH2 3163   8.716   1.016  10.061
12031TIP3    H1 3164   8.770   0.964  10.124
12031TIP3    H2 3165   8.659   0.945  10.022
12032TIP3   OH2 3166   8.588   1.354   9.785
12032TIP3    H1 3167   8.579   1.337   9.880
12032TIP3    H2 3168   8.524   1.293   9.744
12033TIP3   OH2 3169   8.701   0.888   9.688
12033TIP3    H1 3170   8.664   0.883   9.779
12033TIP3    H2 3171   8.655   0.966   9.649
12034TIP3   OH2 3172   8.061   1.456   9.602
12034TIP3    H1 3173   8.094   1.512   9.530
12034TIP3    H2 3174   8.071   1.366   9.564
12035TIP3   OH2 3175   8.628   1.327   9.221
12035TIP3    H1 3176   8.696   1.377   9.170
12035TIP3    H2 3177   8.675   1.309   9.306
12036TIP3   OH2 3178   8.902   0.975   9.325
12036TIP3    H1 3179   8.890   1.030   9.246
12036TIP3    H2 3180   8.995   0.949   9.311
12037TIP3   OH2 3181   8.236   1.561  10.165
12037TIP3    H1 3182   8.249   1.578  10.071
12037TIP3    H2 3183   8.287   1.632  10.208
12038TIP3   OH2 3184   8.792   1.516   9.114
12038TIP3    H1 3185   8.813   1.541   9.206
12038TIP3    H2 3186   8.883   1.500   9.081
12039TIP3   OH2 3187   7.634   0.121  10.421
12039TIP3    H1 3188   7.730   0.115  10.442
12039TIP3    H2 3189   7.598   0.120  10.512
12040TIP3   OH2 3190   8.880   0.905  10.257
12040TIP3    H1 3191   8.893   0.975  10.325
12040TIP3    H2 3192   8.884   0.823  10.308
12041TIP3   OH2 3193   9.204   1.146   9.344
12041TIP3    H1 3194   9.236   1.139   9.435
12041TIP3    H2 3195   9.218   1.054   9.309
12042TIP3   OH2 3196   9.198   1.441   9.766
12042TIP3    H1 3197   9.118   1.387   9.784
12042TIP3    H2 3198   9.165   1.498   9.693
12043TIP3   OH2 3199   7.442   1.509   9.141
12043TIP3    H1 3200   7.451   1.412   9.135
12043TIP3    H2 3201   7.527   1.534   9.096
12044TIP3   OH2 3202   8.379   1.449   9.230
12044TIP3    H1 3203   8.349   1.513   9.162
12044TIP3    H2 3204   8.472   1.431   9.208
12045TIP3   OH2 3205   8.292   1.840  10.320
12045TIP3    H1 3206   8.309   1.867  10.412
12045TIP3    H2 3207   8.290   1.925  10.271
12046TIP3   OH2 3208   8.926   1.709  10.081
12046TIP3    H1 3209   8.902   1.673   9.992
12046TIP3    H2 3210   9.012   1.667  10.098
12047TIP3   OH2 3211   8.028   1.775  10.291
12047TIP3    H1 3212   8.126   1.786  10.293
12047TIP3    H2 3213   8.024   1.679  10.284
12048TIP3   OH2 3214   7.741   0.644   9.108
12048TIP3    H1 3215   7.781   0.691   9.184
12048TIP3    H2 3216   7.733   0.552   9.143
12049TIP3   OH2 3217   9.017   1.317   9.276
12049TIP3    H1 3218   8.983   1.248   9.216
12049TIP3    H2 3219   9.098   1.269   9.308
12050TIP3   OH2 3220   8.687   0.181   9.699
12050TIP3    H1 3221   8.762   0.163   9.759
12050TIP3    H2 3222   8.736   0.225   9.627
12051TIP3   OH2 3223   8.272   0.108   9.418
12051TIP3    H1 3224   8.235   0.079   9.334
12051TIP3    H2 3225   8.368   0.113   9.401
12052TIP3   OH2 3226   7.981   0.521   9.278
12052TIP3    H1 3227   8.040   0.495   9.202
12052TIP3    H2 3228   7.948   0.609   9.250
12053TIP3   OH2 3229   8.719   0.654   9.571
12053TIP3    H1 3230   8.802   0.667   9.521
12053TIP3    H2 3231   8.707   0.744   9.610
12054TIP3   OH2 3232   8.736   0.641  10.083
12054TIP3    H1 3233   8.833   0.641  10.098
12054TIP3    H2 3234   8.702   0.612  10.170
12055TIP3   OH2 3235   8.186   0.701  10.322
12055TIP3    H1 3236   8.207   0.797  10.332
12055TIP3    H2 3237   8.109   0.705  10.264
12056TIP3   OH2 3238   8.262   0.754   9.078
12056TIP3    H1 3239   8.310   0.674   9.047
12056TIP3    H2 3240   8.180   0.748   9.026
12057TIP3   OH2 3241   8.060   0.678   9.906
12057TIP3    H1 3242   8.082   0.766   9.943
12057TIP3    H2 3243   8.056   0.625   9.986
12058TIP3   OH2 3244   8.982   0.648   9.444
12058TIP3    H1 3245   8.942   0.675   9.360
12058TIP3    H2 3246   9.013   0.557   9.424
12059TIP3   OH2 3247   9.286   0.414  10.013
12059TIP3    H1 3248   9.250   0.405   9.923
12059TIP3    H2 3249   9.227   0.359  10.066
12060TIP3   OH2 3250   9.229   0.465  10.463
12060TIP3    H1 3251   9.162   0.427  10.522
12060TIP3    H2 3252   9.175   0.510  10.396
12061TIP3   OH2 3253   8.158   0.807   9.488
12061TIP3    H1 3254   8.098   0.741   9.529
12061TIP3    H2 3255   8.215   0.749   9.431
12062TIP3   OH2 3256   8.420   0.395   9.998
12062TIP3    H1 3257   8.507   0.367   9.964
12062TIP3    H2 3258   8.359   0.367   9.925
12063TIP3   OH2 3259   8.985   0.527  10.091
12063TIP3    H1 3260   9.059   0.528  10.154
12063TIP3    H2 3261   8.940   0.441  10.111
12064TIP3   OH2 3262   8.655   0.580  10.346
12064TIP3    H1 3263   8.570   0.540  10.318
12064TIP3    H2 3264   8.621   0.658  10.390
12065TIP3   OH2 3265   8.004   0.313   9.681
12065TIP3    H1 3266   8.077   0.313   9.617
12065TIP3    H2 3267   8.044   0.274   9.761
12066TIP3   OH2 3268   7.730   1.906   9.019
12066TIP3    H1 3269   7.703   1.937   9.107
12066TIP3    H2 3270   7.648   1.928   8.969
12067TIP3   OH2 3271   8.934   1.135   9.094
12067TIP3    H1 3272   8.879   1.146   9.014
12067TIP3    H2 3273   9.024   1.140   9.055
12068TIP3   OH2 3274   8.390   0.701   9.829
12068TIP3    H1 3275   8.301   0.663   9.837
12068TIP3    H2 3276   8.437   0.634   9.777
12069TIP3   OH2 3277   8.862   0.298  10.165
12069TIP3    H1 3278   8.916   0.227  10.122
12069TIP3    H2 3279   8.820   0.249  10.238
12070TIP3   OH2 3280   8.501   0.510   9.571
12070TIP3    H1 3281   8.577   0.572   9.565
12070TIP3    H2 3282   8.431   0.556   9.523
12071TIP3   OH2 3283   8.418   1.131  10.332
12071TIP3    H1 3284   8.494   1.147  10.389
12071TIP3    H2 3285   8.442   1.183  10.252
12072TIP3   OH2 3286   7.677   1.095   9.507
12072TIP3    H1 3287   7.627   1.154   9.569
12072TIP3    H2 3288   7.763   1.093   9.551
12073TIP3   OH2 3289   8.133   0.442  10.560
12073TIP3    H1 3290   8.177   0.490  10.489
12073TIP3    H2 3291   8.040   0.468  10.554
12074TIP3   OH2 3292   8.315   1.191   9.280
12074TIP3    H1 3293   8.324   1.159   9.190
12074TIP3    H2 3294   8.346   1.283   9.271
12075TIP3   OH2 3295   8.870   1.083   9.840
12075TIP3    H1 3296   8.820   1.064   9.923
12075TIP3    H2 3297   8.856   1.003   9.787
12076TIP3   OH2 3298   8.206   1.309  10.438
12076TIP3    H1 3299   8.255   1.395  10.445
12076TIP3    H2 3300   8.259   1.247  10.491
12077TIP3   OH2 3301   9.226   0.896   9.279
12077TIP3    H1 3302   9.196   0.830   9.214
12077TIP3    H2 3303   9.251   0.846   9.359
12078TIP3   OH2 3304   8.532   0.879   9.113
12078TIP3    H1 3305   8.577   0.823   9.177
12078TIP3    H2 3306   8.442   0.839   9.110
12079TIP3   OH2 3307   8.020   1.406   9.247
12079TIP3    H1 3308   8.098   1.415   9.302
12079TIP3    H2 3309   8.050   1.452   9.165
12080TIP3   OH2 3310   7.453   1.232   9.176
12080TIP3    H1 3311   7.540   1.242   9.221
12080TIP3    H2 3312   7.394   1.224   9.255
12081TIP3   OH2 3313   7.638   1.481  10.379
12081TIP3    H1 3314   7.696   1.484  10.301
12081TIP3    H2 3315   7.631   1.385  10.387
12082TIP3   OH2 3316   7.916   1.008   9.689
12082TIP3    H1 3317   8.006   0.978   9.707
12082TIP3    H2 3318   7.865   0.939   9.736
12083TIP3   OH2 3319   8.676   1.441  10.078
12083TIP3    H1 3320   8.648   1.525  10.119
12083TIP3    H2 3321   8.772   1.446  10.081
12084TIP3   OH2 3322   8.528   1.212  10.108
12084TIP3    H1 3323   8.583   1.293  10.102
12084TIP3    H2 3324   8.587   1.142  10.073
12085TIP3   OH2 3325   8.492   1.611   9.433
12085TIP3    H1 3326   8.424   1.674   9.463
12085TIP3    H2 3327   8.440   1.562   9.366
12086TIP3   OH2 3328   8.674   1.705  10.189
12086TIP3    H1 3329   8.766   1.711  10.158
12086TIP3    H2 3330   8.636   1.784  10.144
12087TIP3   OH2 3331   8.162   1.198   9.515
12087TIP3    H1 3332   8.206   1.180   9.428
12087TIP3    H2 3333   8.117   1.115   9.536
12088TIP3   OH2 3334   7.905   1.319  10.590
12088TIP3    H1 3335   7.921   1.266  10.511
12088TIP3    H2 3336   7.990   1.317  10.637
12089TIP3   OH2 3337   7.863   1.660   9.266
12089TIP3    H1 3338   7.946   1.614   9.291
12089TIP3    H2 3339   7.847   1.721   9.342
12090TIP3   OH2 3340   9.045   0.397   9.349
12090TIP3    H1 3341   9.070   0.421   9.258
12090TIP3    H2 3342   9.043   0.300   9.340
12091TIP3   OH2 3343   7.830   1.163  10.363
12091TIP3    H1 3344   7.841   1.068  10.346
12091TIP3    H2 3345   7.733   1.165  10.380
12092TIP3   OH2 3346   9.085   1.567   9.522
12092TIP3    H1 3347   9.005   1.529   9.484
12092TIP3    H2 3348   9.127   1.613   9.447
12093TIP3   OH2 3349   8.627   1.384  10.520
12093TIP3    H1 3350   8.553   1.393  10.586
12093TIP3    H2 3351   8.620   1.470  10.475
12094TIP3   OH2 3352   8.924   1.097  10.464
12094TIP3    H1 3353   9.013   1.124  10.432
12094TIP3    H2 3354   8.896   1.178  10.511
12095TIP3   OH2 3355   8.179   0.365   9.408
12095TIP3    H1 3356   8.123   0.385   9.331
12095TIP3    H2 3357   8.205   0.273   9.394
12096TIP3   OH2 3358   8.075   0.284  10.292
12096TIP3    H1 3359   8.076   0.335  10.374
12096TIP3    H2 3360   8.033   0.347  10.229
12097TIP3   OH2 3361   8.320   1.559  10.468
12097TIP3    H1 3362   8.406   1.600  10.447
12097TIP3    H2 3363   8.316   1.575  10.564
12098TIP3   OH2 3364   8.408   0.534  10.258
12098TIP3    H1 3365   8.326   0.588  10.257
12098TIP3    H2 3366   8.406   0.484  10.173
12099TIP3   OH2 3367   8.293   0.635   9.328
12099TIP3    H1 3368   8.284   0.657   9.233
12099TIP3    H2 3369   8.261   0.544   9.336
12100TIP3   OH2 3370   8.328   0.215  10.178
12100TIP3    H1 3371   8.341   0.281  10.106
12100TIP3    H2 3372   8.232   0.223  10.198
12101TIP3   OH2 3373   8.593   1.647  10.446
12101TIP3    H1 3374   8.583   1.730  10.496
12101TIP3    H2 3375   8.627   1.680  10.361
12102TIP3   OH2 3376   8.715   0.325  10.455
12102TIP3    H1 3377   8.725   0.414  10.415
12102TIP3    H2 3378   8.618   0.307  10.449
12103TIP3   OH2 3379   7.723   0.407   9.244
12103TIP3    H1 3380   7.820   0.413   9.253
12103TIP3    H2 3381   7.698   0.363   9.327
12104TIP3   OH2 3382   7.806   0.777   9.826
12104TIP3    H1 3383   7.891   0.729   9.834
12104TIP3    H2 3384   7.745   0.712   9.784
12105TIP3   OH2 3385   8.900   1.357  10.567
12105TIP3    H1 3386   8.846   1.362  10.486
12105TIP3    H2 3387   8.828   1.354  10.632
12106TIP3   OH2 3388   7.751   1.692   9.685
12106TIP3    H1 3389   7.750   1.759   9.756
12106TIP3    H2 3390   7.655   1.691   9.663
12107TIP3   OH2 3391   8.939   0.154   9.819
12107TIP3    H1 3392   8.968   0.137   9.912
12107TIP3    H2 3393   8.976   0.073   9.775
12108TIP3   OH2 3394   9.103   1.486  10.205
12108TIP3    H1 3395   9.182   1.540  10.194
12108TIP3    H2 3396   9.059   1.538  10.275
12109TIP3   OH2 3397   9.172   1.820   9.018
12109TIP3    H1 3398   9.121   1.793   8.939
12109TIP3    H2 3399   9.204   1.735   9.051
12110TIP3   OH2 3400   8.655   1.631   8.854
12110TIP3    H1 3401   8.564   1.612   8.882
12110TIP3    H2 3402   8.706   1.589   8.926
12111TIP3   OH2 3403   8.089   1.515   9.010
12111TIP3    H1 3404   8.120   1.431   8.967
12111TIP3    H2 3405   7.996   1.518   8.977
12112TIP3   OH2 3406   9.190   1.163   8.992
12112TIP3    H1 3407   9.191   1.071   8.961
12112TIP3    H2 3408   9.285   1.180   9.002
12113TIP3   OH2 3409   8.518   1.138   9.065
12113TIP3    H1 3410   8.549   1.199   9.136
12113TIP3    H2 3411   8.531   1.048   9.103
12114TIP3   OH2 3412   7.948   1.120   9.252
12114TIP3    H1 3413   7.856   1.154   9.251
12114TIP3    H2 3414   7.993   1.204   9.230
12115TIP3   OH2 3415   9.083   0.836   9.016
12115TIP3    H1 3416   9.050   0.750   8.984
12115TIP3    H2 3417   9.074   0.890   8.935
12116TIP3   OH2 3418   8.735   0.769   9.325
12116TIP3    H1 3419   8.787   0.851   9.322
12116TIP3    H2 3420   8.659   0.798   9.379
12117TIP3   OH2 3421   8.176   1.033   8.934
12117TIP3    H1 3422   8.123   0.984   8.999
12117TIP3    H2 3423   8.211   0.964   8.875
12118TIP3   OH2 3424   8.623   0.551   9.212
12118TIP3    H1 3425   8.606   0.489   9.286
12118TIP3    H2 3426   8.643   0.633   9.262
12119TIP3   OH2 3427   8.598   0.331   9.408
12119TIP3    H1 3428   8.567   0.382   9.487
12119TIP3    H2 3429   8.694   0.322   9.426
12120TIP3   OH2 3430   8.494   0.893   9.422
12120TIP3    H1 3431   8.401   0.917   9.416
12120TIP3    H2 3432   8.534   0.975   9.459
12121TIP3   OH2 3433   8.076   0.653   8.893
12121TIP3    H1 3434   8.073   0.555   8.881
12121TIP3    H2 3435   7.982   0.675   8.902
12122TIP3   OH2 3436   7.879   0.959   9.044
12122TIP3    H1 3437   7.915   1.012   9.118
12122TIP3    H2 3438   7.785   0.947   9.069
12123TIP3   OH2 3439   8.812   0.633   8.977
12123TIP3    H1 3440   8.884   0.567   8.983
12123TIP3    H2 3441   8.759   0.613   9.055
12124TIP3   OH2 3442   8.537   0.081   9.390
12124TIP3    H1 3443   8.541   0.180   9.379
12124TIP3    H2 3444   8.609   0.071   9.453
12125TIP3   OH2 3445   8.405   0.527   9.011
12125TIP3    H1 3446   8.419   0.493   8.921
12125TIP3    H2 3447   8.484   0.494   9.058
12126TIP3   OH2 3448   8.146   0.432   9.095
12126TIP3    H1 3449   8.236   0.427   9.058
12126TIP3    H2 3450   8.094   0.379   9.028
12127TIP3   OH2 3451   7.996   0.297   8.929
12127TIP3    H1 3452   7.973   0.202   8.939
12127TIP3    H2 3453   8.005   0.308   8.831
12128TIP3   OH2 3454   8.998   0.414   9.005
12128TIP3    H1 3455   9.004   0.329   9.053
12128TIP3    H2 3456   9.009   0.386   8.912
12129TIP3   OH2 3457   8.583   9.368   9.132
12129TIP3    H1 3458   8.502   9.323   9.102
12129TIP3    H2 3459   8.558   9.386   9.226
12130TIP3   OH2 3460   8.486   0.213   8.947
12130TIP3    H1 3461   8.525   0.146   9.006
12130TIP3    H2 3462   8.562   0.266   8.918
12131TIP3   OH2 3463   9.055   1.243  10.751
12131TIP3    H1 3464   9.007   1.294  10.682
12131TIP3    H2 3465   9.095   1.316  10.804
12132TIP3   OH2 3466   9.258   1.879  10.124
12132TIP3    H1 3467   9.325   1.828  10.174
12132TIP3    H2 3468   9.231   1.811  10.059
12133TIP3   OH2 3469   9.209   1.680   9.944
12133TIP3    H1 3470   9.249   1.596   9.917
12133TIP3    H2 3471   9.156   1.703   9.864
12134TIP3   OH2 3472   7.469   1.754   9.679
12134TIP3    H1 3473   7.441   1.749   9.586
12134TIP3    H2 3474   7.418   1.831   9.707
12135TIP3   OH2 3475   7.514   1.710   9.359
12135TIP3    H1 3476   7.549   1.632   9.408
12135TIP3    H2 3477   7.489   1.667   9.275
12136TIP3   OH2 3478   7.636   1.289   8.872
12136TIP3    H1 3479   7.725   1.298   8.830
12136TIP3    H2 3480   7.595   1.374   8.843
12137TIP3   OH2 3481   7.558   1.174  10.359
12137TIP3    H1 3482   7.463   1.198  10.367
12137TIP3    H2 3483   7.553   1.099  10.297
12138TIP3   OH2 3484   7.499   0.959  10.161
12138TIP3    H1 3485   7.571   0.906  10.122
12138TIP3    H2 3486   7.433   0.956  10.089
12139TIP3   OH2 3487   7.521   1.207   9.682
12139TIP3    H1 3488   7.456   1.139   9.709
12139TIP3    H2 3489   7.482   1.289   9.720
12140TIP3   OH2 3490   7.652   1.486   9.439
12140TIP3    H1 3491   7.731   1.514   9.390
12140TIP3    H2 3492   7.693   1.462   9.526
12141TIP3   OH2 3493   7.684   0.781  10.071
12141TIP3    H1 3494   7.706   0.688  10.087
12141TIP3    H2 3495   7.716   0.793   9.979
12142TIP3   OH2 3496   9.181   1.011   9.712
12142TIP3    H1 3497   9.189   0.983   9.806
12142TIP3    H2 3498   9.089   0.985   9.687
12143TIP3   OH2 3499   7.610   0.976   9.126
12143TIP3    H1 3500   7.556   0.893   9.122
12143TIP3    H2 3501   7.545   1.044   9.153
12144TIP3   OH2 3502   7.503   0.745   9.051
12144TIP3    H1 3503   7.591   0.705   9.071
12144TIP3    H2 3504   7.439   0.671   9.067
12145TIP3   OH2 3505   7.644   0.589   9.711
12145TIP3    H1 3506   7.546   0.603   9.702
12145TIP3    H2 3507   7.671   0.600   9.619
12146TIP3   OH2 3508   7.667   0.673   9.453
12146TIP3    H1 3509   7.760   0.697   9.441
12146TIP3    H2 3510   7.621   0.759   9.458
12147TIP3   OH2 3511   9.223   0.554   9.049
12147TIP3    H1 3512   9.143   0.503   9.028
12147TIP3    H2 3513   9.293   0.486   9.050
12148TIP3   OH2 3514   7.467   0.123   8.918
12148TIP3    H1 3515   7.411   0.056   8.960
12148TIP3    H2 3516   7.471   0.191   8.988
12149TIP3   OH2 3517   7.744   0.267  10.208
12149TIP3    H1 3518   7.666   0.250  10.151
12149TIP3    H2 3519   7.737   0.197  10.276
12150TIP3   OH2 3520   9.156   0.332   9.769
12150TIP3    H1 3521   9.090   0.260   9.768
12150TIP3    H2 3522   9.099   0.410   9.767
12151TIP3   OH2 3523   9.240   0.636   9.688
12151TIP3    H1 3524   9.177   0.641   9.762
12151TIP3    H2 3525   9.246   0.729   9.662
12152TIP3   OH2 3526   7.486   0.313   9.112
12152TIP3    H1 3527   7.574   0.350   9.088
12152TIP3    H2 3528   7.515   0.242   9.172
12153TIP3   OH2 3529   7.513   0.286  10.657
12153TIP3    H1 3530   7.486   0.193  10.663
12153TIP3    H2 3531   7.429   0.327  10.630
12154TIP3   OH2 3532   9.273   0.253  10.309
12154TIP3    H1 3533   9.368   0.246  10.285
12154TIP3    H2 3534   9.276   0.323  10.377
12155TIP3   OH2 3535   7.793   1.777  10.075
12155TIP3    H1 3536   7.731   1.775  10.150
12155TIP3    H2 3537   7.746   1.828  10.006
12156TIP3   OH2 3538   9.242   0.135   9.478
12156TIP3    H1 3539   9.272   0.147   9.387
12156TIP3    H2 3540   9.296   0.202   9.523
12157TIP3   OH2 3541   9.039   1.433   9.032
12157TIP3    H1 3542   9.046   1.405   9.125
12157TIP3    H2 3543   9.084   1.357   8.992
12158TIP3   OH2 3544   8.758   1.582   9.389
12158TIP3    H1 3545   8.762   1.677   9.417
12158TIP3    H2 3546   8.661   1.570   9.389
12159TIP3   OH2 3547   8.342   1.705   9.125
12159TIP3    H1 3548   8.339   1.697   9.028
12159TIP3    H2 3549   8.251   1.739   9.143
12160TIP3   OH2 3550   8.123   1.857   9.158
12160TIP3    H1 3551   8.041   1.824   9.197
12160TIP3    H2 3552   8.090   1.918   9.088
12161TIP3   OH2 3553   7.561   0.100   9.285
12161TIP3    H1 3554   7.631   0.141   9.339
12161TIP3    H2 3555   7.547   0.013   9.330
12162TIP3   OH2 3556   9.026   1.895   9.414
12162TIP3    H1 3557   9.109   1.931   9.453
12162TIP3    H2 3558   9.057   1.878   9.323
12163TIP3   OH2 3559   8.763   1.847   9.511
12163TIP3    H1 3560   8.851   1.870   9.472
12163TIP3    H2 3561   8.758   1.912   9.584
12164TIP3   OH2 3562   8.314   1.812   9.576
12164TIP3    H1 3563   8.387   1.855   9.623
12164TIP3    H2 3564   8.285   1.883   9.515
12165TIP3   OH2 3565   8.095   1.674   9.442
12165TIP3    H1 3566   8.167   1.710   9.499
12165TIP3    H2 3567   8.024   1.736   9.466
12166TIP3   OH2 3568   7.828   1.837   9.470
12166TIP3    H1 3569   7.811   1.928   9.500
12166TIP3    H2 3570   7.807   1.790   9.554
12167TIP3   OH2 3571   9.052   1.748   9.725
12167TIP3    H1 3572   9.069   1.688   9.649
12167TIP3    H2 3573   8.965   1.710   9.755
12168TIP3   OH2 3574   8.848   1.619   9.835
12168TIP3    H1 3575   8.856   1.523   9.816
12168TIP3    H2 3576   8.761   1.638   9.794
12169TIP3   OH2 3577   8.617   1.648   9.709
12169TIP3    H1 3578   8.578   1.559   9.716
12169TIP3    H2 3579   8.598   1.669   9.616
12170TIP3   OH2 3580   8.233   0.255   9.857
12170TIP3    H1 3581   8.309   0.194   9.852
12170TIP3    H2 3582   8.164   0.199   9.897
12171TIP3   OH2 3583   7.742   0.081   9.857
12171TIP3    H1 3584   7.682   0.130   9.917
12171TIP3    H2 3585   7.830   0.105   9.892
12172TIP3   OH2 3586   7.549   0.162  10.036
12172TIP3    H1 3587   7.501   0.093  10.086
12172TIP3    H2 3588   7.481   0.231  10.025
12173TIP3   OH2 3589   9.014   0.104  10.070
12173TIP3    H1 3590   9.081   0.096  10.139
12173TIP3    H2 3591   8.961   0.022  10.086
12174TIP3   OH2 3592   9.084   0.073  10.463
12174TIP3    H1 3593   9.028   0.119  10.531
12174TIP3    H2 3594   9.144   0.142  10.430
12175TIP3   OH2 3595   8.573   0.064  10.064
12175TIP3    H1 3596   8.501   0.117  10.103
12175TIP3    H2 3597   8.550   0.067   9.969
12176TIP3   OH2 3598   8.008   0.116   9.950
12176TIP3    H1 3599   8.001   0.103  10.046
12176TIP3    H2 3600   8.040   0.029   9.919
12177TIP3   OH2 3601   7.904   0.131  10.432
12177TIP3    H1 3602   7.961   0.170  10.364
12177TIP3    H2 3603   7.908   0.036  10.409
12178TIP3   OH2 3604   9.102   1.725  10.385
12178TIP3    H1 3605   9.194   1.722  10.413
12178TIP3    H2 3606   9.072   1.808  10.430
12179TIP3   OH2 3607   8.924   0.244  10.610
12179TIP3    H1 3608   8.890   0.221  10.699
12179TIP3    H2 3609   8.843   0.279  10.568
12180TIP3   OH2 3610   8.454   0.287  10.408
12180TIP3    H1 3611   8.417   0.236  10.333
12180TIP3    H2 3612   8.423   0.376  10.387
12181TIP3   OH2 3613   7.613   1.744  10.270
12181TIP3    H1 3614   7.595   1.668  10.329
12181TIP3    H2 3615   7.557   1.815  10.304
12182TIP3   OH2 3616   9.052   0.167   9.139
12182TIP3    H1 3617   9.110   0.090   9.116
12182TIP3    H2 3618   8.968   0.137   9.101
12183TIP3   OH2 3619   8.832   0.101   8.933
12183TIP3    H1 3620   8.742   0.114   8.966
12183TIP3    H2 3621   8.837   0.004   8.934
12184TIP3   OH2 3622   7.941   9.365   8.965
12184TIP3    H1 3623   7.967   9.306   8.893
12184TIP3    H2 3624   7.850   9.335   8.982
12185TIP3   OH2 3625   7.675   1.626   9.079
12185TIP3    H1 3626   7.756   1.612   9.133
12185TIP3    H2 3627   7.680   1.722   9.063
12186TIP3   OH2 3628   6.201   1.010  10.081
12186TIP3    H1 3629   6.214   1.099  10.043
12186TIP3    H2 3630   6.282   1.000  10.134
12187TIP3   OH2 3631   6.322   0.895   9.747
12187TIP3    H1 3632   6.329   0.855   9.658
12187TIP3    H2 3633   6.389   0.845   9.800
12188TIP3   OH2 3634   7.130   0.894   9.602
12188TIP3    H1 3635   7.134   0.812   9.548
12188TIP3    H2 3636   7.064   0.945   9.553
12189TIP3   OH2 3637   6.005   1.222   9.890
12189TIP3    H1 3638   6.015   1.155   9.821
12189TIP3    H2 3639   5.984   1.300   9.836
12190TIP3   OH2 3640   7.008   1.373   9.769
12190TIP3    H1 3641   7.041   1.282   9.779
12190TIP3    H2 3642   6.912   1.351   9.773
12191TIP3   OH2 3643   7.334   0.667  10.214
12191TIP3    H1 3644   7.336   0.760  10.241
12191TIP3    H2 3645   7.396   0.668  10.140
12192TIP3   OH2 3646   7.320   0.911   9.968
12192TIP3    H1 3647   7.280   0.823   9.951
12192TIP3    H2 3648   7.243   0.969   9.978
12193TIP3   OH2 3649   6.240   1.757   9.904
12193TIP3    H1 3650   6.174   1.695   9.943
12193TIP3    H2 3651   6.280   1.696   9.841
12194TIP3   OH2 3652   6.513   1.211   9.652
12194TIP3    H1 3653   6.494   1.151   9.725
12194TIP3    H2 3654   6.424   1.220   9.612
12195TIP3   OH2 3655   5.635   0.297   9.628
12195TIP3    H1 3656   5.631   0.367   9.560
12195TIP3    H2 3657   5.568   0.333   9.688
12196TIP3   OH2 3658   6.136   0.623   9.624
12196TIP3    H1 3659   6.117   0.530   9.604
12196TIP3    H2 3660   6.168   0.617   9.716
12197TIP3   OH2 3661   6.848   0.415   9.966
12197TIP3    H1 3662   6.830   0.498  10.016
12197TIP3    H2 3663   6.900   0.365  10.032
12198TIP3   OH2 3664   6.087   0.497  10.091
12198TIP3    H1 3665   6.054   0.450  10.011
12198TIP3    H2 3666   6.013   0.479  10.152
12199TIP3   OH2 3667   7.209   0.684   9.887
12199TIP3    H1 3668   7.144   0.651   9.823
12199TIP3    H2 3669   7.170   0.648   9.970
12200TIP3   OH2 3670   6.739   0.840   9.909
12200TIP3    H1 3671   6.649   0.811   9.883
12200TIP3    H2 3672   6.765   0.762   9.961
12201TIP3   OH2 3673   5.605   0.471   9.417
12201TIP3    H1 3674   5.659   0.551   9.437
12201TIP3    H2 3675   5.609   0.471   9.320
12202TIP3   OH2 3676   6.950   0.325   9.538
12202TIP3    H1 3677   6.984   0.373   9.616
12202TIP3    H2 3678   7.019   0.349   9.472
12203TIP3   OH2 3679   6.308   1.265  10.187
12203TIP3    H1 3680   6.375   1.260  10.259
12203TIP3    H2 3681   6.303   1.361  10.173
12204TIP3   OH2 3682   6.737   1.092   9.543
12204TIP3    H1 3683   6.801   1.162   9.514
12204TIP3    H2 3684   6.666   1.147   9.583
12205TIP3   OH2 3685   5.955   0.370   9.893
12205TIP3    H1 3686   6.004   0.294   9.858
12205TIP3    H2 3687   5.911   0.402   9.813
12206TIP3   OH2 3688   7.010   0.526   9.751
12206TIP3    H1 3689   6.949   0.588   9.707
12206TIP3    H2 3690   6.950   0.482   9.815
12207TIP3   OH2 3691   6.886   1.295   9.454
12207TIP3    H1 3692   6.902   1.372   9.510
12207TIP3    H2 3693   6.971   1.291   9.402
12208TIP3   OH2 3694   7.289   1.247  10.361
12208TIP3    H1 3695   7.203   1.228  10.403
12208TIP3    H2 3696   7.265   1.315  10.295
12209TIP3   OH2 3697   5.916   1.405   9.668
12209TIP3    H1 3698   6.009   1.431   9.653
12209TIP3    H2 3699   5.887   1.484   9.717
12210TIP3   OH2 3700   5.836   0.223   9.460
12210TIP3    H1 3701   5.922   0.231   9.503
12210TIP3    H2 3702   5.776   0.237   9.537
12211TIP3   OH2 3703   6.583   0.107   9.802
12211TIP3    H1 3704   6.536   0.029   9.771
12211TIP3    H2 3705   6.669   0.101   9.753
12212TIP3   OH2 3706   6.058   1.580  10.001
12212TIP3    H1 3707   6.048   1.508  10.066
12212TIP3    H2 3708   5.993   1.647  10.035
12213TIP3   OH2 3709   5.963   1.379  10.179
12213TIP3    H1 3710   5.987   1.309  10.243
12213TIP3    H2 3711   5.973   1.331  10.095
12214TIP3   OH2 3712   5.828   1.245   9.298
12214TIP3    H1 3713   5.813   1.173   9.364
12214TIP3    H2 3714   5.807   1.324   9.352
12215TIP3   OH2 3715   6.366   0.949  10.343
12215TIP3    H1 3716   6.407   1.036  10.361
12215TIP3    H2 3717   6.287   0.940  10.400
12216TIP3   OH2 3718   5.613   0.892   9.513
12216TIP3    H1 3719   5.682   0.962   9.517
12216TIP3    H2 3720   5.555   0.924   9.585
12217TIP3   OH2 3721   5.977   0.947  10.234
12217TIP3    H1 3722   6.047   0.979  10.172
12217TIP3    H2 3723   5.921   0.895  10.172
12218TIP3   OH2 3724   6.009   0.787   9.306
12218TIP3    H1 3725   5.987   0.880   9.289
12218TIP3    H2 3726   6.088   0.798   9.363
12219TIP3   OH2 3727   6.855   1.007  10.074
12219TIP3    H1 3728   6.869   0.961  10.160
12219TIP3    H2 3729   6.799   0.943  10.025
12220TIP3   OH2 3730   6.733   1.331   9.770
12220TIP3    H1 3731   6.714   1.320   9.865
12220TIP3    H2 3732   6.651   1.300   9.728
12221TIP3   OH2 3733   6.852   0.893   9.668
12221TIP3    H1 3734   6.822   0.897   9.761
12221TIP3    H2 3735   6.796   0.960   9.625
12222TIP3   OH2 3736   6.170   1.459   9.610
12222TIP3    H1 3737   6.198   1.513   9.534
12222TIP3    H2 3738   6.187   1.368   9.578
12223TIP3   OH2 3739   6.731   1.322   9.239
12223TIP3    H1 3740   6.802   1.375   9.197
12223TIP3    H2 3741   6.771   1.311   9.329
12224TIP3   OH2 3742   6.125   0.911  10.462
12224TIP3    H1 3743   6.079   0.929  10.377
12224TIP3    H2 3744   6.059   0.942  10.525
12225TIP3   OH2 3745   7.016   0.955   9.340
12225TIP3    H1 3746   6.993   1.033   9.288
12225TIP3    H2 3747   7.093   0.924   9.290
12226TIP3   OH2 3748   6.360   1.552  10.177
12226TIP3    H1 3749   6.358   1.554  10.081
12226TIP3    H2 3750   6.402   1.638  10.195
12227TIP3   OH2 3751   6.899   1.502   9.126
12227TIP3    H1 3752   6.912   1.546   9.212
12227TIP3    H2 3753   6.993   1.479   9.105
12228TIP3   OH2 3754   5.797   0.080  10.450
12228TIP3    H1 3755   5.862   0.006  10.463
12228TIP3    H2 3756   5.846   0.148  10.499
12229TIP3   OH2 3757   6.961   0.913  10.318
12229TIP3    H1 3758   7.033   0.978  10.313
12229TIP3    H2 3759   7.005   0.827  10.318
12230TIP3   OH2 3760   7.313   1.153   9.387
12230TIP3    H1 3761   7.368   1.135   9.465
12230TIP3    H2 3762   7.288   1.061   9.365
12231TIP3   OH2 3763   7.341   1.441   9.729
12231TIP3    H1 3764   7.248   1.425   9.745
12231TIP3    H2 3765   7.334   1.507   9.658
12232TIP3   OH2 3766   5.555   1.510   9.141
12232TIP3    H1 3767   5.562   1.413   9.147
12232TIP3    H2 3768   5.639   1.531   9.094
12233TIP3   OH2 3769   6.476   1.446   9.240
12233TIP3    H1 3770   6.456   1.517   9.175
12233TIP3    H2 3771   6.567   1.416   9.217
12234TIP3   OH2 3772   6.390   1.839  10.288
12234TIP3    H1 3773   6.441   1.885  10.356
12234TIP3    H2 3774   6.383   1.915  10.226
12235TIP3   OH2 3775   7.040   1.721  10.092
12235TIP3    H1 3776   7.015   1.689  10.003
12235TIP3    H2 3777   7.128   1.684  10.105
12236TIP3   OH2 3778   6.128   1.746  10.303
12236TIP3    H1 3779   6.222   1.773  10.292
12236TIP3    H2 3780   6.131   1.657  10.265
12237TIP3   OH2 3781   5.865   0.645   9.104
12237TIP3    H1 3782   5.911   0.694   9.175
12237TIP3    H2 3783   5.855   0.555   9.143
12238TIP3   OH2 3784   7.101   1.297   9.297
12238TIP3    H1 3785   7.096   1.264   9.205
12238TIP3    H2 3786   7.180   1.250   9.332
12239TIP3   OH2 3787   6.815   0.108   9.662
12239TIP3    H1 3788   6.875   0.097   9.738
12239TIP3    H2 3789   6.865   0.178   9.615
12240TIP3   OH2 3790   6.388   0.100   9.426
12240TIP3    H1 3791   6.357   0.079   9.337
12240TIP3    H2 3792   6.484   0.109   9.414
12241TIP3   OH2 3793   6.090   0.529   9.292
12241TIP3    H1 3794   6.146   0.509   9.213
12241TIP3    H2 3795   6.059   0.620   9.275
12242TIP3   OH2 3796   6.421   0.395  10.573
12242TIP3    H1 3797   6.468   0.339  10.509
12242TIP3    H2 3798   6.361   0.328  10.608
12243TIP3   OH2 3799   6.836   0.643   9.577
12243TIP3    H1 3800   6.923   0.633   9.534
12243TIP3    H2 3801   6.840   0.739   9.603
12244TIP3   OH2 3802   6.833   0.641  10.101
12244TIP3    H1 3803   6.930   0.628  10.114
12244TIP3    H2 3804   6.798   0.629  10.192
12245TIP3   OH2 3805   6.295   0.740  10.184
12245TIP3    H1 3806   6.321   0.818  10.238
12245TIP3    H2 3807   6.220   0.704  10.236
12246TIP3   OH2 3808   6.387   0.744   9.090
12246TIP3    H1 3809   6.436   0.665   9.056
12246TIP3    H2 3810   6.307   0.739   9.034
12247TIP3   OH2 3811   6.183   0.678   9.911
12247TIP3    H1 3812   6.206   0.764   9.953
12247TIP3    H2 3813   6.166   0.625   9.992
12248TIP3   OH2 3814   7.092   0.641   9.467
12248TIP3    H1 3815   7.055   0.669   9.381
12248TIP3    H2 3816   7.138   0.558   9.443
12249TIP3   OH2 3817   7.386   0.390  10.009
12249TIP3    H1 3818   7.326   0.382   9.932
12249TIP3    H2 3819   7.334   0.363  10.086
12250TIP3   OH2 3820   7.318   0.464  10.499
12250TIP3    H1 3821   7.244   0.427  10.550
12250TIP3    H2 3822   7.297   0.559  10.499
12251TIP3   OH2 3823   6.283   0.811   9.493
12251TIP3    H1 3824   6.220   0.744   9.529
12251TIP3    H2 3825   6.340   0.754   9.436
12252TIP3   OH2 3826   6.545   0.387   9.987
12252TIP3    H1 3827   6.640   0.369   9.972
12252TIP3    H2 3828   6.508   0.383   9.897
12253TIP3   OH2 3829   7.096   0.589  10.121
12253TIP3    H1 3830   7.183   0.597  10.165
12253TIP3    H2 3831   7.076   0.494  10.137
12254TIP3   OH2 3832   6.744   0.596  10.387
12254TIP3    H1 3833   6.664   0.564  10.340
12254TIP3    H2 3834   6.721   0.687  10.406
12255TIP3   OH2 3835   6.115   0.300   9.658
12255TIP3    H1 3836   6.172   0.312   9.580
12255TIP3    H2 3837   6.183   0.280   9.726
12256TIP3   OH2 3838   5.851   1.895   9.012
12256TIP3    H1 3839   5.821   1.930   9.098
12256TIP3    H2 3840   5.771   1.912   8.958
12257TIP3   OH2 3841   7.059   1.118   9.079
12257TIP3    H1 3842   6.997   1.133   9.005
12257TIP3    H2 3843   7.144   1.114   9.031
12258TIP3   OH2 3844   6.499   0.700   9.849
12258TIP3    H1 3845   6.416   0.650   9.866
12258TIP3    H2 3846   6.535   0.653   9.773
12259TIP3   OH2 3847   7.024   0.338  10.163
12259TIP3    H1 3848   7.070   0.253  10.142
12259TIP3    H2 3849   6.985   0.319  10.251
12260TIP3   OH2 3850   6.607   0.505   9.588
12260TIP3    H1 3851   6.686   0.563   9.573
12260TIP3    H2 3852   6.543   0.543   9.526
12261TIP3   OH2 3853   6.525   1.171  10.361
12261TIP3    H1 3854   6.602   1.129  10.405
12261TIP3    H2 3855   6.568   1.191  10.275
12262TIP3   OH2 3856   5.785   1.097   9.509
12262TIP3    H1 3857   5.736   1.159   9.569
12262TIP3    H2 3858   5.869   1.092   9.558
12263TIP3   OH2 3859   6.165   0.462  10.531
12263TIP3    H1 3860   6.262   0.452  10.529
12263TIP3    H2 3861   6.149   0.535  10.469
12264TIP3   OH2 3862   6.427   1.176   9.278
12264TIP3    H1 3863   6.447   1.153   9.186
12264TIP3    H2 3864   6.447   1.272   9.276
12265TIP3   OH2 3865   6.116   0.660  10.364
12265TIP3    H1 3866   6.030   0.621  10.338
12265TIP3    H2 3867   6.091   0.738  10.417
12266TIP3   OH2 3868   7.016   1.094   9.810
12266TIP3    H1 3869   6.957   1.077   9.885
12266TIP3    H2 3870   7.008   1.011   9.759
12267TIP3   OH2 3871   7.338   0.902   9.275
12267TIP3    H1 3872   7.347   0.837   9.202
12267TIP3    H2 3873   7.389   0.861   9.347
12268TIP3   OH2 3874   6.632   0.872   9.113
12268TIP3    H1 3875   6.679   0.816   9.177
12268TIP3    H2 3876   6.544   0.828   9.112
12269TIP3   OH2 3877   6.135   1.406   9.244
12269TIP3    H1 3878   6.209   1.437   9.299
12269TIP3    H2 3879   6.161   1.445   9.158
12270TIP3   OH2 3880   5.604   0.637  10.423
12270TIP3    H1 3881   5.669   0.595  10.483
12270TIP3    H2 3882   5.617   0.729  10.448
12271TIP3   OH2 3883   5.571   1.232   9.176
12271TIP3    H1 3884   5.659   1.239   9.219
12271TIP3    H2 3885   5.512   1.216   9.254
12272TIP3   OH2 3886   5.805   1.492  10.403
12272TIP3    H1 3887   5.837   1.465  10.315
12272TIP3    H2 3888   5.711   1.506  10.388
12273TIP3   OH2 3889   6.042   1.015   9.709
12273TIP3    H1 3890   6.134   0.991   9.728
12273TIP3    H2 3891   5.996   0.939   9.749
12274TIP3   OH2 3892   6.804   1.425  10.063
12274TIP3    H1 3893   6.751   1.503  10.087
12274TIP3    H2 3894   6.892   1.452  10.095
12275TIP3   OH2 3895   6.659   1.208  10.126
12275TIP3    H1 3896   6.714   1.287  10.111
12275TIP3    H2 3897   6.711   1.136  10.087
12276TIP3   OH2 3898   6.609   1.614   9.434
12276TIP3    H1 3899   6.539   1.675   9.464
12276TIP3    H2 3900   6.561   1.565   9.364
12277TIP3   OH2 3901   6.770   1.679  10.159
12277TIP3    H1 3902   6.865   1.695  10.140
12277TIP3    H2 3903   6.733   1.769  10.143
12278TIP3   OH2 3904   6.277   1.208   9.520
12278TIP3    H1 3905   6.316   1.179   9.433
12278TIP3    H2 3906   6.237   1.125   9.552
12279TIP3   OH2 3907   6.028   1.351  10.635
12279TIP3    H1 3908   5.935   1.354  10.612
12279TIP3    H2 3909   6.065   1.335  10.547
12280TIP3   OH2 3910   5.963   1.677   9.272
12280TIP3    H1 3911   6.047   1.634   9.295
12280TIP3    H2 3912   5.949   1.737   9.349
12281TIP3   OH2 3913   5.579   1.739  10.544
12281TIP3    H1 3914   5.517   1.765  10.616
12281TIP3    H2 3915   5.607   1.828  10.515
12282TIP3   OH2 3916   7.154   0.376   9.363
12282TIP3    H1 3917   7.198   0.423   9.289
12282TIP3    H2 3918   7.166   0.284   9.335
12283TIP3   OH2 3919   5.926   1.172  10.377
12283TIP3    H1 3920   5.942   1.083  10.341
12283TIP3    H2 3921   5.828   1.175  10.380
12284TIP3   OH2 3922   7.209   1.564   9.492
12284TIP3    H1 3923   7.133   1.505   9.478
12284TIP3    H2 3924   7.203   1.622   9.415
12285TIP3   OH2 3925   6.527   1.412  10.741
12285TIP3    H1 3926   6.612   1.400  10.784
12285TIP3    H2 3927   6.557   1.419  10.648
12286TIP3   OH2 3928   6.712   1.397  10.540
12286TIP3    H1 3929   6.776   1.347  10.489
12286TIP3    H2 3930   6.704   1.483  10.491
12287TIP3   OH2 3931   6.291   0.356   9.406
12287TIP3    H1 3932   6.250   0.371   9.319
12287TIP3    H2 3933   6.326   0.265   9.400
12288TIP3   OH2 3934   6.232   0.320  10.240
12288TIP3    H1 3935   6.194   0.338  10.328
12288TIP3    H2 3936   6.187   0.387  10.184
12289TIP3   OH2 3937   6.414   1.590  10.502
12289TIP3    H1 3938   6.498   1.568  10.459
12289TIP3    H2 3939   6.397   1.679  10.468
12290TIP3   OH2 3940   6.513   0.521  10.235
12290TIP3    H1 3941   6.438   0.584  10.223
12290TIP3    H2 3942   6.522   0.485  10.145
12291TIP3   OH2 3943   6.411   0.631   9.335
12291TIP3    H1 3944   6.401   0.658   9.241
12291TIP3    H2 3945   6.375   0.540   9.338
12292TIP3   OH2 3946   6.446   0.181  10.130
12292TIP3    H1 3947   6.475   0.248  10.065
12292TIP3    H2 3948   6.366   0.228  10.165
12293TIP3   OH2 3949   6.679   1.646  10.451
12293TIP3    H1 3950   6.654   1.732  10.493
12293TIP3    H2 3951   6.725   1.674  10.370
12294TIP3   OH2 3952   6.882   0.327  10.416
12294TIP3    H1 3953   6.860   0.421  10.429
12294TIP3    H2 3954   6.825   0.285  10.481
12295TIP3   OH2 3955   5.841   0.411   9.235
12295TIP3    H1 3956   5.938   0.416   9.248
12295TIP3    H2 3957   5.812   0.361   9.314
12296TIP3   OH2 3958   5.934   0.780   9.818
12296TIP3    H1 3959   6.019   0.732   9.820
12296TIP3    H2 3960   5.871   0.713   9.784
12297TIP3   OH2 3961   5.855   1.688   9.677
12297TIP3    H1 3962   5.851   1.746   9.755
12297TIP3    H2 3963   5.760   1.689   9.653
12298TIP3   OH2 3964   7.065   0.140   9.808
12298TIP3    H1 3965   7.088   0.134   9.903
12298TIP3    H2 3966   7.105   0.057   9.771
12299TIP3   OH2 3967   7.201   1.475  10.224
12299TIP3    H1 3968   7.285   1.499  10.184
12299TIP3    H2 3969   7.191   1.547  10.289
12300TIP3   OH2 3970   7.313   1.799   9.043
12300TIP3    H1 3971   7.247   1.791   8.970
12300TIP3    H2 3972   7.339   1.706   9.049
12301TIP3   OH2 3973   6.801   1.616   8.864
12301TIP3    H1 3974   6.705   1.602   8.876
12301TIP3    H2 3975   6.838   1.568   8.940
12302TIP3   OH2 3976   6.201   1.524   9.012
12302TIP3    H1 3977   6.222   1.434   8.978
12302TIP3    H2 3978   6.111   1.535   8.973
12303TIP3   OH2 3979   7.316   1.129   8.961
12303TIP3    H1 3980   7.347   1.037   8.969
12303TIP3    H2 3981   7.362   1.172   9.036
12304TIP3   OH2 3982   6.640   1.137   9.068
12304TIP3    H1 3983   6.672   1.196   9.140
12304TIP3    H2 3984   6.642   1.046   9.107
12305TIP3   OH2 3985   6.069   1.128   9.254
12305TIP3    H1 3986   5.981   1.171   9.251
12305TIP3    H2 3987   6.122   1.210   9.249
12306TIP3   OH2 3988   7.185   0.842   9.004
12306TIP3    H1 3989   7.135   0.764   8.975
12306TIP3    H2 3990   7.153   0.910   8.941
12307TIP3   OH2 3991   6.753   0.989  10.481
12307TIP3    H1 3992   6.819   0.980  10.410
12307TIP3    H2 3993   6.802   0.955  10.556
12308TIP3   OH2 3994   6.828   0.763   9.322
12308TIP3    H1 3995   6.893   0.836   9.323
12308TIP3    H2 3996   6.762   0.798   9.384
12309TIP3   OH2 3997   6.294   1.031   8.933
12309TIP3    H1 3998   6.237   0.985   8.996
12309TIP3    H2 3999   6.326   0.960   8.874
12310TIP3   OH2 4000   6.738   0.536   9.215
12310TIP3    H1 4001   6.734   0.470   9.286
12310TIP3    H2 4002   6.759   0.618   9.265
12311TIP3   OH2 4003   6.711   0.332   9.417
12311TIP3    H1 4004   6.674   0.379   9.495
12311TIP3    H2 4005   6.805   0.324   9.443
12312TIP3   OH2 4006   6.599   0.899   9.430
12312TIP3    H1 4007   6.510   0.937   9.436
12312TIP3    H2 4008   6.653   0.977   9.457
12313TIP3   OH2 4009   6.213   0.667   8.898
12313TIP3    H1 4010   6.209   0.569   8.888
12313TIP3    H2 4011   6.121   0.692   8.916
12314TIP3   OH2 4012   6.007   0.971   9.040
12314TIP3    H1 4013   6.041   1.020   9.119
12314TIP3    H2 4014   5.914   0.960   9.065
12315TIP3   OH2 4015   6.932   0.639   8.984
12315TIP3    H1 4016   6.989   0.564   9.014
12315TIP3    H2 4017   6.852   0.626   9.037
12316TIP3   OH2 4018   6.657   0.078   9.393
12316TIP3    H1 4019   6.666   0.175   9.378
12316TIP3    H2 4020   6.711   0.073   9.475
12317TIP3   OH2 4021   6.524   0.516   9.012
12317TIP3    H1 4022   6.541   0.476   8.924
12317TIP3    H2 4023   6.601   0.487   9.063
12318TIP3   OH2 4024   6.263   0.442   9.101
12318TIP3    H1 4025   6.353   0.432   9.065
12318TIP3    H2 4026   6.211   0.386   9.037
12319TIP3   OH2 4027   6.118   0.294   8.938
12319TIP3    H1 4028   6.086   0.201   8.948
12319TIP3    H2 4029   6.115   0.311   8.842
12320TIP3   OH2 4030   7.118   0.424   8.987
12320TIP3    H1 4031   7.130   0.345   9.044
12320TIP3    H2 4032   7.131   0.387   8.897
12321TIP3   OH2 4033   6.716   9.363   9.128
12321TIP3    H1 4034   6.633   9.331   9.090
12321TIP3    H2 4035   6.690   9.373   9.222
12322TIP3   OH2 4036   6.619   0.203   8.955
12322TIP3    H1 4037   6.672   0.140   9.007
12322TIP3    H2 4038   6.684   0.266   8.919
12323TIP3   OH2 4039   6.647   1.896  10.566
12323TIP3    H1 4040   6.580   1.956  10.603
12323TIP3    H2 4041   6.728   1.949  10.570
12324TIP3   OH2 4042   7.424   1.855  10.100
12324TIP3    H1 4043   7.481   1.791  10.144
12324TIP3    H2 4044   7.387   1.802  10.026
12325TIP3   OH2 4045   7.332   1.664   9.929
12325TIP3    H1 4046   7.394   1.595   9.900
12325TIP3    H2 4047   7.304   1.701   9.844
12326TIP3   OH2 4048   5.587   1.754   9.673
12326TIP3    H1 4049   5.550   1.768   9.584
12326TIP3    H2 4050   5.527   1.808   9.726
12327TIP3   OH2 4051   5.628   1.701   9.361
12327TIP3    H1 4052   5.659   1.625   9.414
12327TIP3    H2 4053   5.608   1.660   9.275
12328TIP3   OH2 4054   5.752   1.285   8.877
12328TIP3    H1 4055   5.838   1.301   8.832
12328TIP3    H2 4056   5.708   1.372   8.864
12329TIP3   OH2 4057   5.650   1.132  10.365
12329TIP3    H1 4058   5.560   1.160  10.340
12329TIP3    H2 4059   5.666   1.061  10.300
12330TIP3   OH2 4060   5.617   0.936  10.175
12330TIP3    H1 4061   5.695   0.887  10.139
12330TIP3    H2 4062   5.564   0.952  10.095
12331TIP3   OH2 4063   5.645   1.207   9.700
12331TIP3    H1 4064   5.571   1.145   9.714
12331TIP3    H2 4065   5.614   1.289   9.742
12332TIP3   OH2 4066   5.768   1.483   9.440
12332TIP3    H1 4067   5.833   1.529   9.385
12332TIP3    H2 4068   5.817   1.464   9.523
12333TIP3   OH2 4069   5.776   0.637  10.668
12333TIP3    H1 4070   5.823   0.697  10.730
12333TIP3    H2 4071   5.812   0.552  10.694
12334TIP3   OH2 4072   5.819   0.781  10.088
12334TIP3    H1 4073   5.859   0.696  10.112
12334TIP3    H2 4074   5.836   0.784   9.991
12335TIP3   OH2 4075   7.340   1.007   9.710
12335TIP3    H1 4076   7.346   0.968   9.800
12335TIP3    H2 4077   7.246   0.986   9.687
12336TIP3   OH2 4078   5.725   0.978   9.120
12336TIP3    H1 4079   5.674   0.892   9.117
12336TIP3    H2 4080   5.657   1.041   9.150
12337TIP3   OH2 4081   5.625   0.738   9.055
12337TIP3    H1 4082   5.712   0.696   9.072
12337TIP3    H2 4083   5.560   0.665   9.068
12338TIP3   OH2 4084   5.874   0.545  10.264
12338TIP3    H1 4085   5.855   0.449  10.250
12338TIP3    H2 4086   5.789   0.577  10.294
12339TIP3   OH2 4087   5.774   0.584   9.715
12339TIP3    H1 4088   5.676   0.596   9.710
12339TIP3    H2 4089   5.798   0.598   9.622
12340TIP3   OH2 4090   5.783   0.672   9.462
12340TIP3    H1 4091   5.875   0.700   9.447
12340TIP3    H2 4092   5.735   0.758   9.468
12341TIP3   OH2 4093   7.335   0.537   9.096
12341TIP3    H1 4094   7.254   0.513   9.047
12341TIP3    H2 4095   7.383   0.451   9.098
12342TIP3   OH2 4096   5.580   0.125   8.922
12342TIP3    H1 4097   5.527   0.056   8.966
12342TIP3    H2 4098   5.588   0.191   8.994
12343TIP3   OH2 4099   5.799   0.283  10.227
12343TIP3    H1 4100   5.768   0.244  10.144
12343TIP3    H2 4101   5.816   0.204  10.282
12344TIP3   OH2 4102   7.244   0.343   9.782
12344TIP3    H1 4103   7.194   0.260   9.777
12344TIP3    H2 4104   7.174   0.410   9.775
12345TIP3   OH2 4105   7.386   0.636   9.685
12345TIP3    H1 4106   7.332   0.614   9.762
12345TIP3    H2 4107   7.348   0.721   9.659
12346TIP3   OH2 4108   5.603   0.317   9.121
12346TIP3    H1 4109   5.694   0.345   9.096
12346TIP3    H2 4110   5.626   0.241   9.179
12347TIP3   OH2 4111   5.562   0.325  10.660
12347TIP3    H1 4112   5.590   0.234  10.652
12347TIP3    H2 4113   5.489   0.336  10.598
12348TIP3   OH2 4114   7.402   0.287  10.292
12348TIP3    H1 4115   7.495   0.264  10.302
12348TIP3    H2 4116   7.386   0.337  10.375
12349TIP3   OH2 4117   5.906   1.786  10.072
12349TIP3    H1 4118   5.839   1.793  10.142
12349TIP3    H2 4119   5.880   1.851  10.005
12350TIP3   OH2 4120   7.344   0.132   9.461
12350TIP3    H1 4121   7.403   0.121   9.385
12350TIP3    H2 4122   7.385   0.207   9.508
12351TIP3   OH2 4123   7.157   1.444   9.052
12351TIP3    H1 4124   7.240   1.486   9.079
12351TIP3    H2 4125   7.179   1.408   8.967
12352TIP3   OH2 4126   6.874   1.594   9.387
12352TIP3    H1 4127   6.874   1.686   9.422
12352TIP3    H2 4128   6.779   1.573   9.397
12353TIP3   OH2 4129   6.461   1.707   9.130
12353TIP3    H1 4130   6.453   1.691   9.034
12353TIP3    H2 4131   6.372   1.743   9.150
12354TIP3   OH2 4132   6.235   1.861   9.166
12354TIP3    H1 4133   6.153   1.813   9.184
12354TIP3    H2 4134   6.208   1.919   9.092
12355TIP3   OH2 4135   5.674   0.104   9.278
12355TIP3    H1 4136   5.742   0.146   9.335
12355TIP3    H2 4137   5.665   0.014   9.320
12356TIP3   OH2 4138   7.129   1.910   9.420
12356TIP3    H1 4139   7.208   1.954   9.456
12356TIP3    H2 4140   7.137   1.934   9.326
12357TIP3   OH2 4141   6.895   1.837   9.526
12357TIP3    H1 4142   6.985   1.868   9.500
12357TIP3    H2 4143   6.869   1.907   9.590
12358TIP3   OH2 4144   6.432   1.809   9.569
12358TIP3    H1 4145   6.514   1.857   9.588
12358TIP3    H2 4146   6.385   1.874   9.512
12359TIP3   OH2 4147   6.210   1.683   9.445
12359TIP3    H1 4148   6.277   1.713   9.510
12359TIP3    H2 4149   6.137   1.745   9.465
12360TIP3   OH2 4150   5.943   1.844   9.475
12360TIP3    H1 4151   5.929   1.934   9.509
12360TIP3    H2 4152   5.916   1.792   9.554
12361TIP3   OH2 4153   7.172   1.739   9.707
12361TIP3    H1 4154   7.190   1.677   9.634
12361TIP3    H2 4155   7.084   1.709   9.740
12362TIP3   OH2 4156   6.945   1.655   9.846
12362TIP3    H1 4157   6.961   1.560   9.830
12362TIP3    H2 4158   6.859   1.663   9.798
12363TIP3   OH2 4159   6.719   1.635   9.707
12363TIP3    H1 4160   6.683   1.547   9.725
12363TIP3    H2 4161   6.709   1.641   9.610
12364TIP3   OH2 4162   6.332   0.256   9.822
12364TIP3    H1 4163   6.409   0.197   9.829
12364TIP3    H2 4164   6.269   0.212   9.882
12365TIP3   OH2 4165   5.865   0.087   9.848
12365TIP3    H1 4166   5.802   0.134   9.906
12365TIP3    H2 4167   5.948   0.097   9.899
12366TIP3   OH2 4168   5.662   0.154  10.026
12366TIP3    H1 4169   5.606   0.086  10.068
12366TIP3    H2 4170   5.602   0.231  10.011
12367TIP3   OH2 4171   7.143   0.114  10.065
12367TIP3    H1 4172   7.234   0.096  10.093
12367TIP3    H2 4173   7.098   0.028  10.083
12368TIP3   OH2 4174   7.261   0.176  10.550
12368TIP3    H1 4175   7.170   0.174  10.581
12368TIP3    H2 4176   7.252   0.176  10.453
12369TIP3   OH2 4177   6.717   0.103  10.045
12369TIP3    H1 4178   6.639   0.131  10.095
12369TIP3    H2 4179   6.681   0.105   9.954
12370TIP3   OH2 4180   6.131   0.120   9.954
12370TIP3    H1 4181   6.143   0.110  10.050
12370TIP3    H2 4182   6.163   0.036   9.917
12371TIP3   OH2 4183   7.279   1.703  10.399
12371TIP3    H1 4184   7.289   1.654  10.481
12371TIP3    H2 4185   7.253   1.790  10.435
12372TIP3   OH2 4186   6.550   0.251  10.383
12372TIP3    H1 4187   6.528   0.210  10.298
12372TIP3    H2 4188   6.560   0.344  10.356
12373TIP3   OH2 4189   5.732   1.719  10.267
12373TIP3    H1 4190   5.763   1.662  10.341
12373TIP3    H2 4191   5.714   1.802  10.317
12374TIP3   OH2 4192   7.182   0.174   9.139
12374TIP3    H1 4193   7.252   0.106   9.144
12374TIP3    H2 4194   7.113   0.128   9.088
12375TIP3   OH2 4195   6.953   0.096   8.954
12375TIP3    H1 4196   6.857   0.100   8.965
12375TIP3    H2 4197   6.970   0.001   8.968
12376TIP3   OH2 4198   6.048   9.369   8.966
12376TIP3    H1 4199   6.088   9.315   8.896
12376TIP3    H2 4200   5.962   9.325   8.975
12377TIP3   OH2 4201   5.786   1.629   9.077
12377TIP3    H1 4202   5.862   1.618   9.139
12377TIP3    H2 4203   5.805   1.719   9.045
12378TIP3   OH2 4204   4.322   1.011  10.086
12378TIP3    H1 4205   4.342   1.106  10.073
12378TIP3    H2 4206   4.392   0.984  10.149
12379TIP3   OH2 4207   4.439   0.897   9.732
12379TIP3    H1 4208   4.430   0.861   9.640
12379TIP3    H2 4209   4.504   0.839   9.775
12380TIP3   OH2 4210   5.229   0.906   9.587
12380TIP3    H1 4211   5.234   0.818   9.546
12380TIP3    H2 4212   5.168   0.950   9.526
12381TIP3   OH2 4213   4.105   1.211   9.888
12381TIP3    H1 4214   4.089   1.144   9.820
12381TIP3    H2 4215   4.110   1.291   9.834
12382TIP3   OH2 4216   5.144   1.357   9.766
12382TIP3    H1 4217   5.165   1.261   9.776
12382TIP3    H2 4218   5.049   1.350   9.782
12383TIP3   OH2 4219   5.431   0.671  10.185
12383TIP3    H1 4220   5.480   0.752  10.164
12383TIP3    H2 4221   5.493   0.628  10.247
12384TIP3   OH2 4222   5.430   0.937   9.967
12384TIP3    H1 4223   5.398   0.847   9.944
12384TIP3    H2 4224   5.346   0.984   9.979
12385TIP3   OH2 4225   4.365   1.749   9.915
12385TIP3    H1 4226   4.294   1.691   9.952
12385TIP3    H2 4227   4.386   1.695   9.838
12386TIP3   OH2 4228   4.624   1.155   9.641
12386TIP3    H1 4229   4.595   1.078   9.692
12386TIP3    H2 4230   4.537   1.195   9.618
12387TIP3   OH2 4231   3.762   0.301   9.630
12387TIP3    H1 4232   3.757   0.367   9.558
12387TIP3    H2 4233   3.683   0.327   9.682
12388TIP3   OH2 4234   4.255   0.626   9.632
12388TIP3    H1 4235   4.236   0.534   9.606
12388TIP3    H2 4236   4.260   0.618   9.730
12389TIP3   OH2 4237   4.941   0.405   9.977
12389TIP3    H1 4238   4.933   0.496  10.013
12389TIP3    H2 4239   5.004   0.364  10.040
12390TIP3   OH2 4240   4.223   0.419  10.078
12390TIP3    H1 4241   4.166   0.397  10.000
12390TIP3    H2 4242   4.169   0.488  10.120
12391TIP3   OH2 4243   5.325   0.707   9.870
12391TIP3    H1 4244   5.261   0.671   9.807
12391TIP3    H2 4245   5.299   0.655   9.948
12392TIP3   OH2 4246   4.852   0.820   9.913
12392TIP3    H1 4247   4.757   0.794   9.902
12392TIP3    H2 4248   4.879   0.755   9.982
12393TIP3   OH2 4249   3.726   0.466   9.408
12393TIP3    H1 4250   3.777   0.545   9.437
12393TIP3    H2 4251   3.731   0.478   9.312
12394TIP3   OH2 4252   5.052   0.336   9.536
12394TIP3    H1 4253   5.087   0.388   9.611
12394TIP3    H2 4254   5.123   0.356   9.470
12395TIP3   OH2 4255   4.388   1.268  10.168
12395TIP3    H1 4256   4.445   1.224  10.233
12395TIP3    H2 4257   4.412   1.361  10.180
12396TIP3   OH2 4258   4.862   1.084   9.551
12396TIP3    H1 4259   4.922   1.157   9.522
12396TIP3    H2 4260   4.784   1.134   9.584
12397TIP3   OH2 4261   4.045   0.408   9.863
12397TIP3    H1 4262   4.095   0.366   9.790
12397TIP3    H2 4263   3.960   0.422   9.818
12398TIP3   OH2 4264   5.109   0.515   9.752
12398TIP3    H1 4265   5.043   0.580   9.722
12398TIP3    H2 4266   5.063   0.465   9.823
12399TIP3   OH2 4267   5.002   1.291   9.461
12399TIP3    H1 4268   5.014   1.373   9.511
12399TIP3    H2 4269   5.087   1.289   9.411
12400TIP3   OH2 4270   5.394   1.237  10.343
12400TIP3    H1 4271   5.439   1.291  10.409
12400TIP3    H2 4272   5.388   1.301  10.269
12401TIP3   OH2 4273   4.029   1.412   9.661
12401TIP3    H1 4274   4.125   1.429   9.651
12401TIP3    H2 4275   4.006   1.493   9.710
12402TIP3   OH2 4276   3.959   0.217   9.469
12402TIP3    H1 4277   4.044   0.224   9.514
12402TIP3    H2 4278   3.898   0.233   9.546
12403TIP3   OH2 4279   4.689   0.093   9.815
12403TIP3    H1 4280   4.644   0.017   9.774
12403TIP3    H2 4281   4.777   0.089   9.770
12404TIP3   OH2 4282   4.177   1.584  10.012
12404TIP3    H1 4283   4.165   1.509  10.074
12404TIP3    H2 4284   4.107   1.647  10.043
12405TIP3   OH2 4285   4.082   1.358  10.171
12405TIP3    H1 4286   4.130   1.306  10.238
12405TIP3    H2 4287   4.093   1.301  10.092
12406TIP3   OH2 4288   3.933   1.242   9.296
12406TIP3    H1 4289   3.925   1.168   9.361
12406TIP3    H2 4290   3.917   1.319   9.355
12407TIP3   OH2 4291   4.451   0.925  10.318
12407TIP3    H1 4292   4.512   0.999  10.341
12407TIP3    H2 4293   4.376   0.936  10.380
12408TIP3   OH2 4294   3.728   0.889   9.518
12408TIP3    H1 4295   3.798   0.957   9.521
12408TIP3    H2 4296   3.664   0.926   9.582
12409TIP3   OH2 4297   4.088   0.956  10.215
12409TIP3    H1 4298   4.167   0.974  10.159
12409TIP3    H2 4299   4.036   0.896  10.157
12410TIP3   OH2 4300   4.105   0.779   9.316
12410TIP3    H1 4301   4.097   0.872   9.286
12410TIP3    H2 4302   4.188   0.785   9.366
12411TIP3   OH2 4303   4.931   1.010  10.073
12411TIP3    H1 4304   4.966   0.961  10.149
12411TIP3    H2 4305   4.895   0.938  10.017
12412TIP3   OH2 4306   4.844   1.345   9.785
12412TIP3    H1 4307   4.842   1.330   9.880
12412TIP3    H2 4308   4.765   1.298   9.753
12413TIP3   OH2 4309   4.958   0.878   9.675
12413TIP3    H1 4310   4.923   0.879   9.767
12413TIP3    H2 4311   4.905   0.949   9.631
12414TIP3   OH2 4312   4.283   1.462   9.608
12414TIP3    H1 4313   4.311   1.516   9.533
12414TIP3    H2 4314   4.301   1.371   9.575
12415TIP3   OH2 4315   4.846   1.323   9.244
12415TIP3    H1 4316   4.917   1.376   9.202
12415TIP3    H2 4317   4.890   1.301   9.329
12416TIP3   OH2 4318   4.215   0.888  10.450
12416TIP3    H1 4319   4.164   0.917  10.371
12416TIP3    H2 4320   4.167   0.935  10.522
12417TIP3   OH2 4321   5.137   0.948   9.337
12417TIP3    H1 4322   5.116   1.029   9.289
12417TIP3    H2 4323   5.212   0.920   9.283
12418TIP3   OH2 4324   4.459   1.611  10.163
12418TIP3    H1 4325   4.435   1.649  10.077
12418TIP3    H2 4326   4.514   1.682  10.201
12419TIP3   OH2 4327   5.013   1.500   9.132
12419TIP3    H1 4328   5.024   1.542   9.220
12419TIP3    H2 4329   5.107   1.475   9.115
12420TIP3   OH2 4330   3.896   0.078  10.483
12420TIP3    H1 4331   3.985   0.075  10.440
12420TIP3    H2 4332   3.911   0.152  10.546
12421TIP3   OH2 4333   5.065   0.907  10.329
12421TIP3    H1 4334   5.114   0.991  10.323
12421TIP3    H2 4335   5.136   0.843  10.344
12422TIP3   OH2 4336   5.427   1.149   9.378
12422TIP3    H1 4337   5.470   1.135   9.463
12422TIP3    H2 4338   5.410   1.055   9.354
12423TIP3   OH2 4339   5.468   1.439   9.730
12423TIP3    H1 4340   5.381   1.398   9.745
12423TIP3    H2 4341   5.444   1.502   9.660
12424TIP3   OH2 4342   3.668   1.502   9.146
12424TIP3    H1 4343   3.677   1.405   9.147
12424TIP3    H2 4344   3.752   1.526   9.099
12425TIP3   OH2 4345   4.590   1.449   9.247
12425TIP3    H1 4346   4.569   1.516   9.179
12425TIP3    H2 4347   4.681   1.419   9.226
12426TIP3   OH2 4348   4.550   1.835  10.301
12426TIP3    H1 4349   4.536   1.866  10.393
12426TIP3    H2 4350   4.529   1.916  10.250
12427TIP3   OH2 4351   5.159   1.723  10.085
12427TIP3    H1 4352   5.134   1.690   9.996
12427TIP3    H2 4353   5.243   1.677  10.103
12428TIP3   OH2 4354   4.234   1.714  10.592
12428TIP3    H1 4355   4.175   1.641  10.620
12428TIP3    H2 4356   4.217   1.713  10.496
12429TIP3   OH2 4357   4.271   1.746  10.307
12429TIP3    H1 4358   4.359   1.754  10.268
12429TIP3    H2 4359   4.252   1.654  10.288
12430TIP3   OH2 4360   3.977   0.639   9.101
12430TIP3    H1 4361   4.015   0.686   9.179
12430TIP3    H2 4362   3.963   0.549   9.137
12431TIP3   OH2 4363   5.214   1.299   9.303
12431TIP3    H1 4364   5.211   1.264   9.211
12431TIP3    H2 4365   5.296   1.255   9.336
12432TIP3   OH2 4366   4.929   0.135   9.692
12432TIP3    H1 4367   5.004   0.130   9.755
12432TIP3    H2 4368   4.974   0.188   9.624
12433TIP3   OH2 4369   4.501   0.106   9.428
12433TIP3    H1 4370   4.464   0.076   9.345
12433TIP3    H2 4371   4.597   0.116   9.409
12434TIP3   OH2 4372   4.201   0.525   9.286
12434TIP3    H1 4373   4.248   0.502   9.203
12434TIP3    H2 4374   4.169   0.615   9.266
12435TIP3   OH2 4375   4.105   1.008  10.659
12435TIP3    H1 4376   4.136   1.002  10.752
12435TIP3    H2 4377   4.111   1.105  10.649
12436TIP3   OH2 4378   4.938   0.643   9.558
12436TIP3    H1 4379   5.031   0.635   9.531
12436TIP3    H2 4380   4.940   0.735   9.596
12437TIP3   OH2 4381   4.937   0.640  10.107
12437TIP3    H1 4382   5.034   0.629  10.110
12437TIP3    H2 4383   4.908   0.583  10.180
12438TIP3   OH2 4384   4.406   0.667  10.262
12438TIP3    H1 4385   4.414   0.764  10.278
12438TIP3    H2 4386   4.328   0.643  10.315
12439TIP3   OH2 4387   4.500   0.742   9.084
12439TIP3    H1 4388   4.544   0.663   9.047
12439TIP3    H2 4389   4.421   0.747   9.027
12440TIP3   OH2 4390   4.291   0.674   9.897
12440TIP3    H1 4391   4.310   0.756   9.947
12440TIP3    H2 4392   4.304   0.605   9.964
12441TIP3   OH2 4393   5.202   0.652   9.461
12441TIP3    H1 4394   5.172   0.685   9.375
12441TIP3    H2 4395   5.241   0.565   9.437
12442TIP3   OH2 4396   5.505   0.373  10.016
12442TIP3    H1 4397   5.446   0.385   9.938
12442TIP3    H2 4398   5.455   0.411  10.089
12443TIP3   OH2 4399   5.396   0.431  10.433
12443TIP3    H1 4400   5.321   0.440  10.496
12443TIP3    H2 4401   5.444   0.515  10.442
12444TIP3   OH2 4402   4.391   0.804   9.486
12444TIP3    H1 4403   4.333   0.739   9.532
12444TIP3    H2 4404   4.448   0.744   9.431
12445TIP3   OH2 4405   4.659   0.392   9.985
12445TIP3    H1 4406   4.756   0.375   9.984
12445TIP3    H2 4407   4.634   0.370   9.894
12446TIP3   OH2 4408   5.212   0.556  10.074
12446TIP3    H1 4409   5.284   0.590  10.131
12446TIP3    H2 4410   5.183   0.478  10.126
12447TIP3   OH2 4411   4.875   0.575  10.372
12447TIP3    H1 4412   4.782   0.575  10.338
12447TIP3    H2 4413   4.903   0.665  10.354
12448TIP3   OH2 4414   4.209   0.300   9.677
12448TIP3    H1 4415   4.280   0.307   9.612
12448TIP3    H2 4416   4.261   0.271   9.755
12449TIP3   OH2 4417   5.052   0.688  10.650
12449TIP3    H1 4418   5.084   0.698  10.743
12449TIP3    H2 4419   4.960   0.669  10.662
12450TIP3   OH2 4420   3.963   1.888   9.004
12450TIP3    H1 4421   3.931   1.918   9.090
12450TIP3    H2 4422   3.884   1.906   8.950
12451TIP3   OH2 4423   5.178   1.113   9.078
12451TIP3    H1 4424   5.112   1.138   9.010
12451TIP3    H2 4425   5.262   1.118   9.029
12452TIP3   OH2 4426   4.625   0.694   9.841
12452TIP3    H1 4427   4.539   0.650   9.845
12452TIP3    H2 4428   4.673   0.631   9.784
12453TIP3   OH2 4429   5.111   0.320  10.175
12453TIP3    H1 4430   5.167   0.258  10.122
12453TIP3    H2 4431   5.056   0.256  10.223
12454TIP3   OH2 4432   4.719   0.491   9.585
12454TIP3    H1 4433   4.801   0.544   9.573
12454TIP3    H2 4434   4.659   0.532   9.521
12455TIP3   OH2 4435   4.646   1.109  10.349
12455TIP3    H1 4436   4.728   1.083  10.396
12455TIP3    H2 4437   4.683   1.167  10.280
12456TIP3   OH2 4438   3.919   1.088   9.501
12456TIP3    H1 4439   3.870   1.145   9.566
12456TIP3    H2 4440   4.007   1.089   9.543
12457TIP3   OH2 4441   4.532   1.189   9.298
12457TIP3    H1 4442   4.544   1.149   9.212
12457TIP3    H2 4443   4.556   1.282   9.280
12458TIP3   OH2 4444   4.193   0.587  10.398
12458TIP3    H1 4445   4.108   0.589  10.350
12458TIP3    H2 4446   4.182   0.659  10.463
12459TIP3   OH2 4447   5.126   1.085   9.806
12459TIP3    H1 4448   5.046   1.064   9.855
12459TIP3    H2 4449   5.129   1.011   9.743
12460TIP3   OH2 4450   5.459   0.900   9.271
12460TIP3    H1 4451   5.462   0.835   9.199
12460TIP3    H2 4452   5.507   0.854   9.342
12461TIP3   OH2 4453   4.766   0.873   9.110
12461TIP3    H1 4454   4.811   0.819   9.179
12461TIP3    H2 4455   4.678   0.831   9.107
12462TIP3   OH2 4456   4.252   1.404   9.245
12462TIP3    H1 4457   4.327   1.425   9.302
12462TIP3    H2 4458   4.279   1.452   9.165
12463TIP3   OH2 4459   3.707   0.617  10.425
12463TIP3    H1 4460   3.771   0.603  10.498
12463TIP3    H2 4461   3.710   0.712  10.417
12464TIP3   OH2 4462   3.681   1.230   9.181
12464TIP3    H1 4463   3.770   1.233   9.222
12464TIP3    H2 4464   3.623   1.221   9.260
12465TIP3   OH2 4465   3.869   1.480  10.408
12465TIP3    H1 4466   3.958   1.445  10.390
12465TIP3    H2 4467   3.873   1.503  10.503
12466TIP3   OH2 4468   4.132   1.002   9.695
12466TIP3    H1 4469   4.224   0.988   9.722
12466TIP3    H2 4470   4.085   0.933   9.747
12467TIP3   OH2 4471   4.925   1.422  10.055
12467TIP3    H1 4472   4.858   1.492  10.062
12467TIP3    H2 4473   4.996   1.458  10.111
12468TIP3   OH2 4474   4.750   1.224  10.120
12468TIP3    H1 4475   4.817   1.294  10.108
12468TIP3    H2 4476   4.795   1.146  10.084
12469TIP3   OH2 4477   4.728   1.629   9.430
12469TIP3    H1 4478   4.655   1.682   9.466
12469TIP3    H2 4479   4.678   1.576   9.364
12470TIP3   OH2 4480   4.904   1.689  10.172
12470TIP3    H1 4481   4.997   1.703  10.144
12470TIP3    H2 4482   4.864   1.773  10.142
12471TIP3   OH2 4483   4.380   1.207   9.522
12471TIP3    H1 4484   4.429   1.186   9.438
12471TIP3    H2 4485   4.334   1.123   9.541
12472TIP3   OH2 4486   4.161   1.396  10.553
12472TIP3    H1 4487   4.152   1.313  10.503
12472TIP3    H2 4488   4.246   1.373  10.601
12473TIP3   OH2 4489   4.071   1.677   9.272
12473TIP3    H1 4490   4.154   1.633   9.299
12473TIP3    H2 4491   4.055   1.734   9.351
12474TIP3   OH2 4492   5.270   0.374   9.373
12474TIP3    H1 4493   5.323   0.418   9.304
12474TIP3    H2 4494   5.289   0.281   9.349
12475TIP3   OH2 4495   4.072   1.174  10.388
12475TIP3    H1 4496   4.082   1.103  10.322
12475TIP3    H2 4497   3.978   1.196  10.381
12476TIP3   OH2 4498   5.326   1.568   9.507
12476TIP3    H1 4499   5.251   1.513   9.480
12476TIP3    H2 4500   5.347   1.621   9.428
12477TIP3   OH2 4501   5.199   1.113  10.492
12477TIP3    H1 4502   5.269   1.150  10.434
12477TIP3    H2 4503   5.139   1.189  10.497
12478TIP3   OH2 4504   4.418   0.368   9.394
12478TIP3    H1 4505   4.363   0.384   9.316
12478TIP3    H2 4506   4.434   0.273   9.389
12479TIP3   OH2 4507   4.316   0.314  10.304
12479TIP3    H1 4508   4.296   0.388  10.363
12479TIP3    H2 4509   4.278   0.350  10.221
12480TIP3   OH2 4510   4.561   1.580  10.471
12480TIP3    H1 4511   4.655   1.593  10.450
12480TIP3    H2 4512   4.522   1.654  10.424
12481TIP3   OH2 4513   4.633   0.519  10.240
12481TIP3    H1 4514   4.547   0.566  10.244
12481TIP3    H2 4515   4.634   0.482  10.149
12482TIP3   OH2 4516   4.532   0.635   9.331
12482TIP3    H1 4517   4.522   0.661   9.236
12482TIP3    H2 4518   4.493   0.545   9.336
12483TIP3   OH2 4519   4.526   0.199  10.132
12483TIP3    H1 4520   4.556   0.278  10.083
12483TIP3    H2 4521   4.451   0.234  10.183
12484TIP3   OH2 4522   4.848   1.658  10.444
12484TIP3    H1 4523   4.820   1.742  10.482
12484TIP3    H2 4524   4.883   1.684  10.356
12485TIP3   OH2 4525   4.967   0.329  10.439
12485TIP3    H1 4526   4.944   0.422  10.413
12485TIP3    H2 4527   4.886   0.284  10.407
12486TIP3   OH2 4528   3.954   0.406   9.242
12486TIP3    H1 4529   4.051   0.414   9.250
12486TIP3    H2 4530   3.931   0.356   9.323
12487TIP3   OH2 4531   4.039   0.786   9.850
12487TIP3    H1 4532   4.122   0.735   9.849
12487TIP3    H2 4533   3.976   0.726   9.802
12488TIP3   OH2 4534   3.988   1.683   9.698
12488TIP3    H1 4535   3.975   1.751   9.767
12488TIP3    H2 4536   3.897   1.681   9.661
12489TIP3   OH2 4537   5.180   0.156   9.797
12489TIP3    H1 4538   5.205   0.144   9.891
12489TIP3    H2 4539   5.221   0.077   9.752
12490TIP3   OH2 4540   5.384   1.491  10.177
12490TIP3    H1 4541   5.436   1.547  10.118
12490TIP3    H2 4542   5.371   1.553  10.253
12491TIP3   OH2 4543   5.422   1.797   9.040
12491TIP3    H1 4544   5.363   1.787   8.961
12491TIP3    H2 4545   5.449   1.704   9.050
12492TIP3   OH2 4546   4.918   1.613   8.860
12492TIP3    H1 4547   4.823   1.599   8.875
12492TIP3    H2 4548   4.955   1.565   8.936
12493TIP3   OH2 4549   4.312   1.528   9.012
12493TIP3    H1 4550   4.331   1.438   8.977
12493TIP3    H2 4551   4.222   1.540   8.976
12494TIP3   OH2 4552   5.434   1.130   8.962
12494TIP3    H1 4553   5.468   1.040   8.967
12494TIP3    H2 4554   5.473   1.172   9.042
12495TIP3   OH2 4555   4.755   1.136   9.060
12495TIP3    H1 4556   4.784   1.195   9.133
12495TIP3    H2 4557   4.759   1.045   9.100
12496TIP3   OH2 4558   4.178   1.123   9.245
12496TIP3    H1 4559   4.089   1.164   9.248
12496TIP3    H2 4560   4.229   1.206   9.238
12497TIP3   OH2 4561   5.303   0.831   9.003
12497TIP3    H1 4562   5.249   0.756   8.973
12497TIP3    H2 4563   5.274   0.903   8.944
12498TIP3   OH2 4564   4.859   1.004  10.485
12498TIP3    H1 4565   4.937   0.961  10.444
12498TIP3    H2 4566   4.813   0.933  10.531
12499TIP3   OH2 4567   4.938   0.766   9.306
12499TIP3    H1 4568   5.007   0.835   9.310
12499TIP3    H2 4569   4.874   0.801   9.372
12500TIP3   OH2 4570   4.411   1.031   8.932
12500TIP3    H1 4571   4.349   0.985   8.990
12500TIP3    H2 4572   4.442   0.960   8.872
12501TIP3   OH2 4573   4.851   0.536   9.211
12501TIP3    H1 4574   4.841   0.475   9.286
12501TIP3    H2 4575   4.863   0.622   9.257
12502TIP3   OH2 4576   4.823   0.333   9.405
12502TIP3    H1 4577   4.785   0.379   9.483
12502TIP3    H2 4578   4.916   0.321   9.436
12503TIP3   OH2 4579   4.717   0.902   9.409
12503TIP3    H1 4580   4.623   0.913   9.427
12503TIP3    H2 4581   4.756   0.983   9.448
12504TIP3   OH2 4582   4.305   0.662   8.884
12504TIP3    H1 4583   4.294   0.565   8.878
12504TIP3    H2 4584   4.215   0.690   8.905
12505TIP3   OH2 4585   4.124   0.961   9.041
12505TIP3    H1 4586   4.154   1.014   9.119
12505TIP3    H2 4587   4.029   0.954   9.059
12506TIP3   OH2 4588   5.049   0.635   8.973
12506TIP3    H1 4589   5.107   0.562   9.005
12506TIP3    H2 4590   4.973   0.627   9.033
12507TIP3   OH2 4591   4.769   0.081   9.395
12507TIP3    H1 4592   4.780   0.175   9.366
12507TIP3    H2 4593   4.818   0.086   9.480
12508TIP3   OH2 4594   4.639   0.518   9.007
12508TIP3    H1 4595   4.662   0.481   8.919
12508TIP3    H2 4596   4.716   0.491   9.061
12509TIP3   OH2 4597   4.375   0.437   9.103
12509TIP3    H1 4598   4.465   0.429   9.066
12509TIP3    H2 4599   4.323   0.383   9.038
12510TIP3   OH2 4600   4.230   0.296   8.938
12510TIP3    H1 4601   4.203   0.202   8.944
12510TIP3    H2 4602   4.233   0.312   8.842
12511TIP3   OH2 4603   5.236   0.424   8.986
12511TIP3    H1 4604   5.247   0.347   9.047
12511TIP3    H2 4605   5.249   0.381   8.898
12512TIP3   OH2 4606   4.826   9.359   9.123
12512TIP3    H1 4607   4.741   9.329   9.086
12512TIP3    H2 4608   4.800   9.381   9.215
12513TIP3   OH2 4609   4.733   0.203   8.962
12513TIP3    H1 4610   4.782   0.143   9.020
12513TIP3    H2 4611   4.803   0.265   8.931
12514TIP3   OH2 4612   5.533   1.842  10.126
12514TIP3    H1 4613   5.599   1.787  10.172
12514TIP3    H2 4614   5.509   1.780  10.054
12515TIP3   OH2 4615   5.455   1.671   9.933
12515TIP3    H1 4616   5.514   1.628   9.868
12515TIP3    H2 4617   5.384   1.700   9.872
12516TIP3   OH2 4618   3.717   1.752   9.669
12516TIP3    H1 4619   3.676   1.764   9.582
12516TIP3    H2 4620   3.647   1.773   9.731
12517TIP3   OH2 4621   3.746   1.707   9.363
12517TIP3    H1 4622   3.778   1.628   9.413
12517TIP3    H2 4623   3.719   1.662   9.280
12518TIP3   OH2 4624   3.871   1.285   8.876
12518TIP3    H1 4625   3.959   1.297   8.835
12518TIP3    H2 4626   3.827   1.367   8.844
12519TIP3   OH2 4627   3.727   0.949  10.166
12519TIP3    H1 4628   3.805   0.898  10.137
12519TIP3    H2 4629   3.675   0.954  10.083
12520TIP3   OH2 4630   3.768   1.210   9.682
12520TIP3    H1 4631   3.697   1.145   9.703
12520TIP3    H2 4632   3.724   1.294   9.705
12521TIP3   OH2 4633   3.883   1.485   9.441
12521TIP3    H1 4634   3.956   1.521   9.388
12521TIP3    H2 4635   3.928   1.461   9.526
12522TIP3   OH2 4636   3.898   0.614  10.614
12522TIP3    H1 4637   3.914   0.669  10.691
12522TIP3    H2 4638   3.918   0.528  10.661
12523TIP3   OH2 4639   3.917   0.783  10.084
12523TIP3    H1 4640   3.959   0.697  10.106
12523TIP3    H2 4641   3.945   0.792   9.989
12524TIP3   OH2 4642   5.443   1.010   9.691
12524TIP3    H1 4643   5.445   0.978   9.784
12524TIP3    H2 4644   5.351   0.985   9.665
12525TIP3   OH2 4645   3.844   0.978   9.121
12525TIP3    H1 4646   3.797   0.892   9.119
12525TIP3    H2 4647   3.776   1.038   9.157
12526TIP3   OH2 4648   3.736   0.735   9.053
12526TIP3    H1 4649   3.825   0.699   9.071
12526TIP3    H2 4650   3.677   0.655   9.057
12527TIP3   OH2 4651   3.987   0.544  10.217
12527TIP3    H1 4652   3.966   0.447  10.217
12527TIP3    H2 4653   3.911   0.571  10.269
12528TIP3   OH2 4654   3.872   0.612   9.721
12528TIP3    H1 4655   3.773   0.619   9.715
12528TIP3    H2 4656   3.894   0.617   9.626
12529TIP3   OH2 4657   3.895   0.668   9.460
12529TIP3    H1 4658   3.987   0.694   9.440
12529TIP3    H2 4659   3.850   0.755   9.468
12530TIP3   OH2 4660   5.451   0.534   9.100
12530TIP3    H1 4661   5.373   0.510   9.045
12530TIP3    H2 4662   5.501   0.449   9.102
12531TIP3   OH2 4663   3.690   0.122   8.917
12531TIP3    H1 4664   3.638   0.053   8.962
12531TIP3    H2 4665   3.697   0.189   8.988
12532TIP3   OH2 4666   3.910   0.293  10.247
12532TIP3    H1 4667   3.871   0.243  10.172
12532TIP3    H2 4668   3.964   0.224  10.290
12533TIP3   OH2 4669   5.361   0.362   9.796
12533TIP3    H1 4670   5.319   0.276   9.781
12533TIP3    H2 4671   5.284   0.420   9.786
12534TIP3   OH2 4672   5.513   0.644   9.686
12534TIP3    H1 4673   5.459   0.619   9.763
12534TIP3    H2 4674   5.470   0.723   9.656
12535TIP3   OH2 4675   3.720   0.311   9.116
12535TIP3    H1 4676   3.811   0.341   9.097
12535TIP3    H2 4677   3.741   0.241   9.181
12536TIP3   OH2 4678   5.531   0.235  10.296
12536TIP3    H1 4679   5.617   0.271  10.269
12536TIP3    H2 4680   5.490   0.311  10.341
12537TIP3   OH2 4681   4.009   1.767  10.094
12537TIP3    H1 4682   3.944   1.744  10.164
12537TIP3    H2 4683   3.956   1.811  10.025
12538TIP3   OH2 4684   5.462   0.132   9.461
12538TIP3    H1 4685   5.519   0.120   9.383
12538TIP3    H2 4686   5.504   0.206   9.509
12539TIP3   OH2 4687   5.272   1.442   9.058
12539TIP3    H1 4688   5.356   1.481   9.087
12539TIP3    H2 4689   5.291   1.420   8.967
12540TIP3   OH2 4690   4.991   1.583   9.397
12540TIP3    H1 4691   4.996   1.678   9.420
12540TIP3    H2 4692   4.893   1.574   9.398
12541TIP3   OH2 4693   4.576   1.705   9.131
12541TIP3    H1 4694   4.565   1.696   9.035
12541TIP3    H2 4695   4.489   1.741   9.157
12542TIP3   OH2 4696   4.354   1.863   9.167
12542TIP3    H1 4697   4.271   1.820   9.190
12542TIP3    H2 4698   4.328   1.919   9.091
12543TIP3   OH2 4699   3.793   0.100   9.289
12543TIP3    H1 4700   3.860   0.144   9.346
12543TIP3    H2 4701   3.782   0.013   9.335
12544TIP3   OH2 4702   5.258   1.909   9.419
12544TIP3    H1 4703   5.335   1.965   9.445
12544TIP3    H2 4704   5.255   1.930   9.324
12545TIP3   OH2 4705   5.015   1.848   9.515
12545TIP3    H1 4706   5.107   1.869   9.488
12545TIP3    H2 4707   4.995   1.919   9.579
12546TIP3   OH2 4708   4.538   1.807   9.586
12546TIP3    H1 4709   4.615   1.851   9.627
12546TIP3    H2 4710   4.505   1.880   9.530
12547TIP3   OH2 4711   4.320   1.683   9.443
12547TIP3    H1 4712   4.390   1.715   9.503
12547TIP3    H2 4713   4.249   1.746   9.467
12548TIP3   OH2 4714   4.056   1.835   9.482
12548TIP3    H1 4715   4.039   1.928   9.503
12548TIP3    H2 4716   4.028   1.792   9.566
12549TIP3   OH2 4717   5.290   1.742   9.716
12549TIP3    H1 4718   5.308   1.680   9.642
12549TIP3    H2 4719   5.197   1.716   9.739
12550TIP3   OH2 4720   5.065   1.653   9.844
12550TIP3    H1 4721   5.089   1.563   9.817
12550TIP3    H2 4722   4.976   1.661   9.802
12551TIP3   OH2 4723   4.835   1.655   9.711
12551TIP3    H1 4724   4.817   1.562   9.729
12551TIP3    H2 4725   4.817   1.658   9.615
12552TIP3   OH2 4726   4.447   0.259   9.826
12552TIP3    H1 4727   4.529   0.206   9.822
12552TIP3    H2 4728   4.403   0.215   9.900
12553TIP3   OH2 4729   3.981   0.045   9.885
12553TIP3    H1 4730   3.918   0.112   9.921
12553TIP3    H2 4731   4.068   0.086   9.903
12554TIP3   OH2 4732   3.790   0.159  10.046
12554TIP3    H1 4733   3.729   0.097  10.089
12554TIP3    H2 4734   3.730   0.234  10.020
12555TIP3   OH2 4735   5.239   0.123  10.054
12555TIP3    H1 4736   5.333   0.108  10.074
12555TIP3    H2 4737   5.200   0.035  10.071
12556TIP3   OH2 4738   5.331   0.144  10.458
12556TIP3    H1 4739   5.311   0.239  10.457
12556TIP3    H2 4740   5.400   0.143  10.388
12557TIP3   OH2 4741   4.814   0.087  10.057
12557TIP3    H1 4742   4.730   0.123  10.092
12557TIP3    H2 4743   4.797   0.094   9.961
12558TIP3   OH2 4744   4.233   0.111   9.963
12558TIP3    H1 4745   4.258   0.105  10.057
12558TIP3    H2 4746   4.283   0.039   9.919
12559TIP3   OH2 4747   4.121   0.128  10.353
12559TIP3    H1 4748   4.186   0.195  10.381
12559TIP3    H2 4749   4.180   0.062  10.312
12560TIP3   OH2 4750   5.384   1.671  10.372
12560TIP3    H1 4751   5.469   1.682  10.420
12560TIP3    H2 4752   5.342   1.751  10.408
12561TIP3   OH2 4753   5.183   0.366  10.581
12561TIP3    H1 4754   5.162   0.275  10.607
12561TIP3    H2 4755   5.106   0.387  10.523
12562TIP3   OH2 4756   4.708   0.279  10.373
12562TIP3    H1 4757   4.626   0.239  10.339
12562TIP3    H2 4758   4.690   0.373  10.356
12563TIP3   OH2 4759   4.478   1.826  10.570
12563TIP3    H1 4760   4.382   1.803  10.575
12563TIP3    H2 4761   4.515   1.751  10.620
12564TIP3   OH2 4762   3.837   1.713  10.288
12564TIP3    H1 4763   3.843   1.623  10.329
12564TIP3    H2 4764   3.860   1.769  10.364
12565TIP3   OH2 4765   5.297   0.179   9.139
12565TIP3    H1 4766   5.366   0.112   9.155
12565TIP3    H2 4767   5.232   0.129   9.085
12566TIP3   OH2 4768   5.070   0.091   8.967
12566TIP3    H1 4769   4.974   0.096   8.982
12566TIP3    H2 4770   5.083  -0.004   8.978
12567TIP3   OH2 4771   4.160   9.372   8.961
12567TIP3    H1 4772   4.192   9.313   8.892
12567TIP3    H2 4773   4.072   9.334   8.977
12568TIP3   OH2 4774   3.893   1.624   9.074
12568TIP3    H1 4775   3.966   1.611   9.138
12568TIP3    H2 4776   3.914   1.713   9.042
12569TIP3   OH2 4777   2.425   1.018  10.078
12569TIP3    H1 4778   2.402   1.103  10.037
12569TIP3    H2 4779   2.507   1.042  10.124
12570TIP3   OH2 4780   2.550   0.894   9.738
12570TIP3    H1 4781   2.549   0.860   9.646
12570TIP3    H2 4782   2.630   0.852   9.776
12571TIP3   OH2 4783   3.358   0.899   9.600
12571TIP3    H1 4784   3.364   0.821   9.542
12571TIP3    H2 4785   3.273   0.935   9.570
12572TIP3   OH2 4786   2.225   1.182   9.893
12572TIP3    H1 4787   2.254   1.122   9.822
12572TIP3    H2 4788   2.208   1.263   9.843
12573TIP3   OH2 4789   3.255   1.360   9.765
12573TIP3    H1 4790   3.282   1.269   9.788
12573TIP3    H2 4791   3.160   1.349   9.779
12574TIP3   OH2 4792   3.550   0.686  10.185
12574TIP3    H1 4793   3.591   0.774  10.193
12574TIP3    H2 4794   3.619   0.638  10.137
12575TIP3   OH2 4795   3.559   0.938   9.951
12575TIP3    H1 4796   3.526   0.846   9.939
12575TIP3    H2 4797   3.477   0.991   9.951
12576TIP3   OH2 4798   2.487   1.735   9.905
12576TIP3    H1 4799   2.414   1.683   9.945
12576TIP3    H2 4800   2.504   1.679   9.829
12577TIP3   OH2 4801   2.748   1.184   9.632
12577TIP3    H1 4802   2.730   1.113   9.695
12577TIP3    H2 4803   2.657   1.218   9.615
12578TIP3   OH2 4804   1.876   0.302   9.638
12578TIP3    H1 4805   1.866   0.372   9.569
12578TIP3    H2 4806   1.798   0.321   9.693
12579TIP3   OH2 4807   2.379   0.624   9.627
12579TIP3    H1 4808   2.347   0.533   9.613
12579TIP3    H2 4809   2.403   0.622   9.722
12580TIP3   OH2 4810   3.063   0.408   9.970
12580TIP3    H1 4811   3.055   0.494  10.017
12580TIP3    H2 4812   3.124   0.359  10.029
12581TIP3   OH2 4813   2.324   0.396  10.112
12581TIP3    H1 4814   2.274   0.369  10.033
12581TIP3    H2 4815   2.287   0.485  10.124
12582TIP3   OH2 4816   3.445   0.698   9.874
12582TIP3    H1 4817   3.373   0.671   9.815
12582TIP3    H2 4818   3.419   0.643   9.951
12583TIP3   OH2 4819   2.977   0.814   9.914
12583TIP3    H1 4820   2.886   0.780   9.900
12583TIP3    H2 4821   3.016   0.742   9.968
12584TIP3   OH2 4822   1.839   0.464   9.420
12584TIP3    H1 4823   1.892   0.545   9.439
12584TIP3    H2 4824   1.841   0.465   9.323
12585TIP3   OH2 4825   3.174   0.335   9.533
12585TIP3    H1 4826   3.210   0.382   9.612
12585TIP3    H2 4827   3.247   0.350   9.469
12586TIP3   OH2 4828   2.512   1.290  10.172
12586TIP3    H1 4829   2.578   1.257  10.236
12586TIP3    H2 4830   2.522   1.386  10.182
12587TIP3   OH2 4831   2.981   1.086   9.539
12587TIP3    H1 4832   3.043   1.156   9.508
12587TIP3    H2 4833   2.903   1.140   9.567
12588TIP3   OH2 4834   2.173   0.401   9.866
12588TIP3    H1 4835   2.215   0.364   9.786
12588TIP3    H2 4836   2.079   0.402   9.842
12589TIP3   OH2 4837   3.235   0.527   9.755
12589TIP3    H1 4838   3.170   0.587   9.713
12589TIP3    H2 4839   3.182   0.483   9.824
12590TIP3   OH2 4840   3.115   1.297   9.453
12590TIP3    H1 4841   3.138   1.366   9.517
12590TIP3    H2 4842   3.200   1.293   9.401
12591TIP3   OH2 4843   3.519   1.258  10.365
12591TIP3    H1 4844   3.522   1.324  10.438
12591TIP3    H2 4845   3.521   1.312  10.284
12592TIP3   OH2 4846   2.153   1.410   9.687
12592TIP3    H1 4847   2.245   1.440   9.673
12592TIP3    H2 4848   2.116   1.493   9.722
12593TIP3   OH2 4849   2.057   0.215   9.453
12593TIP3    H1 4850   2.146   0.227   9.491
12593TIP3    H2 4851   2.002   0.230   9.534
12594TIP3   OH2 4852   2.806   0.110   9.799
12594TIP3    H1 4853   2.778   0.021   9.774
12594TIP3    H2 4854   2.890   0.122   9.748
12595TIP3   OH2 4855   2.292   1.571   9.984
12595TIP3    H1 4856   2.290   1.501  10.051
12595TIP3    H2 4857   2.212   1.623  10.008
12596TIP3   OH2 4858   2.182   1.356  10.155
12596TIP3    H1 4859   2.209   1.303  10.232
12596TIP3    H2 4860   2.194   1.294  10.081
12597TIP3   OH2 4861   2.056   1.241   9.295
12597TIP3    H1 4862   2.043   1.168   9.360
12597TIP3    H2 4863   2.031   1.318   9.350
12598TIP3   OH2 4864   2.585   0.936  10.335
12598TIP3    H1 4865   2.635   1.020  10.347
12598TIP3    H2 4866   2.517   0.938  10.404
12599TIP3   OH2 4867   1.836   0.890   9.520
12599TIP3    H1 4868   1.903   0.962   9.518
12599TIP3    H2 4869   1.773   0.926   9.585
12600TIP3   OH2 4870   2.209   0.913  10.224
12600TIP3    H1 4871   2.279   0.951  10.165
12600TIP3    H2 4872   2.146   0.877  10.159
12601TIP3   OH2 4873   2.235   0.776   9.308
12601TIP3    H1 4874   2.221   0.868   9.280
12601TIP3    H2 4875   2.314   0.789   9.365
12602TIP3   OH2 4876   3.061   1.006  10.070
12602TIP3    H1 4877   3.096   0.966  10.152
12602TIP3    H2 4878   3.023   0.929  10.023
12603TIP3   OH2 4879   2.957   1.334   9.774
12603TIP3    H1 4880   2.932   1.319   9.867
12603TIP3    H2 4881   2.888   1.285   9.725
12604TIP3   OH2 4882   3.079   0.889   9.677
12604TIP3    H1 4883   3.042   0.883   9.768
12604TIP3    H2 4884   3.022   0.957   9.634
12605TIP3   OH2 4885   2.404   1.465   9.607
12605TIP3    H1 4886   2.431   1.517   9.531
12605TIP3    H2 4887   2.414   1.373   9.573
12606TIP3   OH2 4888   2.953   1.324   9.236
12606TIP3    H1 4889   3.023   1.380   9.196
12606TIP3    H2 4890   2.994   1.308   9.324
12607TIP3   OH2 4891   2.334   0.886  10.459
12607TIP3    H1 4892   2.298   0.875  10.367
12607TIP3    H2 4893   2.285   0.965  10.485
12608TIP3   OH2 4894   3.245   0.949   9.332
12608TIP3    H1 4895   3.230   1.039   9.300
12608TIP3    H2 4896   3.325   0.926   9.284
12609TIP3   OH2 4897   2.561   1.584  10.173
12609TIP3    H1 4898   2.574   1.598  10.078
12609TIP3    H2 4899   2.631   1.637  10.214
12610TIP3   OH2 4900   3.130   1.501   9.127
12610TIP3    H1 4901   3.142   1.545   9.214
12610TIP3    H2 4902   3.223   1.475   9.110
12611TIP3   OH2 4903   1.987   0.103  10.460
12611TIP3    H1 4904   2.075   0.114  10.418
12611TIP3    H2 4905   1.993   0.172  10.526
12612TIP3   OH2 4906   3.194   0.907  10.316
12612TIP3    H1 4907   3.214   0.991  10.366
12612TIP3    H2 4908   3.278   0.860  10.324
12613TIP3   OH2 4909   1.808   1.486  10.597
12613TIP3    H1 4910   1.797   1.583  10.611
12613TIP3    H2 4911   1.733   1.448  10.643
12614TIP3   OH2 4912   3.543   1.155   9.393
12614TIP3    H1 4913   3.584   1.134   9.479
12614TIP3    H2 4914   3.524   1.065   9.361
12615TIP3   OH2 4915   3.574   1.442   9.733
12615TIP3    H1 4916   3.480   1.416   9.736
12615TIP3    H2 4917   3.572   1.510   9.664
12616TIP3   OH2 4918   1.781   1.503   9.147
12616TIP3    H1 4919   1.788   1.407   9.130
12616TIP3    H2 4920   1.863   1.534   9.102
12617TIP3   OH2 4921   2.702   1.442   9.239
12617TIP3    H1 4922   2.683   1.512   9.174
12617TIP3    H2 4923   2.794   1.413   9.221
12618TIP3   OH2 4924   2.646   1.866  10.340
12618TIP3    H1 4925   2.590   1.933  10.384
12618TIP3    H2 4926   2.643   1.901  10.248
12619TIP3   OH2 4927   3.281   1.732  10.086
12619TIP3    H1 4928   3.246   1.703   9.998
12619TIP3    H2 4929   3.350   1.663  10.103
12620TIP3   OH2 4930   2.357   1.751  10.315
12620TIP3    H1 4931   2.444   1.771  10.277
12620TIP3    H2 4932   2.337   1.668  10.269
12621TIP3   OH2 4933   2.088   0.640   9.102
12621TIP3    H1 4934   2.131   0.689   9.175
12621TIP3    H2 4935   2.082   0.550   9.140
12622TIP3   OH2 4936   3.332   1.294   9.303
12622TIP3    H1 4937   3.331   1.258   9.211
12622TIP3    H2 4938   3.418   1.258   9.336
12623TIP3   OH2 4939   3.035   0.157   9.676
12623TIP3    H1 4940   3.111   0.143   9.737
12623TIP3    H2 4941   3.083   0.215   9.613
12624TIP3   OH2 4942   2.612   0.106   9.430
12624TIP3    H1 4943   2.573   0.078   9.346
12624TIP3    H2 4944   2.706   0.116   9.408
12625TIP3   OH2 4945   2.323   0.521   9.285
12625TIP3    H1 4946   2.386   0.503   9.210
12625TIP3    H2 4947   2.296   0.613   9.264
12626TIP3   OH2 4948   2.630   0.359  10.634
12626TIP3    H1 4949   2.603   0.357  10.541
12626TIP3    H2 4950   2.655   0.266  10.646
12627TIP3   OH2 4951   3.061   0.645   9.565
12627TIP3    H1 4952   3.154   0.638   9.538
12627TIP3    H2 4953   3.060   0.736   9.601
12628TIP3   OH2 4954   3.076   0.638  10.103
12628TIP3    H1 4955   3.172   0.620  10.113
12628TIP3    H2 4956   3.040   0.619  10.192
12629TIP3   OH2 4957   2.516   0.693  10.229
12629TIP3    H1 4958   2.531   0.788  10.250
12629TIP3    H2 4959   2.447   0.667  10.294
12630TIP3   OH2 4960   2.613   0.743   9.086
12630TIP3    H1 4961   2.658   0.663   9.050
12630TIP3    H2 4962   2.532   0.744   9.031
12631TIP3   OH2 4963   2.423   0.680   9.902
12631TIP3    H1 4964   2.433   0.770   9.937
12631TIP3    H2 4965   2.446   0.630   9.982
12632TIP3   OH2 4966   3.320   0.651   9.456
12632TIP3    H1 4967   3.287   0.679   9.368
12632TIP3    H2 4968   3.365   0.566   9.436
12633TIP3   OH2 4969   3.628   0.381  10.014
12633TIP3    H1 4970   3.562   0.380   9.942
12633TIP3    H2 4971   3.575   0.365  10.094
12634TIP3   OH2 4972   3.500   0.445  10.481
12634TIP3    H1 4973   3.427   0.504  10.503
12634TIP3    H2 4974   3.571   0.510  10.459
12635TIP3   OH2 4975   2.505   0.813   9.486
12635TIP3    H1 4976   2.451   0.744   9.532
12635TIP3    H2 4977   2.565   0.755   9.433
12636TIP3   OH2 4978   2.781   0.400   9.996
12636TIP3    H1 4979   2.876   0.374   9.995
12636TIP3    H2 4980   2.756   0.377   9.904
12637TIP3   OH2 4981   3.351   0.537  10.077
12637TIP3    H1 4982   3.413   0.571  10.145
12637TIP3    H2 4983   3.315   0.456  10.121
12638TIP3   OH2 4984   2.975   0.609  10.356
12638TIP3    H1 4985   2.884   0.594  10.321
12638TIP3    H2 4986   2.981   0.705  10.366
12639TIP3   OH2 4987   2.337   0.311   9.673
12639TIP3    H1 4988   2.416   0.324   9.618
12639TIP3    H2 4989   2.378   0.278   9.756
12640TIP3   OH2 4990   2.076   1.891   9.005
12640TIP3    H1 4991   2.059   1.909   9.099
12640TIP3    H2 4992   1.992   1.921   8.967
12641TIP3   OH2 4993   3.303   1.141   9.079
12641TIP3    H1 4994   3.233   1.149   9.011
12641TIP3    H2 4995   3.383   1.129   9.023
12642TIP3   OH2 4996   2.746   0.708   9.816
12642TIP3    H1 4997   2.660   0.668   9.838
12642TIP3    H2 4998   2.784   0.641   9.756
12643TIP3   OH2 4999   3.231   0.315  10.169
12643TIP3    H1 5000   3.291   0.245  10.134
12643TIP3    H2 5001   3.162   0.261  10.211
12644TIP3   OH2 5002   2.835   0.500   9.588
12644TIP3    H1 5003   2.915   0.554   9.567
12644TIP3    H2 5004   2.770   0.538   9.526
12645TIP3   OH2 5005   2.733   1.174  10.338
12645TIP3    H1 5006   2.804   1.139  10.393
12645TIP3    H2 5007   2.786   1.198  10.258
12646TIP3   OH2 5008   2.024   1.082   9.503
12646TIP3    H1 5009   1.975   1.137   9.570
12646TIP3    H2 5010   2.112   1.079   9.544
12647TIP3   OH2 5011   2.663   1.173   9.277
12647TIP3    H1 5012   2.673   1.154   9.183
12647TIP3    H2 5013   2.677   1.270   9.278
12648TIP3   OH2 5014   2.322   0.592  10.411
12648TIP3    H1 5015   2.237   0.577  10.363
12648TIP3    H2 5016   2.305   0.679  10.450
12649TIP3   OH2 5017   3.257   1.085   9.854
12649TIP3    H1 5018   3.215   1.077   9.942
12649TIP3    H2 5019   3.207   1.020   9.801
12650TIP3   OH2 5020   3.591   0.907   9.268
12650TIP3    H1 5021   3.587   0.837   9.200
12650TIP3    H2 5022   3.623   0.858   9.346
12651TIP3   OH2 5023   2.859   0.870   9.117
12651TIP3    H1 5024   2.917   0.816   9.174
12651TIP3    H2 5025   2.776   0.817   9.119
12652TIP3   OH2 5026   2.360   1.398   9.237
12652TIP3    H1 5027   2.434   1.406   9.300
12652TIP3    H2 5028   2.395   1.451   9.162
12653TIP3   OH2 5029   1.833   0.629  10.416
12653TIP3    H1 5030   1.868   0.575  10.489
12653TIP3    H2 5031   1.816   0.715  10.461
12654TIP3   OH2 5032   1.797   1.233   9.176
12654TIP3    H1 5033   1.885   1.238   9.218
12654TIP3    H2 5034   1.738   1.223   9.255
12655TIP3   OH2 5035   2.017   1.521  10.420
12655TIP3    H1 5036   2.028   1.448  10.357
12655TIP3    H2 5037   1.955   1.486  10.487
12656TIP3   OH2 5038   2.271   0.999   9.682
12656TIP3    H1 5039   2.363   0.970   9.698
12656TIP3    H2 5040   2.222   0.934   9.736
12657TIP3   OH2 5041   3.035   1.432  10.061
12657TIP3    H1 5042   2.970   1.503  10.076
12657TIP3    H2 5043   3.112   1.466  10.108
12658TIP3   OH2 5044   2.890   1.208  10.120
12658TIP3    H1 5045   2.952   1.284  10.114
12658TIP3    H2 5046   2.945   1.135  10.083
12659TIP3   OH2 5047   2.838   1.612   9.435
12659TIP3    H1 5048   2.770   1.675   9.466
12659TIP3    H2 5049   2.787   1.567   9.364
12660TIP3   OH2 5050   3.020   1.696  10.181
12660TIP3    H1 5051   3.109   1.716  10.147
12660TIP3    H2 5052   2.973   1.776  10.147
12661TIP3   OH2 5053   2.496   1.208   9.514
12661TIP3    H1 5054   2.542   1.182   9.431
12661TIP3    H2 5055   2.445   1.128   9.535
12662TIP3   OH2 5056   2.185   1.681   9.269
12662TIP3    H1 5057   2.270   1.638   9.287
12662TIP3    H2 5058   2.175   1.739   9.348
12663TIP3   OH2 5059   1.771   1.768  10.578
12663TIP3    H1 5060   1.700   1.822  10.616
12663TIP3    H2 5061   1.822   1.828  10.520
12664TIP3   OH2 5062   3.388   0.369   9.373
12664TIP3    H1 5063   3.436   0.417   9.303
12664TIP3    H2 5064   3.401   0.277   9.342
12665TIP3   OH2 5065   2.146   1.139  10.377
12665TIP3    H1 5066   2.161   1.066  10.314
12665TIP3    H2 5067   2.049   1.137  10.387
12666TIP3   OH2 5068   3.436   1.554   9.493
12666TIP3    H1 5069   3.362   1.493   9.482
12666TIP3    H2 5070   3.428   1.606   9.412
12667TIP3   OH2 5071   2.966   1.400  10.514
12667TIP3    H1 5072   2.870   1.395  10.507
12667TIP3    H2 5073   2.980   1.496  10.497
12668TIP3   OH2 5074   3.286   1.118  10.454
12668TIP3    H1 5075   3.363   1.166  10.417
12668TIP3    H2 5076   3.245   1.187  10.511
12669TIP3   OH2 5077   2.543   0.371   9.388
12669TIP3    H1 5078   2.472   0.383   9.322
12669TIP3    H2 5079   2.552   0.275   9.392
12670TIP3   OH2 5080   2.454   0.315  10.323
12670TIP3    H1 5081   2.435   0.407  10.348
12670TIP3    H2 5082   2.398   0.312  10.241
12671TIP3   OH2 5083   2.662   1.579  10.455
12671TIP3    H1 5084   2.755   1.572  10.427
12671TIP3    H2 5085   2.652   1.675  10.448
12672TIP3   OH2 5086   2.736   0.528  10.229
12672TIP3    H1 5087   2.663   0.593  10.214
12672TIP3    H2 5088   2.745   0.489  10.139
12673TIP3   OH2 5089   2.642   0.632   9.336
12673TIP3    H1 5090   2.636   0.656   9.240
12673TIP3    H2 5091   2.607   0.540   9.340
12674TIP3   OH2 5092   2.644   0.201  10.128
12674TIP3    H1 5093   2.689   0.282  10.101
12674TIP3    H2 5094   2.573   0.235  10.186
12675TIP3   OH2 5095   2.937   1.654  10.437
12675TIP3    H1 5096   2.922   1.739  10.484
12675TIP3    H2 5097   2.983   1.682  10.354
12676TIP3   OH2 5098   3.068   0.362  10.524
12676TIP3    H1 5099   3.082   0.418  10.446
12676TIP3    H2 5100   2.992   0.310  10.494
12677TIP3   OH2 5101   2.066   0.407   9.246
12677TIP3    H1 5102   2.163   0.415   9.251
12677TIP3    H2 5103   2.044   0.355   9.326
12678TIP3   OH2 5104   2.166   0.787   9.861
12678TIP3    H1 5105   2.233   0.716   9.853
12678TIP3    H2 5106   2.091   0.744   9.813
12679TIP3   OH2 5107   3.189   1.335  10.642
12679TIP3    H1 5108   3.105   1.363  10.598
12679TIP3    H2 5109   3.152   1.319  10.732
12680TIP3   OH2 5110   2.084   1.703   9.674
12680TIP3    H1 5111   2.078   1.764   9.750
12680TIP3    H2 5112   1.988   1.696   9.652
12681TIP3   OH2 5113   3.285   0.151   9.788
12681TIP3    H1 5114   3.307   0.160   9.883
12681TIP3    H2 5115   3.339   0.073   9.762
12682TIP3   OH2 5116   3.460   1.538  10.166
12682TIP3    H1 5117   3.536   1.580  10.123
12682TIP3    H2 5118   3.468   1.564  10.261
12683TIP3   OH2 5119   3.530   1.796   9.041
12683TIP3    H1 5120   3.454   1.780   8.980
12683TIP3    H2 5121   3.568   1.706   9.045
12684TIP3   OH2 5122   3.022   1.626   8.864
12684TIP3    H1 5123   2.930   1.599   8.876
12684TIP3    H2 5124   3.065   1.579   8.937
12685TIP3   OH2 5125   2.425   1.529   9.011
12685TIP3    H1 5126   2.439   1.437   8.977
12685TIP3    H2 5127   2.335   1.543   8.974
12686TIP3   OH2 5128   3.556   1.128   8.956
12686TIP3    H1 5129   3.579   1.035   8.967
12686TIP3    H2 5130   3.595   1.169   9.037
12687TIP3   OH2 5131   2.871   1.133   9.056
12687TIP3    H1 5132   2.897   1.195   9.129
12687TIP3    H2 5133   2.872   1.044   9.099
12688TIP3   OH2 5134   2.296   1.119   9.242
12688TIP3    H1 5135   2.205   1.155   9.249
12688TIP3    H2 5136   2.339   1.207   9.229
12689TIP3   OH2 5137   3.419   0.837   9.006
12689TIP3    H1 5138   3.379   0.753   8.977
12689TIP3    H2 5139   3.389   0.900   8.938
12690TIP3   OH2 5140   3.048   0.765   9.302
12690TIP3    H1 5141   3.118   0.834   9.305
12690TIP3    H2 5142   2.987   0.796   9.371
12691TIP3   OH2 5143   2.526   1.030   8.929
12691TIP3    H1 5144   2.465   0.985   8.989
12691TIP3    H2 5145   2.557   0.957   8.871
12692TIP3   OH2 5146   2.957   0.533   9.210
12692TIP3    H1 5147   2.960   0.471   9.286
12692TIP3    H2 5148   2.972   0.619   9.254
12693TIP3   OH2 5149   2.939   0.333   9.408
12693TIP3    H1 5150   2.896   0.375   9.486
12693TIP3    H2 5151   3.033   0.330   9.437
12694TIP3   OH2 5152   2.829   0.898   9.431
12694TIP3    H1 5153   2.742   0.941   9.425
12694TIP3    H2 5154   2.886   0.974   9.456
12695TIP3   OH2 5155   2.397   0.653   8.878
12695TIP3    H1 5156   2.387   0.556   8.871
12695TIP3    H2 5157   2.306   0.681   8.896
12696TIP3   OH2 5158   2.240   0.959   9.033
12696TIP3    H1 5159   2.267   1.016   9.108
12696TIP3    H2 5160   2.147   0.939   9.053
12697TIP3   OH2 5161   3.160   0.630   8.976
12697TIP3    H1 5162   3.221   0.561   9.011
12697TIP3    H2 5163   3.086   0.624   9.039
12698TIP3   OH2 5164   2.879   0.082   9.384
12698TIP3    H1 5165   2.890   0.178   9.362
12698TIP3    H2 5166   2.930   0.083   9.467
12699TIP3   OH2 5167   2.751   0.520   9.006
12699TIP3    H1 5168   2.767   0.470   8.924
12699TIP3    H2 5169   2.825   0.491   9.063
12700TIP3   OH2 5170   2.487   0.439   9.101
12700TIP3    H1 5171   2.578   0.431   9.065
12700TIP3    H2 5172   2.437   0.384   9.035
12701TIP3   OH2 5173   2.344   0.293   8.939
12701TIP3    H1 5174   2.316   0.199   8.945
12701TIP3    H2 5175   2.350   0.310   8.843
12702TIP3   OH2 5176   3.352   0.426   8.989
12702TIP3    H1 5177   3.365   0.348   9.048
12702TIP3    H2 5178   3.364   0.386   8.900
12703TIP3   OH2 5179   2.943   9.359   9.125
12703TIP3    H1 5180   2.857   9.331   9.091
12703TIP3    H2 5181   2.923   9.372   9.220
12704TIP3   OH2 5182   2.847   0.204   8.964
12704TIP3    H1 5183   2.900   0.141   9.016
12704TIP3    H2 5184   2.915   0.264   8.926
12705TIP3   OH2 5185   2.883   1.894  10.572
12705TIP3    H1 5186   2.817   1.926  10.510
12705TIP3    H2 5187   2.864   1.953  10.646
12706TIP3   OH2 5188   3.457   1.378  10.611
12706TIP3    H1 5189   3.362   1.360  10.625
12706TIP3    H2 5190   3.486   1.397  10.700
12707TIP3   OH2 5191   3.659   1.850  10.122
12707TIP3    H1 5192   3.732   1.793  10.152
12707TIP3    H2 5193   3.632   1.804  10.040
12708TIP3   OH2 5194   3.567   1.679   9.934
12708TIP3    H1 5195   3.622   1.607   9.899
12708TIP3    H2 5196   3.499   1.692   9.865
12709TIP3   OH2 5197   1.814   1.755   9.674
12709TIP3    H1 5198   1.778   1.765   9.584
12709TIP3    H2 5199   1.770   1.825   9.721
12710TIP3   OH2 5200   1.851   1.691   9.374
12710TIP3    H1 5201   1.889   1.621   9.431
12710TIP3    H2 5202   1.831   1.638   9.295
12711TIP3   OH2 5203   1.984   1.285   8.869
12711TIP3    H1 5204   2.071   1.296   8.825
12711TIP3    H2 5205   1.942   1.371   8.844
12712TIP3   OH2 5206   1.869   1.112  10.377
12712TIP3    H1 5207   1.778   1.149  10.367
12712TIP3    H2 5208   1.884   1.074  10.287
12713TIP3   OH2 5209   1.871   0.980  10.138
12713TIP3    H1 5210   1.928   0.902  10.118
12713TIP3    H2 5211   1.799   0.966  10.073
12714TIP3   OH2 5212   1.866   1.212   9.666
12714TIP3    H1 5213   1.804   1.143   9.698
12714TIP3    H2 5214   1.834   1.290   9.717
12715TIP3   OH2 5215   2.004   1.478   9.436
12715TIP3    H1 5216   2.070   1.522   9.380
12715TIP3    H2 5217   2.056   1.456   9.516
12716TIP3   OH2 5218   1.807   0.862  10.561
12716TIP3    H1 5219   1.899   0.889  10.549
12716TIP3    H2 5220   1.760   0.930  10.513
12717TIP3   OH2 5221   2.015   0.761  10.080
12717TIP3    H1 5222   2.056   0.681  10.117
12717TIP3    H2 5223   2.068   0.775   9.998
12718TIP3   OH2 5224   3.566   1.026   9.691
12718TIP3    H1 5225   3.578   0.991   9.782
12718TIP3    H2 5226   3.471   1.004   9.674
12719TIP3   OH2 5227   1.950   0.971   9.121
12719TIP3    H1 5228   1.902   0.885   9.114
12719TIP3    H2 5229   1.881   1.030   9.157
12720TIP3   OH2 5230   1.844   0.739   9.045
12720TIP3    H1 5231   1.929   0.694   9.066
12720TIP3    H2 5232   1.776   0.669   9.062
12721TIP3   OH2 5233   2.095   0.565  10.254
12721TIP3    H1 5234   2.075   0.470  10.236
12721TIP3    H2 5235   2.007   0.598  10.278
12722TIP3   OH2 5236   1.995   0.631   9.712
12722TIP3    H1 5237   1.895   0.630   9.711
12722TIP3    H2 5238   2.008   0.637   9.616
12723TIP3   OH2 5239   2.010   0.671   9.445
12723TIP3    H1 5240   2.102   0.692   9.422
12723TIP3    H2 5241   1.970   0.760   9.450
12724TIP3   OH2 5242   3.564   0.534   9.100
12724TIP3    H1 5243   3.482   0.505   9.054
12724TIP3    H2 5244   3.617   0.451   9.100
12725TIP3   OH2 5245   1.811   0.124   8.917
12725TIP3    H1 5246   1.758   0.059   8.968
12725TIP3    H2 5247   1.821   0.194   8.985
12726TIP3   OH2 5248   2.049   0.312  10.207
12726TIP3    H1 5249   2.011   0.255  10.138
12726TIP3    H2 5250   2.109   0.251  10.256
12727TIP3   OH2 5251   3.473   0.346   9.783
12727TIP3    H1 5252   3.416   0.269   9.761
12727TIP3    H2 5253   3.409   0.418   9.774
12728TIP3   OH2 5254   3.617   0.637   9.683
12728TIP3    H1 5255   3.562   0.618   9.761
12728TIP3    H2 5256   3.583   0.722   9.656
12729TIP3   OH2 5257   1.837   0.318   9.109
12729TIP3    H1 5258   1.929   0.348   9.093
12729TIP3    H2 5259   1.855   0.244   9.172
12730TIP3   OH2 5260   3.603   0.280  10.270
12730TIP3    H1 5261   3.698   0.300  10.283
12730TIP3    H2 5262   3.562   0.325  10.346
12731TIP3   OH2 5263   2.117   1.738  10.088
12731TIP3    H1 5264   2.045   1.744  10.153
12731TIP3    H2 5265   2.096   1.810  10.024
12732TIP3   OH2 5266   3.584   0.144   9.465
12732TIP3    H1 5267   3.639   0.142   9.384
12732TIP3    H2 5268   3.624   0.215   9.518
12733TIP3   OH2 5269   3.388   1.442   9.051
12733TIP3    H1 5270   3.474   1.479   9.075
12733TIP3    H2 5271   3.405   1.404   8.965
12734TIP3   OH2 5272   3.107   1.593   9.383
12734TIP3    H1 5273   3.106   1.686   9.414
12734TIP3    H2 5274   3.012   1.571   9.392
12735TIP3   OH2 5275   2.697   1.703   9.121
12735TIP3    H1 5276   2.679   1.686   9.026
12735TIP3    H2 5277   2.609   1.738   9.148
12736TIP3   OH2 5278   2.469   1.870   9.169
12736TIP3    H1 5279   2.386   1.826   9.192
12736TIP3    H2 5280   2.443   1.925   9.093
12737TIP3   OH2 5281   1.893   0.100   9.273
12737TIP3    H1 5282   1.961   0.141   9.330
12737TIP3    H2 5283   1.874   0.016   9.323
12738TIP3   OH2 5284   3.361   1.904   9.415
12738TIP3    H1 5285   3.442   1.945   9.451
12738TIP3    H2 5286   3.371   1.929   9.322
12739TIP3   OH2 5287   3.121   1.850   9.520
12739TIP3    H1 5288   3.211   1.871   9.486
12739TIP3    H2 5289   3.105   1.925   9.581
12740TIP3   OH2 5290   2.666   1.800   9.562
12740TIP3    H1 5291   2.735   1.848   9.611
12740TIP3    H2 5292   2.625   1.876   9.514
12741TIP3   OH2 5293   2.439   1.683   9.437
12741TIP3    H1 5294   2.510   1.714   9.497
12741TIP3    H2 5295   2.366   1.741   9.466
12742TIP3   OH2 5296   2.178   1.852   9.473
12742TIP3    H1 5297   2.172   1.946   9.502
12742TIP3    H2 5298   2.152   1.807   9.556
12743TIP3   OH2 5299   3.405   1.729   9.714
12743TIP3    H1 5300   3.420   1.672   9.636
12743TIP3    H2 5301   3.311   1.711   9.736
12744TIP3   OH2 5302   3.177   1.659   9.844
12744TIP3    H1 5303   3.200   1.568   9.822
12744TIP3    H2 5304   3.089   1.665   9.800
12745TIP3   OH2 5305   2.942   1.648   9.714
12745TIP3    H1 5306   2.909   1.556   9.726
12745TIP3    H2 5307   2.943   1.653   9.617
12746TIP3   OH2 5308   2.575   0.281   9.826
12746TIP3    H1 5309   2.639   0.212   9.801
12746TIP3    H2 5310   2.570   0.270   9.922
12747TIP3   OH2 5311   2.099   0.063   9.876
12747TIP3    H1 5312   2.028   0.121   9.914
12747TIP3    H2 5313   2.180   0.109   9.906
12748TIP3   OH2 5314   1.902   0.175  10.028
12748TIP3    H1 5315   1.854   0.118  10.091
12748TIP3    H2 5316   1.837   0.248  10.011
12749TIP3   OH2 5317   3.370   0.122  10.048
12749TIP3    H1 5318   3.461   0.100  10.075
12749TIP3    H2 5319   3.326   0.034  10.057
12750TIP3   OH2 5320   2.932   0.095  10.037
12750TIP3    H1 5321   2.850   0.121  10.082
12750TIP3    H2 5322   2.904   0.098   9.943
12751TIP3   OH2 5323   2.348   0.127   9.965
12751TIP3    H1 5324   2.383   0.117  10.054
12751TIP3    H2 5325   2.393   0.058   9.913
12752TIP3   OH2 5326   2.224   0.168  10.350
12752TIP3    H1 5327   2.313   0.203  10.372
12752TIP3    H2 5328   2.251   0.083  10.309
12753TIP3   OH2 5329   3.499   1.674  10.398
12753TIP3    H1 5330   3.578   1.683  10.454
12753TIP3    H2 5331   3.501   1.756  10.347
12754TIP3   OH2 5332   2.843   0.300  10.367
12754TIP3    H1 5333   2.772   0.244  10.333
12754TIP3    H2 5334   2.816   0.388  10.337
12755TIP3   OH2 5335   1.945   1.749  10.305
12755TIP3    H1 5336   1.972   1.665  10.348
12755TIP3    H2 5337   2.015   1.810  10.337
12756TIP3   OH2 5338   3.411   0.180   9.136
12756TIP3    H1 5339   3.482   0.113   9.142
12756TIP3    H2 5340   3.341   0.130   9.089
12757TIP3   OH2 5341   3.185   0.093   8.955
12757TIP3    H1 5342   3.089   0.099   8.968
12757TIP3    H2 5343   3.199  -0.001   8.973
12758TIP3   OH2 5344   2.277   9.369   8.966
12758TIP3    H1 5345   2.311   9.309   8.898
12758TIP3    H2 5346   2.186   9.337   8.974
12759TIP3   OH2 5347   2.007   1.616   9.069
12759TIP3    H1 5348   2.079   1.614   9.136
12759TIP3    H2 5349   2.022   1.702   9.027
12760TIP3   OH2 5350   0.555   1.013  10.085
12760TIP3    H1 5351   0.554   1.111  10.089
12760TIP3    H2 5352   0.632   0.994  10.140
12761TIP3   OH2 5353   0.687   0.892   9.745
12761TIP3    H1 5354   0.662   0.842   9.666
12761TIP3    H2 5355   0.743   0.831   9.797
12762TIP3   OH2 5356   1.465   0.890   9.608
12762TIP3    H1 5357   1.472   0.812   9.550
12762TIP3    H2 5358   1.386   0.933   9.569
12763TIP3   OH2 5359   0.311   1.251   9.901
12763TIP3    H1 5360   0.280   1.174   9.851
12763TIP3    H2 5361   0.329   1.314   9.828
12764TIP3   OH2 5362   1.342   1.372   9.768
12764TIP3    H1 5363   1.377   1.281   9.780
12764TIP3    H2 5364   1.247   1.353   9.777
12765TIP3   OH2 5365   1.660   0.694  10.213
12765TIP3    H1 5366   1.712   0.745  10.149
12765TIP3    H2 5367   1.725   0.676  10.284
12766TIP3   OH2 5368   1.675   0.914   9.964
12766TIP3    H1 5369   1.637   0.826   9.942
12766TIP3    H2 5370   1.595   0.964   9.989
12767TIP3   OH2 5371   0.615   1.765   9.897
12767TIP3    H1 5372   0.549   1.708   9.944
12767TIP3    H2 5373   0.628   1.711   9.817
12768TIP3   OH2 5374   0.862   1.150   9.650
12768TIP3    H1 5375   0.828   1.112   9.733
12768TIP3    H2 5376   0.778   1.182   9.610
12769TIP3   OH2 5377   0.035   0.347   9.605
12769TIP3    H1 5378   0.000   0.418   9.548
12769TIP3    H2 5379  -0.040   0.335   9.666
12770TIP3   OH2 5380   0.511   0.620   9.636
12770TIP3    H1 5381   0.507   0.527   9.610
12770TIP3    H2 5382   0.498   0.614   9.732
12771TIP3   OH2 5383   1.190   0.404   9.979
12771TIP3    H1 5384   1.177   0.493  10.019
12771TIP3    H2 5385   1.254   0.366  10.043
12772TIP3   OH2 5386   0.431   0.473  10.063
12772TIP3    H1 5387   0.390   0.419   9.993
12772TIP3    H2 5388   0.352   0.499  10.114
12773TIP3   OH2 5389   1.555   0.681   9.886
12773TIP3    H1 5390   1.487   0.655   9.822
12773TIP3    H2 5391   1.524   0.630   9.964
12774TIP3   OH2 5392   1.084   0.816   9.916
12774TIP3    H1 5393   0.991   0.787   9.904
12774TIP3    H2 5394   1.115   0.752   9.984
12775TIP3   OH2 5395   1.284   0.329   9.548
12775TIP3    H1 5396   1.320   0.375   9.626
12775TIP3    H2 5397   1.353   0.349   9.482
12776TIP3   OH2 5398   0.600   1.269  10.164
12776TIP3    H1 5399   0.644   1.268  10.252
12776TIP3    H2 5400   0.637   1.353  10.129
12777TIP3   OH2 5401   1.096   1.081   9.532
12777TIP3    H1 5402   1.151   1.159   9.506
12777TIP3    H2 5403   1.016   1.123   9.569
12778TIP3   OH2 5404   0.280   0.395   9.854
12778TIP3    H1 5405   0.314   0.329   9.792
12778TIP3    H2 5406   0.234   0.457   9.794
12779TIP3   OH2 5407   1.345   0.523   9.758
12779TIP3    H1 5408   1.282   0.581   9.711
12779TIP3    H2 5409   1.290   0.485   9.829
12780TIP3   OH2 5410   1.226   1.299   9.452
12780TIP3    H1 5411   1.248   1.372   9.511
12780TIP3    H2 5412   1.309   1.293   9.398
12781TIP3   OH2 5413   1.631   1.248  10.368
12781TIP3    H1 5414   1.662   1.307  10.438
12781TIP3    H2 5415   1.618   1.312  10.293
12782TIP3   OH2 5416   0.290   1.438   9.709
12782TIP3    H1 5417   0.382   1.459   9.682
12782TIP3    H2 5418   0.248   1.525   9.705
12783TIP3   OH2 5419   0.204   0.197   9.474
12783TIP3    H1 5420   0.286   0.232   9.512
12783TIP3    H2 5421   0.141   0.241   9.534
12784TIP3   OH2 5422   0.932   0.095   9.811
12784TIP3    H1 5423   0.872   0.031   9.769
12784TIP3    H2 5424   1.008   0.092   9.748
12785TIP3   OH2 5425   0.448   1.600  10.023
12785TIP3    H1 5426   0.412   1.517  10.060
12785TIP3    H2 5427   0.375   1.664  10.044
12786TIP3   OH2 5428   0.334   1.378  10.157
12786TIP3    H1 5429   0.418   1.327  10.156
12786TIP3    H2 5430   0.283   1.335  10.086
12787TIP3   OH2 5431   0.187   1.237   9.295
12787TIP3    H1 5432   0.192   1.189   9.381
12787TIP3    H2 5433   0.144   1.319   9.324
12788TIP3   OH2 5434   0.698   0.923  10.345
12788TIP3    H1 5435   0.757   1.000  10.359
12788TIP3    H2 5436   0.613   0.948  10.391
12789TIP3   OH2 5437  -0.006   0.890   9.541
12789TIP3    H1 5438   0.056   0.966   9.531
12789TIP3    H2 5439  -0.065   0.927   9.611
12790TIP3   OH2 5440   0.346   0.903  10.222
12790TIP3    H1 5441   0.404   0.956  10.162
12790TIP3    H2 5442   0.279   0.869  10.159
12791TIP3   OH2 5443   0.356   0.770   9.334
12791TIP3    H1 5444   0.357   0.850   9.279
12791TIP3    H2 5445   0.423   0.799   9.399
12792TIP3   OH2 5446   1.185   1.021  10.051
12792TIP3    H1 5447   1.216   0.994  10.141
12792TIP3    H2 5448   1.136   0.941  10.021
12793TIP3   OH2 5449   1.047   1.350   9.767
12793TIP3    H1 5450   1.034   1.336   9.863
12793TIP3    H2 5451   0.984   1.288   9.727
12794TIP3   OH2 5452   1.188   0.880   9.673
12794TIP3    H1 5453   1.154   0.882   9.766
12794TIP3    H2 5454   1.136   0.952   9.629
12795TIP3   OH2 5455   0.532   1.459   9.599
12795TIP3    H1 5456   0.570   1.508   9.524
12795TIP3    H2 5457   0.531   1.367   9.565
12796TIP3   OH2 5458   1.056   1.332   9.242
12796TIP3    H1 5459   1.127   1.381   9.194
12796TIP3    H2 5460   1.104   1.313   9.326
12797TIP3   OH2 5461   0.460   0.925  10.457
12797TIP3    H1 5462   0.434   0.883  10.371
12797TIP3    H2 5463   0.375   0.952  10.488
12798TIP3   OH2 5464   1.362   0.950   9.341
12798TIP3    H1 5465   1.346   1.034   9.295
12798TIP3    H2 5466   1.436   0.917   9.286
12799TIP3   OH2 5467   0.706   1.519  10.140
12799TIP3    H1 5468   0.663   1.576  10.076
12799TIP3    H2 5469   0.754   1.581  10.195
12800TIP3   OH2 5470   1.243   1.498   9.126
12800TIP3    H1 5471   1.252   1.542   9.213
12800TIP3    H2 5472   1.337   1.473   9.111
12801TIP3   OH2 5473   0.108   0.033  10.475
12801TIP3    H1 5474   0.204   0.042  10.452
12801TIP3    H2 5475   0.103   0.078  10.560
12802TIP3   OH2 5476   1.295   0.907  10.292
12802TIP3    H1 5477   1.342   0.983  10.333
12802TIP3    H2 5478   1.367   0.844  10.288
12803TIP3   OH2 5479   1.657   1.150   9.384
12803TIP3    H1 5480   1.704   1.139   9.468
12803TIP3    H2 5481   1.639   1.057   9.361
12804TIP3   OH2 5482   1.700   1.432   9.737
12804TIP3    H1 5483   1.624   1.384   9.699
12804TIP3    H2 5484   1.697   1.511   9.681
12805TIP3   OH2 5485   0.809   1.452   9.227
12805TIP3    H1 5486   0.807   1.520   9.158
12805TIP3    H2 5487   0.901   1.417   9.224
12806TIP3   OH2 5488   0.741   1.840  10.288
12806TIP3    H1 5489   0.833   1.817  10.302
12806TIP3    H2 5490   0.746   1.930  10.248
12807TIP3   OH2 5491   1.387   1.699  10.091
12807TIP3    H1 5492   1.351   1.673  10.004
12807TIP3    H2 5493   1.477   1.664  10.087
12808TIP3   OH2 5494   0.488   1.754  10.293
12808TIP3    H1 5495   0.584   1.772  10.284
12808TIP3    H2 5496   0.477   1.674  10.239
12809TIP3   OH2 5497   0.216   0.668   9.103
12809TIP3    H1 5498   0.260   0.690   9.187
12809TIP3    H2 5499   0.169   0.584   9.119
12810TIP3   OH2 5500   1.444   1.293   9.296
12810TIP3    H1 5501   1.439   1.252   9.207
12810TIP3    H2 5502   1.526   1.252   9.331
12811TIP3   OH2 5503   1.154   0.111   9.659
12811TIP3    H1 5504   1.224   0.109   9.728
12811TIP3    H2 5505   1.194   0.182   9.605
12812TIP3   OH2 5506   0.716   0.105   9.406
12812TIP3    H1 5507   0.681   0.068   9.325
12812TIP3    H2 5508   0.812   0.108   9.392
12813TIP3   OH2 5509   0.387   0.479   9.329
12813TIP3    H1 5510   0.450   0.473   9.254
12813TIP3    H2 5511   0.378   0.575   9.339
12814TIP3   OH2 5512   1.164   0.636   9.567
12814TIP3    H1 5513   1.254   0.628   9.530
12814TIP3    H2 5514   1.166   0.730   9.599
12815TIP3   OH2 5515   1.176   0.643  10.106
12815TIP3    H1 5516   1.273   0.652  10.117
12815TIP3    H2 5517   1.150   0.609  10.194
12816TIP3   OH2 5518   0.652   0.704  10.211
12816TIP3    H1 5519   0.669   0.789  10.256
12816TIP3    H2 5520   0.565   0.681  10.252
12817TIP3   OH2 5521   0.729   0.746   9.100
12817TIP3    H1 5522   0.770   0.661   9.071
12817TIP3    H2 5523   0.647   0.743   9.048
12818TIP3   OH2 5524   0.543   0.701   9.918
12818TIP3    H1 5525   0.567   0.784   9.964
12818TIP3    H2 5526   0.529   0.643   9.996
12819TIP3   OH2 5527   1.433   0.638   9.462
12819TIP3    H1 5528   1.398   0.669   9.377
12819TIP3    H2 5529   1.467   0.549   9.438
12820TIP3   OH2 5530   1.734   0.395  10.002
12820TIP3    H1 5531   1.675   0.390   9.923
12820TIP3    H2 5532   1.674   0.390  10.076
12821TIP3   OH2 5533   1.644   0.437  10.426
12821TIP3    H1 5534   1.611   0.475  10.508
12821TIP3    H2 5535   1.694   0.512  10.388
12822TIP3   OH2 5536   0.596   0.847   9.492
12822TIP3    H1 5537   0.557   0.768   9.535
12822TIP3    H2 5538   0.660   0.805   9.431
12823TIP3   OH2 5539   0.902   0.395  10.004
12823TIP3    H1 5540   0.995   0.365  10.002
12823TIP3    H2 5541   0.874   0.373   9.913
12824TIP3   OH2 5542   1.446   0.572  10.117
12824TIP3    H1 5543   1.523   0.607  10.169
12824TIP3    H2 5544   1.430   0.485  10.158
12825TIP3   OH2 5545   1.108   0.567  10.369
12825TIP3    H1 5546   1.012   0.561  10.347
12825TIP3    H2 5547   1.124   0.662  10.382
12826TIP3   OH2 5548   0.463   0.294   9.665
12826TIP3    H1 5549   0.538   0.311   9.606
12826TIP3    H2 5550   0.510   0.267   9.746
12827TIP3   OH2 5551   0.205   1.872   9.001
12827TIP3    H1 5552   0.180   1.910   9.089
12827TIP3    H2 5553   0.141   1.919   8.944
12828TIP3   OH2 5554   1.410   1.117   9.075
12828TIP3    H1 5555   1.348   1.121   9.000
12828TIP3    H2 5556   1.496   1.118   9.028
12829TIP3   OH2 5557   0.844   0.688   9.843
12829TIP3    H1 5558   0.768   0.631   9.864
12829TIP3    H2 5559   0.895   0.632   9.783
12830TIP3   OH2 5560   1.348   0.318  10.180
12830TIP3    H1 5561   1.415   0.256  10.146
12830TIP3    H2 5562   1.281   0.256  10.211
12831TIP3   OH2 5563   0.933   0.498   9.579
12831TIP3    H1 5564   1.013   0.555   9.566
12831TIP3    H2 5565   0.868   0.543   9.522
12832TIP3   OH2 5566   0.891   1.111  10.347
12832TIP3    H1 5567   0.968   1.072  10.395
12832TIP3    H2 5568   0.933   1.154  10.269
12833TIP3   OH2 5569   0.173   1.102   9.515
12833TIP3    H1 5570   0.119   1.158   9.575
12833TIP3    H2 5571   0.250   1.078   9.573
12834TIP3   OH2 5572   0.470   0.389  10.499
12834TIP3    H1 5573   0.459   0.312  10.559
12834TIP3    H2 5574   0.431   0.461  10.551
12835TIP3   OH2 5575   0.743   1.191   9.263
12835TIP3    H1 5576   0.790   1.161   9.184
12835TIP3    H2 5577   0.764   1.286   9.261
12836TIP3   OH2 5578   0.437   0.649  10.363
12836TIP3    H1 5579   0.362   0.614  10.311
12836TIP3    H2 5580   0.397   0.647  10.450
12837TIP3   OH2 5581   1.366   1.092   9.834
12837TIP3    H1 5582   1.306   1.080   9.910
12837TIP3    H2 5583   1.342   1.017   9.777
12838TIP3   OH2 5584   0.705   1.276  10.433
12838TIP3    H1 5585   0.761   1.355  10.433
12838TIP3    H2 5586   0.770   1.206  10.408
12839TIP3   OH2 5587   1.706   0.904   9.263
12839TIP3    H1 5588   1.699   0.831   9.198
12839TIP3    H2 5589   1.742   0.860   9.341
12840TIP3   OH2 5590   0.971   0.873   9.114
12840TIP3    H1 5591   1.015   0.826   9.187
12840TIP3    H2 5592   0.884   0.829   9.111
12841TIP3   OH2 5593   0.482   1.403   9.259
12841TIP3    H1 5594   0.570   1.429   9.290
12841TIP3    H2 5595   0.494   1.423   9.165
12842TIP3   OH2 5596   0.119   1.515  10.410
12842TIP3    H1 5597   0.160   1.472  10.333
12842TIP3    H2 5598   0.191   1.514  10.474
12843TIP3   OH2 5599   0.359   0.999   9.683
12843TIP3    H1 5600   0.456   0.987   9.679
12843TIP3    H2 5601   0.334   0.928   9.746
12844TIP3   OH2 5602   1.137   1.442  10.076
12844TIP3    H1 5603   1.109   1.534  10.095
12844TIP3    H2 5604   1.229   1.444  10.107
12845TIP3   OH2 5605   0.971   1.214  10.104
12845TIP3    H1 5606   1.029   1.293  10.112
12845TIP3    H2 5607   1.029   1.150  10.058
12846TIP3   OH2 5608   0.950   1.622   9.421
12846TIP3    H1 5609   0.888   1.690   9.450
12846TIP3    H2 5610   0.892   1.575   9.359
12847TIP3   OH2 5611   1.136   1.707  10.205
12847TIP3    H1 5612   1.228   1.708  10.170
12847TIP3    H2 5613   1.104   1.788  10.159
12848TIP3   OH2 5614   0.634   1.196   9.519
12848TIP3    H1 5615   0.656   1.190   9.423
12848TIP3    H2 5616   0.611   1.104   9.538
12849TIP3   OH2 5617   0.330   1.652   9.278
12849TIP3    H1 5618   0.412   1.608   9.309
12849TIP3    H2 5619   0.308   1.714   9.351
12850TIP3   OH2 5620   1.497   0.367   9.373
12850TIP3    H1 5621   1.547   0.417   9.306
12850TIP3    H2 5622   1.520   0.276   9.347
12851TIP3   OH2 5623   1.541   1.565   9.514
12851TIP3    H1 5624   1.473   1.503   9.482
12851TIP3    H2 5625   1.551   1.626   9.441
12852TIP3   OH2 5626   1.058   1.378  10.517
12852TIP3    H1 5627   1.131   1.337  10.566
12852TIP3    H2 5628   1.084   1.472  10.516
12853TIP3   OH2 5629   1.428   1.070  10.442
12853TIP3    H1 5630   1.486   1.145  10.422
12853TIP3    H2 5631   1.372   1.108  10.515
12854TIP3   OH2 5632   0.620   0.360   9.426
12854TIP3    H1 5633   0.530   0.375   9.392
12854TIP3    H2 5634   0.646   0.277   9.383
12855TIP3   OH2 5635   0.571   0.333  10.243
12855TIP3    H1 5636   0.535   0.361  10.330
12855TIP3    H2 5637   0.528   0.399  10.184
12856TIP3   OH2 5638   0.798   1.558  10.489
12856TIP3    H1 5639   0.883   1.585  10.449
12856TIP3    H2 5640   0.829   1.497  10.558
12857TIP3   OH2 5641   0.852   0.520  10.250
12857TIP3    H1 5642   0.780   0.586  10.235
12857TIP3    H2 5643   0.868   0.487  10.158
12858TIP3   OH2 5644   0.741   0.630   9.358
12858TIP3    H1 5645   0.745   0.660   9.264
12858TIP3    H2 5646   0.709   0.538   9.354
12859TIP3   OH2 5647   0.772   0.193  10.130
12859TIP3    H1 5648   0.811   0.276  10.098
12859TIP3    H2 5649   0.693   0.228  10.179
12860TIP3   OH2 5650   1.053   1.633  10.451
12860TIP3    H1 5651   1.082   1.704  10.510
12860TIP3    H2 5652   1.098   1.656  10.367
12861TIP3   OH2 5653   0.139   0.423   9.213
12861TIP3    H1 5654   0.228   0.458   9.229
12861TIP3    H2 5655   0.119   0.392   9.302
12862TIP3   OH2 5656   0.304   0.782   9.841
12862TIP3    H1 5657   0.386   0.729   9.857
12862TIP3    H2 5658   0.251   0.721   9.786
12863TIP3   OH2 5659   1.552   0.634  10.704
12863TIP3    H1 5660   1.562   0.716  10.654
12863TIP3    H2 5661   1.642   0.614  10.732
12864TIP3   OH2 5662   0.144   1.681   9.676
12864TIP3    H1 5663   0.175   1.751   9.738
12864TIP3    H2 5664   0.051   1.704   9.663
12865TIP3   OH2 5665   1.400   0.138   9.790
12865TIP3    H1 5666   1.433   0.131   9.882
12865TIP3    H2 5667   1.445   0.060   9.748
12866TIP3   OH2 5668   1.567   1.455  10.208
12866TIP3    H1 5669   1.638   1.499  10.162
12866TIP3    H2 5670   1.539   1.522  10.273
12867TIP3   OH2 5671   1.643   1.799   9.044
12867TIP3    H1 5672   1.576   1.791   8.971
12867TIP3    H2 5673   1.675   1.708   9.045
12868TIP3   OH2 5674   1.154   1.614   8.860
12868TIP3    H1 5675   1.060   1.592   8.865
12868TIP3    H2 5676   1.187   1.573   8.941
12869TIP3   OH2 5677   0.542   1.535   9.005
12869TIP3    H1 5678   0.549   1.449   8.958
12869TIP3    H2 5679   0.450   1.560   8.980
12870TIP3   OH2 5680   0.316   1.583  10.748
12870TIP3    H1 5681   0.382   1.526  10.792
12870TIP3    H2 5682   0.280   1.635  10.820
12871TIP3   OH2 5683   1.666   1.129   8.958
12871TIP3    H1 5684   1.694   1.036   8.960
12871TIP3    H2 5685   1.710   1.168   9.037
12872TIP3   OH2 5686   0.985   1.139   9.066
12872TIP3    H1 5687   1.017   1.199   9.137
12872TIP3    H2 5688   0.978   1.050   9.109
12873TIP3   OH2 5689   0.692   1.269  10.762
12873TIP3    H1 5690   0.721   1.251  10.672
12873TIP3    H2 5691   0.660   1.185  10.798
12874TIP3   OH2 5692   0.428   1.128   9.238
12874TIP3    H1 5693   0.340   1.171   9.245
12874TIP3    H2 5694   0.484   1.206   9.254
12875TIP3   OH2 5695   1.526   0.829   9.012
12875TIP3    H1 5696   1.471   0.758   8.976
12875TIP3    H2 5697   1.502   0.902   8.953
12876TIP3   OH2 5698   1.105   0.988  10.492
12876TIP3    H1 5699   1.176   0.953  10.436
12876TIP3    H2 5700   1.153   1.062  10.539
12877TIP3   OH2 5701   1.161   0.764   9.309
12877TIP3    H1 5702   1.232   0.830   9.321
12877TIP3    H2 5703   1.095   0.796   9.374
12878TIP3   OH2 5704   0.653   1.020   8.911
12878TIP3    H1 5705   0.596   0.994   8.984
12878TIP3    H2 5706   0.674   0.933   8.871
12879TIP3   OH2 5707   1.091   0.530   9.211
12879TIP3    H1 5708   1.072   0.468   9.285
12879TIP3    H2 5709   1.110   0.615   9.257
12880TIP3   OH2 5710   1.054   0.328   9.415
12880TIP3    H1 5711   1.004   0.374   9.487
12880TIP3    H2 5712   1.144   0.323   9.455
12881TIP3   OH2 5713   0.944   0.901   9.415
12881TIP3    H1 5714   0.858   0.936   9.443
12881TIP3    H2 5715   1.004   0.973   9.443
12882TIP3   OH2 5716   0.464   0.620   8.930
12882TIP3    H1 5717   0.462   0.549   8.864
12882TIP3    H2 5718   0.372   0.621   8.965
12883TIP3   OH2 5719   0.345   0.962   9.049
12883TIP3    H1 5720   0.380   1.023   9.118
12883TIP3    H2 5721   0.249   0.965   9.068
12884TIP3   OH2 5722   1.262   0.636   8.976
12884TIP3    H1 5723   1.324   0.568   9.012
12884TIP3    H2 5724   1.190   0.631   9.041
12885TIP3   OH2 5725   0.991   0.082   9.385
12885TIP3    H1 5726   1.001   0.178   9.364
12885TIP3    H2 5727   1.046   0.082   9.466
12886TIP3   OH2 5728   0.873   0.528   9.010
12886TIP3    H1 5729   0.905   0.502   8.923
12886TIP3    H2 5730   0.940   0.489   9.070
12887TIP3   OH2 5731   0.591   0.409   9.093
12887TIP3    H1 5732   0.670   0.393   9.040
12887TIP3    H2 5733   0.521   0.371   9.036
12888TIP3   OH2 5734   0.398   0.285   8.933
12888TIP3    H1 5735   0.432   0.193   8.946
12888TIP3    H2 5736   0.426   0.310   8.842
12889TIP3   OH2 5737   1.465   0.428   8.984
12889TIP3    H1 5738   1.476   0.349   9.042
12889TIP3    H2 5739   1.473   0.388   8.895
12890TIP3   OH2 5740   1.050   9.362   9.110
12890TIP3    H1 5741   0.971   9.317   9.077
12890TIP3    H2 5742   1.015   9.397   9.194
12891TIP3   OH2 5743   0.958   0.211   8.953
12891TIP3    H1 5744   1.008   0.144   9.003
12891TIP3    H2 5745   1.028   0.271   8.919
12892TIP3   OH2 5746   1.769   1.856  10.125
12892TIP3    H1 5747   1.835   1.802  10.175
12892TIP3    H2 5748   1.732   1.790  10.063
12893TIP3   OH2 5749   1.678   1.668   9.948
12893TIP3    H1 5750   1.738   1.602   9.910
12893TIP3    H2 5751   1.619   1.687   9.871
12894TIP3   OH2 5752  -0.035   1.695   9.348
12894TIP3    H1 5753   0.019   1.640   9.408
12894TIP3    H2 5754  -0.038   1.635   9.272
12895TIP3   OH2 5755   0.115   1.277   8.876
12895TIP3    H1 5756   0.197   1.300   8.827
12895TIP3    H2 5757   0.071   1.365   8.879
12896TIP3   OH2 5758   9.333   1.227   9.652
12896TIP3    H1 5759   9.273   1.155   9.682
12896TIP3    H2 5760   9.301   1.303   9.705
12897TIP3   OH2 5761   0.119   1.492   9.434
12897TIP3    H1 5762   0.205   1.523   9.401
12897TIP3    H2 5763   0.138   1.473   9.528
12898TIP3   OH2 5764   0.264   0.572  10.640
12898TIP3    H1 5765   0.192   0.625  10.676
12898TIP3    H2 5766   0.232   0.480  10.658
12899TIP3   OH2 5767   0.176   0.750  10.086
12899TIP3    H1 5768   0.200   0.657  10.108
12899TIP3    H2 5769   0.207   0.760   9.994
12900TIP3   OH2 5770   1.671   1.021   9.698
12900TIP3    H1 5771   1.675   0.988   9.791
12900TIP3    H2 5772   1.578   0.995   9.674
12901TIP3   OH2 5773   0.076   0.991   9.102
12901TIP3    H1 5774   0.050   0.903   9.132
12901TIP3    H2 5775   0.039   1.048   9.172
12902TIP3   OH2 5776   0.149   0.323  10.676
12902TIP3    H1 5777   0.088   0.263  10.721
12902TIP3    H2 5778   0.222   0.266  10.647
12903TIP3   OH2 5779   0.219   0.531  10.228
12903TIP3    H1 5780   0.199   0.434  10.231
12903TIP3    H2 5781   0.135   0.569  10.257
12904TIP3   OH2 5782   0.163   0.593   9.703
12904TIP3    H1 5783   0.065   0.585   9.711
12904TIP3    H2 5784   0.168   0.602   9.606
12905TIP3   OH2 5785   0.118   0.668   9.444
12905TIP3    H1 5786   0.195   0.710   9.400
12905TIP3    H2 5787   0.066   0.747   9.470
12906TIP3   OH2 5788   1.678   0.539   9.104
12906TIP3    H1 5789   1.600   0.516   9.049
12906TIP3    H2 5790   1.729   0.455   9.103
12907TIP3   OH2 5791   0.184   0.269  10.224
12907TIP3    H1 5792   0.168   0.212  10.147
12907TIP3    H2 5793   0.245   0.212  10.277
12908TIP3   OH2 5794   1.577   0.340   9.789
12908TIP3    H1 5795   1.517   0.263   9.780
12908TIP3    H2 5796   1.514   0.412   9.772
12909TIP3   OH2 5797   1.735   0.640   9.690
12909TIP3    H1 5798   1.682   0.620   9.769
12909TIP3    H2 5799   1.692   0.722   9.660
12910TIP3   OH2 5800   1.752   0.250  10.263
12910TIP3    H1 5801   1.838   0.296  10.263
12910TIP3    H2 5802   1.705   0.300  10.333
12911TIP3   OH2 5803   0.260   1.775  10.069
12911TIP3    H1 5804   0.200   1.764  10.146
12911TIP3    H2 5805   0.200   1.808  10.000
12912TIP3   OH2 5806   1.701   0.154   9.463
12912TIP3    H1 5807   1.745   0.166   9.377
12912TIP3    H2 5808   1.739   0.225   9.517
12913TIP3   OH2 5809   1.503   1.441   9.056
12913TIP3    H1 5810   1.586   1.478   9.089
12913TIP3    H2 5811   1.525   1.414   8.967
12914TIP3   OH2 5812   1.225   1.590   9.394
12914TIP3    H1 5813   1.230   1.685   9.419
12914TIP3    H2 5814   1.127   1.580   9.394
12915TIP3   OH2 5815   0.789   1.741   9.133
12915TIP3    H1 5816   0.793   1.710   9.042
12915TIP3    H2 5817   0.693   1.760   9.142
12916TIP3   OH2 5818   0.564   1.887   9.178
12916TIP3    H1 5819   0.484   1.853   9.223
12916TIP3    H2 5820   0.531   1.923   9.094
12917TIP3   OH2 5821   0.130   0.068   9.238
12917TIP3    H1 5822   0.171   0.139   9.291
12917TIP3    H2 5823   0.095   0.009   9.307
12918TIP3   OH2 5824   1.484   1.896   9.425
12918TIP3    H1 5825   1.566   1.939   9.457
12918TIP3    H2 5826   1.488   1.926   9.333
12919TIP3   OH2 5827   1.241   1.844   9.519
12919TIP3    H1 5828   1.333   1.864   9.486
12919TIP3    H2 5829   1.232   1.905   9.594
12920TIP3   OH2 5830   0.738   1.815   9.594
12920TIP3    H1 5831   0.805   1.847   9.656
12920TIP3    H2 5832   0.735   1.889   9.529
12921TIP3   OH2 5833   0.564   1.677   9.440
12921TIP3    H1 5834   0.630   1.716   9.500
12921TIP3    H2 5835   0.489   1.734   9.462
12922TIP3   OH2 5836   0.267   1.811   9.481
12922TIP3    H1 5837   0.250   1.902   9.513
12922TIP3    H2 5838   0.214   1.759   9.546
12923TIP3   OH2 5839   1.509   1.736   9.737
12923TIP3    H1 5840   1.531   1.679   9.660
12923TIP3    H2 5841   1.418   1.705   9.760
12924TIP3   OH2 5842   1.284   1.641   9.847
12924TIP3    H1 5843   1.301   1.548   9.821
12924TIP3    H2 5844   1.199   1.656   9.799
12925TIP3   OH2 5845   1.061   1.646   9.701
12925TIP3    H1 5846   1.026   1.556   9.715
12925TIP3    H2 5847   1.058   1.652   9.604
12926TIP3   OH2 5848   0.709   0.268   9.838
12926TIP3    H1 5849   0.766   0.189   9.834
12926TIP3    H2 5850   0.682   0.266   9.931
12927TIP3   OH2 5851   0.234   0.071   9.829
12927TIP3    H1 5852   0.174   0.119   9.891
12927TIP3    H2 5853   0.320   0.088   9.870
12928TIP3   OH2 5854   0.037   0.140   9.999
12928TIP3    H1 5855  -0.042   0.090  10.028
12928TIP3    H2 5856   0.005   0.231   9.986
12929TIP3   OH2 5857   1.489   0.111  10.066
12929TIP3    H1 5858   1.582   0.098  10.089
12929TIP3    H2 5859   1.446   0.031  10.103
12930TIP3   OH2 5860   1.572   0.084  10.487
12930TIP3    H1 5861   1.579   0.149  10.557
12930TIP3    H2 5862   1.658   0.090  10.441
12931TIP3   OH2 5863   1.069   0.067  10.039
12931TIP3    H1 5864   0.990   0.106  10.079
12931TIP3    H2 5865   1.046   0.076   9.944
12932TIP3   OH2 5866   0.482   0.118   9.962
12932TIP3    H1 5867   0.509   0.107  10.054
12932TIP3    H2 5868   0.536   0.053   9.912
12933TIP3   OH2 5869   0.345   0.104  10.374
12933TIP3    H1 5870   0.397   0.137  10.450
12933TIP3    H2 5871   0.411   0.042  10.333
12934TIP3   OH2 5872   1.589   1.685  10.372
12934TIP3    H1 5873   1.675   1.686  10.416
12934TIP3    H2 5874   1.535   1.739  10.433
12935TIP3   OH2 5875   0.900   0.268  10.380
12935TIP3    H1 5876   0.847   0.221  10.314
12935TIP3    H2 5877   0.881   0.360  10.357
12936TIP3   OH2 5878   0.087   1.743  10.269
12936TIP3    H1 5879   0.083   1.661  10.321
12936TIP3    H2 5880   0.078   1.810  10.341
12937TIP3   OH2 5881   1.528   0.174   9.136
12937TIP3    H1 5882   1.595   0.103   9.130
12937TIP3    H2 5883   1.453   0.133   9.089
12938TIP3   OH2 5884   1.301   0.092   8.968
12938TIP3    H1 5885   1.204   0.100   8.970
12938TIP3    H2 5886   1.312  -0.004   8.986
12939TIP3   OH2 5887   0.433   9.366   8.962
12939TIP3    H1 5888   0.439   9.332   8.871
12939TIP3    H2 5889   0.338   9.357   8.980
12940TIP3   OH2 5890   0.145   1.622   9.081
12940TIP3    H1 5891   0.216   1.608   9.147
12940TIP3    H2 5892   0.160   1.717   9.062
12941TIP3   OH2 5893   8.074   2.905  10.086
12941TIP3    H1 5894   8.063   2.995  10.051
12941TIP3    H2 5895   8.158   2.915  10.134
12942TIP3   OH2 5896   8.204   2.776   9.751
12942TIP3    H1 5897   8.206   2.735   9.661
12942TIP3    H2 5898   8.270   2.725   9.801
12943TIP3   OH2 5899   8.959   2.790   9.617
12943TIP3    H1 5900   8.967   2.711   9.563
12943TIP3    H2 5901   8.903   2.847   9.561
12944TIP3   OH2 5902   7.900   3.110   9.873
12944TIP3    H1 5903   7.901   3.036   9.811
12944TIP3    H2 5904   7.869   3.182   9.814
12945TIP3   OH2 5905   8.940   3.227   9.773
12945TIP3    H1 5906   8.941   3.136   9.810
12945TIP3    H2 5907   8.852   3.226   9.733
12946TIP3   OH2 5908   9.200   2.571  10.210
12946TIP3    H1 5909   9.219   2.663  10.184
12946TIP3    H2 5910   9.279   2.527  10.179
12947TIP3   OH2 5911   9.192   2.769   9.958
12947TIP3    H1 5912   9.132   2.698   9.924
12947TIP3    H2 5913   9.129   2.829  10.000
12948TIP3   OH2 5914   8.145   3.641   9.925
12948TIP3    H1 5915   8.067   3.584   9.951
12948TIP3    H2 5916   8.174   3.592   9.847
12949TIP3   OH2 5917   8.388   3.031   9.671
12949TIP3    H1 5918   8.344   2.986   9.745
12949TIP3    H2 5919   8.310   3.070   9.625
12950TIP3   OH2 5920   7.539   2.206   9.666
12950TIP3    H1 5921   7.522   2.255   9.583
12950TIP3    H2 5922   7.455   2.224   9.713
12951TIP3   OH2 5923   8.027   2.501   9.649
12951TIP3    H1 5924   8.024   2.407   9.626
12951TIP3    H2 5925   8.021   2.495   9.747
12952TIP3   OH2 5926   8.768   2.283   9.950
12952TIP3    H1 5927   8.740   2.359  10.006
12952TIP3    H2 5928   8.795   2.221  10.019
12953TIP3   OH2 5929   7.965   2.350  10.105
12953TIP3    H1 5930   7.929   2.304  10.026
12953TIP3    H2 5931   7.882   2.387  10.142
12954TIP3   OH2 5932   9.060   2.548   9.865
12954TIP3    H1 5933   8.991   2.503   9.813
12954TIP3    H2 5934   9.044   2.505   9.953
12955TIP3   OH2 5935   8.609   2.677   9.929
12955TIP3    H1 5936   8.525   2.633   9.902
12955TIP3    H2 5937   8.649   2.610   9.989
12956TIP3   OH2 5938   7.511   2.341   9.411
12956TIP3    H1 5939   7.545   2.422   9.455
12956TIP3    H2 5940   7.496   2.377   9.322
12957TIP3   OH2 5941   8.847   2.208   9.523
12957TIP3    H1 5942   8.895   2.250   9.598
12957TIP3    H2 5943   8.909   2.230   9.450
12958TIP3   OH2 5944   8.154   3.177  10.173
12958TIP3    H1 5945   8.187   3.195  10.262
12958TIP3    H2 5946   8.178   3.260  10.128
12959TIP3   OH2 5947   8.625   2.978   9.550
12959TIP3    H1 5948   8.680   3.058   9.532
12959TIP3    H2 5949   8.549   3.019   9.599
12960TIP3   OH2 5950   7.819   2.259   9.896
12960TIP3    H1 5951   7.804   2.186   9.835
12960TIP3    H2 5952   7.727   2.288   9.911
12961TIP3   OH2 5953   8.886   2.392   9.731
12961TIP3    H1 5954   8.821   2.451   9.686
12961TIP3    H2 5955   8.833   2.355   9.805
12962TIP3   OH2 5956   8.768   3.194   9.460
12962TIP3    H1 5957   8.767   3.288   9.483
12962TIP3    H2 5958   8.859   3.184   9.426
12963TIP3   OH2 5959   9.162   3.146  10.353
12963TIP3    H1 5960   9.161   3.199  10.435
12963TIP3    H2 5961   9.137   3.210  10.283
12964TIP3   OH2 5962   7.804   3.304   9.694
12964TIP3    H1 5963   7.895   3.329   9.666
12964TIP3    H2 5964   7.770   3.392   9.720
12965TIP3   OH2 5965   7.812   2.136   9.566
12965TIP3    H1 5966   7.882   2.173   9.624
12965TIP3    H2 5967   7.730   2.167   9.609
12966TIP3   OH2 5968   8.508   1.938   9.787
12966TIP3    H1 5969   8.532   1.845   9.791
12966TIP3    H2 5970   8.593   1.979   9.755
12967TIP3   OH2 5971   7.955   3.477  10.010
12967TIP3    H1 5972   7.945   3.398  10.065
12967TIP3    H2 5973   7.876   3.530  10.035
12968TIP3   OH2 5974   7.827   3.261  10.174
12968TIP3    H1 5975   7.850   3.196  10.244
12968TIP3    H2 5976   7.850   3.209  10.094
12969TIP3   OH2 5977   7.712   3.123   9.299
12969TIP3    H1 5978   7.706   3.048   9.364
12969TIP3    H2 5979   7.684   3.197   9.356
12970TIP3   OH2 5980   8.226   2.842  10.343
12970TIP3    H1 5981   8.298   2.902  10.375
12970TIP3    H2 5982   8.145   2.893  10.359
12971TIP3   OH2 5983   7.485   2.780   9.512
12971TIP3    H1 5984   7.553   2.850   9.514
12971TIP3    H2 5985   7.423   2.815   9.579
12972TIP3   OH2 5986   7.893   2.790  10.257
12972TIP3    H1 5987   7.955   2.830  10.194
12972TIP3    H2 5988   7.816   2.769  10.199
12973TIP3   OH2 5989   7.900   2.670   9.308
12973TIP3    H1 5990   7.905   2.765   9.291
12973TIP3    H2 5991   7.969   2.663   9.376
12974TIP3   OH2 5992   8.710   2.884  10.058
12974TIP3    H1 5993   8.761   2.846  10.133
12974TIP3    H2 5994   8.652   2.808  10.036
12975TIP3   OH2 5995   8.588   3.237   9.769
12975TIP3    H1 5996   8.592   3.227   9.865
12975TIP3    H2 5997   8.513   3.180   9.743
12976TIP3   OH2 5998   8.702   2.764   9.690
12976TIP3    H1 5999   8.664   2.765   9.780
12976TIP3    H2 6000   8.655   2.836   9.644
12977TIP3   OH2 6001   8.057   3.349   9.608
12977TIP3    H1 6002   8.097   3.400   9.536
12977TIP3    H2 6003   8.068   3.257   9.577
12978TIP3   OH2 6004   8.624   3.217   9.228
12978TIP3    H1 6005   8.695   3.265   9.178
12978TIP3    H2 6006   8.671   3.198   9.312
12979TIP3   OH2 6007   8.910   2.835   9.318
12979TIP3    H1 6008   8.898   2.891   9.239
12979TIP3    H2 6009   9.002   2.808   9.303
12980TIP3   OH2 6010   8.235   3.494  10.158
12980TIP3    H1 6011   8.201   3.530  10.075
12980TIP3    H2 6012   8.303   3.560  10.178
12981TIP3   OH2 6013   8.798   3.388   9.113
12981TIP3    H1 6014   8.816   3.414   9.206
12981TIP3    H2 6015   8.891   3.378   9.082
12982TIP3   OH2 6016   8.844   2.786  10.271
12982TIP3    H1 6017   8.865   2.864  10.327
12982TIP3    H2 6018   8.854   2.716  10.336
12983TIP3   OH2 6019   9.203   3.041   9.366
12983TIP3    H1 6020   9.250   3.048   9.450
12983TIP3    H2 6021   9.216   2.946   9.343
12984TIP3   OH2 6022   9.201   3.324   9.747
12984TIP3    H1 6023   9.118   3.273   9.760
12984TIP3    H2 6024   9.174   3.382   9.673
12985TIP3   OH2 6025   7.444   3.389   9.145
12985TIP3    H1 6026   7.454   3.293   9.158
12985TIP3    H2 6027   7.529   3.411   9.100
12986TIP3   OH2 6028   8.370   3.328   9.216
12986TIP3    H1 6029   8.353   3.406   9.161
12986TIP3    H2 6030   8.465   3.308   9.201
12987TIP3   OH2 6031   8.270   3.723  10.329
12987TIP3    H1 6032   8.262   3.769  10.415
12987TIP3    H2 6033   8.279   3.798  10.267
12988TIP3   OH2 6034   8.918   3.578  10.095
12988TIP3    H1 6035   8.911   3.546  10.002
12988TIP3    H2 6036   9.003   3.538  10.122
12989TIP3   OH2 6037   8.011   3.632  10.280
12989TIP3    H1 6038   8.107   3.649  10.292
12989TIP3    H2 6039   8.016   3.541  10.247
12990TIP3   OH2 6040   7.728   2.517   9.106
12990TIP3    H1 6041   7.780   2.557   9.179
12990TIP3    H2 6042   7.728   2.422   9.130
12991TIP3   OH2 6043   9.011   3.210   9.285
12991TIP3    H1 6044   8.982   3.148   9.214
12991TIP3    H2 6045   9.087   3.157   9.320
12992TIP3   OH2 6046   8.727   2.054   9.703
12992TIP3    H1 6047   8.818   2.042   9.738
12992TIP3    H2 6048   8.747   2.108   9.624
12993TIP3   OH2 6049   8.227   1.986   9.376
12993TIP3    H1 6050   8.198   1.939   9.295
12993TIP3    H2 6051   8.323   1.996   9.362
12994TIP3   OH2 6052   7.967   2.391   9.279
12994TIP3    H1 6053   8.029   2.353   9.211
12994TIP3    H2 6054   7.962   2.482   9.246
12995TIP3   OH2 6055   8.723   2.528   9.575
12995TIP3    H1 6056   8.794   2.547   9.511
12995TIP3    H2 6057   8.714   2.615   9.621
12996TIP3   OH2 6058   8.731   2.501  10.106
12996TIP3    H1 6059   8.828   2.500  10.113
12996TIP3    H2 6060   8.700   2.477  10.197
12997TIP3   OH2 6061   8.191   2.597  10.245
12997TIP3    H1 6062   8.235   2.678  10.279
12997TIP3    H2 6063   8.102   2.632  10.233
12998TIP3   OH2 6064   8.267   2.633   9.071
12998TIP3    H1 6065   8.309   2.551   9.037
12998TIP3    H2 6066   8.185   2.631   9.018
12999TIP3   OH2 6067   8.027   2.566   9.911
12999TIP3    H1 6068   8.076   2.645   9.938
12999TIP3    H2 6069   8.043   2.507   9.987
13000TIP3   OH2 6070   8.989   2.530   9.449
13000TIP3    H1 6071   8.952   2.552   9.362
13000TIP3    H2 6072   9.014   2.436   9.439
13001TIP3   OH2 6073   8.662   2.360  10.711
13001TIP3    H1 6074   8.692   2.297  10.642
13001TIP3    H2 6075   8.578   2.318  10.735
13002TIP3   OH2 6076   9.245   2.245  10.000
13002TIP3    H1 6077   9.159   2.240   9.958
13002TIP3    H2 6078   9.225   2.250  10.095
13003TIP3   OH2 6079   9.202   2.359  10.474
13003TIP3    H1 6080   9.185   2.326  10.566
13003TIP3    H2 6081   9.258   2.434  10.494
13004TIP3   OH2 6082   8.150   2.689   9.497
13004TIP3    H1 6083   8.105   2.617   9.546
13004TIP3    H2 6084   8.208   2.639   9.434
13005TIP3   OH2 6085   8.485   2.304   9.983
13005TIP3    H1 6086   8.573   2.289   9.942
13005TIP3    H2 6087   8.428   2.237   9.939
13006TIP3   OH2 6088   9.007   2.418  10.098
13006TIP3    H1 6089   9.064   2.451  10.171
13006TIP3    H2 6090   8.980   2.329  10.131
13007TIP3   OH2 6091   8.634   2.453  10.353
13007TIP3    H1 6092   8.539   2.463  10.363
13007TIP3    H2 6093   8.666   2.526  10.410
13008TIP3   OH2 6094   8.033   2.220   9.682
13008TIP3    H1 6095   8.101   2.188   9.620
13008TIP3    H2 6096   8.046   2.166   9.762
13009TIP3   OH2 6097   8.722   2.593  10.573
13009TIP3    H1 6098   8.812   2.557  10.569
13009TIP3    H2 6099   8.685   2.535  10.643
13010TIP3   OH2 6100   7.736   3.784   9.013
13010TIP3    H1 6101   7.706   3.818   9.099
13010TIP3    H2 6102   7.656   3.802   8.961
13011TIP3   OH2 6103   8.933   3.034   9.103
13011TIP3    H1 6104   8.873   3.038   9.026
13011TIP3    H2 6105   9.020   3.030   9.058
13012TIP3   OH2 6106   8.387   2.566   9.834
13012TIP3    H1 6107   8.306   2.522   9.862
13012TIP3    H2 6108   8.433   2.494   9.787
13013TIP3   OH2 6109   8.895   2.178  10.178
13013TIP3    H1 6110   8.936   2.103  10.129
13013TIP3    H2 6111   8.841   2.130  10.242
13014TIP3   OH2 6112   8.500   2.388   9.572
13014TIP3    H1 6113   8.583   2.442   9.578
13014TIP3    H2 6114   8.440   2.444   9.522
13015TIP3   OH2 6115   8.432   3.017  10.391
13015TIP3    H1 6116   8.505   2.992  10.449
13015TIP3    H2 6117   8.476   3.048  10.309
13016TIP3   OH2 6118   7.678   2.969   9.507
13016TIP3    H1 6119   7.628   3.029   9.570
13016TIP3    H2 6120   7.760   2.955   9.559
13017TIP3   OH2 6121   8.308   3.065   9.267
13017TIP3    H1 6122   8.327   3.034   9.177
13017TIP3    H2 6123   8.333   3.159   9.258
13018TIP3   OH2 6124   8.893   2.966   9.850
13018TIP3    H1 6125   8.848   2.950   9.936
13018TIP3    H2 6126   8.870   2.886   9.800
13019TIP3   OH2 6127   9.202   2.788   9.284
13019TIP3    H1 6128   9.184   2.733   9.205
13019TIP3    H2 6129   9.233   2.724   9.349
13020TIP3   OH2 6130   8.557   2.769   9.108
13020TIP3    H1 6131   8.585   2.711   9.181
13020TIP3    H2 6132   8.461   2.761   9.113
13021TIP3   OH2 6133   8.028   3.297   9.260
13021TIP3    H1 6134   8.114   3.309   9.303
13021TIP3    H2 6135   8.046   3.340   9.175
13022TIP3   OH2 6136   7.450   2.600  10.472
13022TIP3    H1 6137   7.517   2.584  10.539
13022TIP3    H2 6138   7.441   2.698  10.483
13023TIP3   OH2 6139   7.461   3.111   9.179
13023TIP3    H1 6140   7.555   3.113   9.208
13023TIP3    H2 6141   7.414   3.102   9.266
13024TIP3   OH2 6142   7.678   3.390  10.432
13024TIP3    H1 6143   7.677   3.329  10.357
13024TIP3    H2 6144   7.608   3.356  10.489
13025TIP3   OH2 6145   7.921   2.897   9.694
13025TIP3    H1 6146   8.011   2.863   9.706
13025TIP3    H2 6147   7.869   2.822   9.728
13026TIP3   OH2 6148   8.678   3.315  10.041
13026TIP3    H1 6149   8.638   3.402  10.061
13026TIP3    H2 6150   8.770   3.326  10.070
13027TIP3   OH2 6151   8.538   3.092  10.133
13027TIP3    H1 6152   8.587   3.171  10.103
13027TIP3    H2 6153   8.580   3.021  10.082
13028TIP3   OH2 6154   8.495   3.508   9.435
13028TIP3    H1 6155   8.423   3.565   9.466
13028TIP3    H2 6156   8.449   3.458   9.365
13029TIP3   OH2 6157   8.651   3.564  10.157
13029TIP3    H1 6158   8.747   3.566  10.138
13029TIP3    H2 6159   8.630   3.658  10.137
13030TIP3   OH2 6160   8.168   3.086   9.522
13030TIP3    H1 6161   8.203   3.065   9.433
13030TIP3    H2 6162   8.127   3.002   9.548
13031TIP3   OH2 6163   7.847   3.547   9.275
13031TIP3    H1 6164   7.934   3.507   9.295
13031TIP3    H2 6165   7.837   3.610   9.351
13032TIP3   OH2 6166   7.418   3.675  10.534
13032TIP3    H1 6167   7.380   3.703  10.618
13032TIP3    H2 6168   7.490   3.741  10.519
13033TIP3   OH2 6169   9.035   2.266   9.336
13033TIP3    H1 6170   9.069   2.301   9.252
13033TIP3    H2 6171   9.056   2.171   9.325
13034TIP3   OH2 6172   7.829   3.053  10.364
13034TIP3    H1 6173   7.848   2.960  10.337
13034TIP3    H2 6174   7.738   3.044  10.395
13035TIP3   OH2 6175   9.087   3.455   9.521
13035TIP3    H1 6176   9.002   3.417   9.496
13035TIP3    H2 6177   9.120   3.486   9.436
13036TIP3   OH2 6178   8.607   3.267  10.528
13036TIP3    H1 6179   8.541   3.212  10.483
13036TIP3    H2 6180   8.596   3.354  10.482
13037TIP3   OH2 6181   8.932   2.984  10.470
13037TIP3    H1 6182   9.025   3.005  10.451
13037TIP3    H2 6183   8.897   3.069  10.501
13038TIP3   OH2 6184   8.177   2.269   9.411
13038TIP3    H1 6185   8.089   2.291   9.375
13038TIP3    H2 6186   8.193   2.178   9.378
13039TIP3   OH2 6187   8.096   2.206  10.287
13039TIP3    H1 6188   8.165   2.269  10.312
13039TIP3    H2 6189   8.044   2.262  10.226
13040TIP3   OH2 6190   8.311   3.472  10.492
13040TIP3    H1 6191   8.403   3.457  10.461
13040TIP3    H2 6192   8.288   3.550  10.438
13041TIP3   OH2 6193   8.331   2.379  10.215
13041TIP3    H1 6194   8.291   2.469  10.216
13041TIP3    H2 6195   8.385   2.375  10.133
13042TIP3   OH2 6196   8.285   2.528   9.330
13042TIP3    H1 6197   8.283   2.548   9.234
13042TIP3    H2 6198   8.252   2.436   9.339
13043TIP3   OH2 6199   8.307   2.072  10.164
13043TIP3    H1 6200   8.325   2.113  10.077
13043TIP3    H2 6201   8.225   2.117  10.193
13044TIP3   OH2 6202   8.578   3.517  10.426
13044TIP3    H1 6203   8.594   3.596  10.480
13044TIP3    H2 6204   8.620   3.544  10.341
13045TIP3   OH2 6205   8.704   2.219  10.495
13045TIP3    H1 6206   8.736   2.289  10.436
13045TIP3    H2 6207   8.620   2.192  10.451
13046TIP3   OH2 6208   7.717   2.275   9.240
13046TIP3    H1 6209   7.812   2.288   9.258
13046TIP3    H2 6210   7.678   2.279   9.329
13047TIP3   OH2 6211   7.790   2.685   9.819
13047TIP3    H1 6212   7.869   2.632   9.839
13047TIP3    H2 6213   7.730   2.617   9.782
13048TIP3   OH2 6214   8.867   3.251  10.596
13048TIP3    H1 6215   8.853   3.343  10.573
13048TIP3    H2 6216   8.773   3.222  10.588
13049TIP3   OH2 6217   9.053   2.558  10.695
13049TIP3    H1 6218   9.094   2.562  10.609
13049TIP3    H2 6219   9.087   2.472  10.728
13050TIP3   OH2 6220   7.733   3.578   9.684
13050TIP3    H1 6221   7.735   3.646   9.754
13050TIP3    H2 6222   7.637   3.574   9.666
13051TIP3   OH2 6223   8.970   1.992   9.779
13051TIP3    H1 6224   8.986   1.975   9.874
13051TIP3    H2 6225   9.008   1.909   9.741
13052TIP3   OH2 6226   9.086   3.365  10.185
13052TIP3    H1 6227   9.173   3.402  10.174
13052TIP3    H2 6228   9.061   3.409  10.269
13053TIP3   OH2 6229   9.174   3.689   9.011
13053TIP3    H1 6230   9.117   3.673   8.932
13053TIP3    H2 6231   9.187   3.598   9.039
13054TIP3   OH2 6232   8.678   3.522   8.862
13054TIP3    H1 6233   8.588   3.486   8.859
13054TIP3    H2 6234   8.711   3.483   8.944
13055TIP3   OH2 6235   8.084   3.405   9.020
13055TIP3    H1 6236   8.110   3.317   8.982
13055TIP3    H2 6237   7.995   3.413   8.979
13056TIP3   OH2 6238   9.185   3.057   8.995
13056TIP3    H1 6239   9.200   2.968   8.958
13056TIP3    H2 6240   9.277   3.084   9.014
13057TIP3   OH2 6241   8.528   3.028   9.055
13057TIP3    H1 6242   8.555   3.088   9.128
13057TIP3    H2 6243   8.559   2.939   9.085
13058TIP3   OH2 6244   7.956   3.018   9.261
13058TIP3    H1 6245   7.869   3.066   9.262
13058TIP3    H2 6246   8.015   3.095   9.253
13059TIP3   OH2 6247   9.072   2.718   9.026
13059TIP3    H1 6248   9.040   2.642   8.975
13059TIP3    H2 6249   9.053   2.790   8.964
13060TIP3   OH2 6250   8.719   2.645   9.325
13060TIP3    H1 6251   8.777   2.723   9.313
13060TIP3    H2 6252   8.646   2.684   9.377
13061TIP3   OH2 6253   8.170   2.923   8.944
13061TIP3    H1 6254   8.113   2.871   9.003
13061TIP3    H2 6255   8.198   2.858   8.877
13062TIP3   OH2 6256   8.602   2.424   9.206
13062TIP3    H1 6257   8.598   2.359   9.279
13062TIP3    H2 6258   8.620   2.506   9.256
13063TIP3   OH2 6259   8.603   2.216   9.397
13063TIP3    H1 6260   8.563   2.257   9.477
13063TIP3    H2 6261   8.698   2.219   9.421
13064TIP3   OH2 6262   8.487   2.789   9.421
13064TIP3    H1 6263   8.399   2.818   9.446
13064TIP3    H2 6264   8.540   2.863   9.456
13065TIP3   OH2 6265   8.074   2.569   8.890
13065TIP3    H1 6266   8.062   2.477   8.855
13065TIP3    H2 6267   7.984   2.603   8.891
13066TIP3   OH2 6268   7.883   2.872   9.039
13066TIP3    H1 6269   7.920   2.918   9.118
13066TIP3    H2 6270   7.793   2.853   9.071
13067TIP3   OH2 6271   8.765   2.471   8.979
13067TIP3    H1 6272   8.855   2.436   8.994
13067TIP3    H2 6273   8.728   2.475   9.069
13068TIP3   OH2 6274   8.514   1.970   9.391
13068TIP3    H1 6275   8.549   2.061   9.381
13068TIP3    H2 6276   8.594   1.923   9.420
13069TIP3   OH2 6277   8.413   2.401   8.984
13069TIP3    H1 6278   8.478   2.388   8.913
13069TIP3    H2 6279   8.471   2.387   9.061
13070TIP3   OH2 6280   8.146   2.335   9.092
13070TIP3    H1 6281   8.240   2.330   9.070
13070TIP3    H2 6282   8.111   2.276   9.022
13071TIP3   OH2 6283   8.054   2.152   8.925
13071TIP3    H1 6284   8.011   2.065   8.909
13071TIP3    H2 6285   8.028   2.206   8.847
13072TIP3   OH2 6286   9.002   2.306   9.015
13072TIP3    H1 6287   9.004   2.217   9.053
13072TIP3    H2 6288   9.012   2.287   8.918
13073TIP3   OH2 6289   8.551   1.898   9.128
13073TIP3    H1 6290   8.469   1.848   9.113
13073TIP3    H2 6291   8.542   1.911   9.225
13074TIP3   OH2 6292   8.536   2.014   8.845
13074TIP3    H1 6293   8.546   1.974   8.934
13074TIP3    H2 6294   8.558   2.107   8.865
13075TIP3   OH2 6295   9.136   3.221  10.625
13075TIP3    H1 6296   9.037   3.221  10.626
13075TIP3    H2 6297   9.160   3.161  10.699
13076TIP3   OH2 6298   9.263   3.752  10.155
13076TIP3    H1 6299   9.339   3.716  10.207
13076TIP3    H2 6300   9.262   3.697  10.074
13077TIP3   OH2 6301   9.209   3.576   9.938
13077TIP3    H1 6302   9.242   3.487   9.915
13077TIP3    H2 6303   9.155   3.597   9.859
13078TIP3   OH2 6304   7.465   3.632   9.679
13078TIP3    H1 6305   7.443   3.635   9.585
13078TIP3    H2 6306   7.416   3.710   9.710
13079TIP3   OH2 6307   7.515   3.590   9.372
13079TIP3    H1 6308   7.547   3.510   9.420
13079TIP3    H2 6309   7.493   3.551   9.285
13080TIP3   OH2 6310   7.629   3.165   8.874
13080TIP3    H1 6311   7.716   3.177   8.830
13080TIP3    H2 6312   7.592   3.256   8.862
13081TIP3   OH2 6313   7.488   2.805  10.172
13081TIP3    H1 6314   7.574   2.777  10.133
13081TIP3    H2 6315   7.448   2.860  10.103
13082TIP3   OH2 6316   7.523   3.088   9.684
13082TIP3    H1 6317   7.453   3.023   9.708
13082TIP3    H2 6318   7.494   3.169   9.732
13083TIP3   OH2 6319   7.651   3.368   9.438
13083TIP3    H1 6320   7.714   3.415   9.380
13083TIP3    H2 6321   7.707   3.348   9.517
13084TIP3   OH2 6322   7.712   2.682  10.080
13084TIP3    H1 6323   7.718   2.584  10.081
13084TIP3    H2 6324   7.722   2.697   9.983
13085TIP3   OH2 6325   9.184   2.893   9.709
13085TIP3    H1 6326   9.195   2.858   9.800
13085TIP3    H2 6327   9.091   2.866   9.688
13086TIP3   OH2 6328   7.603   2.855   9.125
13086TIP3    H1 6329   7.561   2.766   9.118
13086TIP3    H2 6330   7.529   2.910   9.158
13087TIP3   OH2 6331   7.492   2.611   9.056
13087TIP3    H1 6332   7.579   2.568   9.077
13087TIP3    H2 6333   7.431   2.534   9.064
13088TIP3   OH2 6334   7.734   2.315  10.671
13088TIP3    H1 6335   7.668   2.246  10.647
13088TIP3    H2 6336   7.772   2.282  10.754
13089TIP3   OH2 6337   7.718   2.419  10.171
13089TIP3    H1 6338   7.694   2.325  10.184
13089TIP3    H2 6339   7.677   2.458  10.250
13090TIP3   OH2 6340   7.646   2.488   9.704
13090TIP3    H1 6341   7.548   2.496   9.694
13090TIP3    H2 6342   7.674   2.499   9.612
13091TIP3   OH2 6343   7.652   2.563   9.440
13091TIP3    H1 6344   7.745   2.586   9.423
13091TIP3    H2 6345   7.609   2.650   9.452
13092TIP3   OH2 6346   9.236   2.427   9.035
13092TIP3    H1 6347   9.144   2.394   9.029
13092TIP3    H2 6348   9.286   2.345   9.041
13093TIP3   OH2 6349   7.459   1.991   8.927
13093TIP3    H1 6350   7.410   1.917   8.969
13093TIP3    H2 6351   7.450   2.059   8.997
13094TIP3   OH2 6352   7.660   2.143  10.253
13094TIP3    H1 6353   7.637   2.107  10.165
13094TIP3    H2 6354   7.738   2.091  10.280
13095TIP3   OH2 6355   9.089   2.225   9.717
13095TIP3    H1 6356   9.056   2.135   9.737
13095TIP3    H2 6357   9.011   2.283   9.736
13096TIP3   OH2 6358   9.249   2.514   9.673
13096TIP3    H1 6359   9.184   2.501   9.745
13096TIP3    H2 6360   9.236   2.607   9.652
13097TIP3   OH2 6361   7.505   2.202   9.079
13097TIP3    H1 6362   7.574   2.221   9.012
13097TIP3    H2 6363   7.559   2.171   9.155
13098TIP3   OH2 6364   7.511   2.142  10.605
13098TIP3    H1 6365   7.440   2.087  10.642
13098TIP3    H2 6366   7.458   2.195  10.543
13099TIP3   OH2 6367   9.260   2.171  10.287
13099TIP3    H1 6368   9.357   2.174  10.299
13099TIP3    H2 6369   9.228   2.223  10.364
13100TIP3   OH2 6370   7.786   3.665  10.072
13100TIP3    H1 6371   7.716   3.644  10.137
13100TIP3    H2 6372   7.742   3.719  10.005
13101TIP3   OH2 6373   9.272   2.006   9.457
13101TIP3    H1 6374   9.306   2.021   9.368
13101TIP3    H2 6375   9.312   2.078   9.508
13102TIP3   OH2 6376   9.053   3.318   9.030
13102TIP3    H1 6377   9.073   3.294   9.123
13102TIP3    H2 6378   9.071   3.231   8.991
13103TIP3   OH2 6379   8.757   3.479   9.391
13103TIP3    H1 6380   8.759   3.573   9.419
13103TIP3    H2 6381   8.660   3.466   9.388
13104TIP3   OH2 6382   8.337   3.595   9.138
13104TIP3    H1 6383   8.330   3.585   9.041
13104TIP3    H2 6384   8.247   3.627   9.160
13105TIP3   OH2 6385   8.125   3.770   9.179
13105TIP3    H1 6386   8.041   3.741   9.218
13105TIP3    H2 6387   8.096   3.812   9.096
13106TIP3   OH2 6388   7.604   1.955   9.269
13106TIP3    H1 6389   7.685   1.982   9.314
13106TIP3    H2 6390   7.590   1.864   9.306
13107TIP3   OH2 6391   9.027   3.784   9.406
13107TIP3    H1 6392   9.107   3.824   9.447
13107TIP3    H2 6393   9.063   3.761   9.319
13108TIP3   OH2 6394   8.765   3.739   9.512
13108TIP3    H1 6395   8.852   3.763   9.473
13108TIP3    H2 6396   8.757   3.803   9.585
13109TIP3   OH2 6397   8.302   3.707   9.601
13109TIP3    H1 6398   8.350   3.761   9.665
13109TIP3    H2 6399   8.278   3.773   9.532
13110TIP3   OH2 6400   8.104   3.574   9.450
13110TIP3    H1 6401   8.166   3.612   9.516
13110TIP3    H2 6402   8.027   3.630   9.469
13111TIP3   OH2 6403   7.832   3.722   9.477
13111TIP3    H1 6404   7.811   3.811   9.509
13111TIP3    H2 6405   7.805   3.669   9.555
13112TIP3   OH2 6406   9.060   3.636   9.722
13112TIP3    H1 6407   9.087   3.583   9.644
13112TIP3    H2 6408   8.974   3.594   9.746
13113TIP3   OH2 6409   8.865   3.500   9.838
13113TIP3    H1 6410   8.877   3.406   9.816
13113TIP3    H2 6411   8.777   3.516   9.798
13114TIP3   OH2 6412   8.631   3.507   9.708
13114TIP3    H1 6413   8.590   3.419   9.720
13114TIP3    H2 6414   8.596   3.535   9.623
13115TIP3   OH2 6415   8.336   2.101   9.896
13115TIP3    H1 6416   8.407   2.049   9.851
13115TIP3    H2 6417   8.258   2.047   9.877
13116TIP3   OH2 6418   7.732   1.912   9.851
13116TIP3    H1 6419   7.666   1.970   9.896
13116TIP3    H2 6420   7.817   1.950   9.883
13117TIP3   OH2 6421   7.577   2.055  10.011
13117TIP3    H1 6422   7.513   1.991  10.049
13117TIP3    H2 6423   7.515   2.128   9.986
13118TIP3   OH2 6424   8.999   1.963  10.051
13118TIP3    H1 6425   9.088   1.952  10.092
13118TIP3    H2 6426   8.961   1.871  10.061
13119TIP3   OH2 6427   9.095   1.981  10.517
13119TIP3    H1 6428   9.144   2.026  10.588
13119TIP3    H2 6429   9.155   1.993  10.442
13120TIP3   OH2 6430   8.578   1.925  10.070
13120TIP3    H1 6431   8.513   1.966  10.129
13120TIP3    H2 6432   8.542   1.939   9.982
13121TIP3   OH2 6433   7.996   1.971   9.932
13121TIP3    H1 6434   8.015   1.977  10.027
13121TIP3    H2 6435   8.031   1.882   9.911
13122TIP3   OH2 6436   7.905   2.006  10.395
13122TIP3    H1 6437   7.978   2.071  10.394
13122TIP3    H2 6438   7.944   1.928  10.349
13123TIP3   OH2 6439   9.130   3.546  10.395
13123TIP3    H1 6440   9.210   3.564  10.447
13123TIP3    H2 6441   9.086   3.633  10.408
13124TIP3   OH2 6442   8.468   2.175  10.368
13124TIP3    H1 6443   8.412   2.125  10.306
13124TIP3    H2 6444   8.430   2.263  10.354
13125TIP3   OH2 6445   8.235   3.770  10.591
13125TIP3    H1 6446   8.185   3.815  10.662
13125TIP3    H2 6447   8.264   3.691  10.636
13126TIP3   OH2 6448   7.610   3.603  10.271
13126TIP3    H1 6449   7.632   3.531  10.334
13126TIP3    H2 6450   7.606   3.680  10.331
13127TIP3   OH2 6451   9.053   2.024   9.134
13127TIP3    H1 6452   9.114   1.950   9.111
13127TIP3    H2 6453   8.973   1.996   9.085
13128TIP3   OH2 6454   8.843   1.984   8.952
13128TIP3    H1 6455   8.770   1.932   8.990
13128TIP3    H2 6456   8.882   1.920   8.890
13129TIP3   OH2 6457   7.989   1.895   8.896
13129TIP3    H1 6458   7.976   1.854   8.808
13129TIP3    H2 6459   7.904   1.876   8.941
13130TIP3   OH2 6460   7.675   3.515   9.075
13130TIP3    H1 6461   7.752   3.504   9.136
13130TIP3    H2 6462   7.687   3.608   9.049
13131TIP3   OH2 6463   6.198   2.907  10.093
13131TIP3    H1 6464   6.201   3.005  10.100
13131TIP3    H2 6465   6.277   2.887  10.145
13132TIP3   OH2 6466   6.319   2.783   9.745
13132TIP3    H1 6467   6.319   2.734   9.661
13132TIP3    H2 6468   6.391   2.739   9.795
13133TIP3   OH2 6469   7.115   2.782   9.593
13133TIP3    H1 6470   7.129   2.698   9.547
13133TIP3    H2 6471   7.029   2.808   9.556
13134TIP3   OH2 6472   6.019   3.115   9.854
13134TIP3    H1 6473   6.026   3.034   9.800
13134TIP3    H2 6474   5.979   3.178   9.793
13135TIP3   OH2 6475   7.010   3.251   9.766
13135TIP3    H1 6476   7.046   3.162   9.785
13135TIP3    H2 6477   6.916   3.226   9.771
13136TIP3   OH2 6478   7.348   2.558  10.205
13136TIP3    H1 6479   7.370   2.645  10.167
13136TIP3    H2 6480   7.383   2.573  10.296
13137TIP3   OH2 6481   7.297   2.816   9.944
13137TIP3    H1 6482   7.257   2.727   9.932
13137TIP3    H2 6483   7.225   2.869   9.982
13138TIP3   OH2 6484   6.256   3.646   9.896
13138TIP3    H1 6485   6.196   3.589   9.951
13138TIP3    H2 6486   6.290   3.576   9.837
13139TIP3   OH2 6487   6.521   3.072   9.646
13139TIP3    H1 6488   6.500   3.018   9.723
13139TIP3    H2 6489   6.431   3.095   9.614
13140TIP3   OH2 6490   5.645   2.218   9.665
13140TIP3    H1 6491   5.629   2.257   9.576
13140TIP3    H2 6492   5.558   2.234   9.706
13141TIP3   OH2 6493   6.148   2.507   9.628
13141TIP3    H1 6494   6.120   2.416   9.608
13141TIP3    H2 6495   6.158   2.500   9.726
13142TIP3   OH2 6496   6.871   2.281   9.958
13142TIP3    H1 6497   6.853   2.366  10.003
13142TIP3    H2 6498   6.910   2.231  10.033
13143TIP3   OH2 6499   6.107   2.330  10.065
13143TIP3    H1 6500   6.041   2.297  10.000
13143TIP3    H2 6501   6.054   2.390  10.118
13144TIP3   OH2 6502   7.203   2.570   9.868
13144TIP3    H1 6503   7.145   2.520   9.809
13144TIP3    H2 6504   7.178   2.534   9.956
13145TIP3   OH2 6505   6.735   2.703   9.909
13145TIP3    H1 6506   6.647   2.662   9.892
13145TIP3    H2 6507   6.781   2.627   9.952
13146TIP3   OH2 6508   5.622   2.345   9.406
13146TIP3    H1 6509   5.661   2.428   9.442
13146TIP3    H2 6510   5.608   2.372   9.313
13147TIP3   OH2 6511   6.949   2.213   9.528
13147TIP3    H1 6512   6.990   2.255   9.606
13147TIP3    H2 6513   7.015   2.235   9.459
13148TIP3   OH2 6514   6.288   3.156  10.171
13148TIP3    H1 6515   6.327   3.149  10.259
13148TIP3    H2 6516   6.310   3.249  10.149
13149TIP3   OH2 6517   6.746   2.969   9.548
13149TIP3    H1 6518   6.807   3.040   9.517
13149TIP3    H2 6519   6.670   3.022   9.582
13150TIP3   OH2 6520   5.893   2.292   9.866
13150TIP3    H1 6521   5.881   2.200   9.840
13150TIP3    H2 6522   5.833   2.339   9.804
13151TIP3   OH2 6523   7.012   2.393   9.743
13151TIP3    H1 6524   6.948   2.455   9.702
13151TIP3    H2 6525   6.961   2.361   9.821
13152TIP3   OH2 6526   6.885   3.181   9.456
13152TIP3    H1 6527   6.910   3.258   9.509
13152TIP3    H2 6528   6.966   3.174   9.398
13153TIP3   OH2 6529   7.273   3.121  10.356
13153TIP3    H1 6530   7.338   3.144  10.425
13153TIP3    H2 6531   7.264   3.203  10.303
13154TIP3   OH2 6532   5.904   3.305   9.662
13154TIP3    H1 6533   5.999   3.324   9.644
13154TIP3    H2 6534   5.881   3.387   9.708
13155TIP3   OH2 6535   5.926   2.131   9.553
13155TIP3    H1 6536   6.005   2.160   9.604
13155TIP3    H2 6537   5.853   2.169   9.605
13156TIP3   OH2 6538   6.616   1.942   9.803
13156TIP3    H1 6539   6.640   1.849   9.796
13156TIP3    H2 6540   6.700   1.984   9.768
13157TIP3   OH2 6541   6.102   3.490  10.044
13157TIP3    H1 6542   6.071   3.400  10.066
13157TIP3    H2 6543   6.017   3.539  10.052
13158TIP3   OH2 6544   5.953   3.260  10.166
13158TIP3    H1 6545   5.959   3.192  10.237
13158TIP3    H2 6546   5.982   3.209  10.088
13159TIP3   OH2 6547   5.815   3.130   9.294
13159TIP3    H1 6548   5.795   3.060   9.360
13159TIP3    H2 6549   5.799   3.209   9.349
13160TIP3   OH2 6550   6.342   2.837  10.343
13160TIP3    H1 6551   6.399   2.903  10.384
13160TIP3    H2 6552   6.278   2.812  10.414
13161TIP3   OH2 6553   5.613   2.775   9.509
13161TIP3    H1 6554   5.680   2.847   9.513
13161TIP3    H2 6555   5.549   2.809   9.575
13162TIP3   OH2 6556   5.983   2.814  10.241
13162TIP3    H1 6557   6.051   2.856  10.184
13162TIP3    H2 6558   5.920   2.781  10.173
13163TIP3   OH2 6559   6.016   2.677   9.313
13163TIP3    H1 6560   6.013   2.772   9.291
13163TIP3    H2 6561   6.081   2.679   9.385
13164TIP3   OH2 6562   6.856   2.873  10.069
13164TIP3    H1 6563   6.868   2.838  10.159
13164TIP3    H2 6564   6.801   2.804  10.026
13165TIP3   OH2 6565   6.727   3.219   9.768
13165TIP3    H1 6566   6.713   3.209   9.863
13165TIP3    H2 6567   6.648   3.177   9.729
13166TIP3   OH2 6568   6.845   2.759   9.671
13166TIP3    H1 6569   6.806   2.759   9.762
13166TIP3    H2 6570   6.798   2.836   9.630
13167TIP3   OH2 6571   6.162   3.345   9.610
13167TIP3    H1 6572   6.196   3.404   9.540
13167TIP3    H2 6573   6.184   3.257   9.575
13168TIP3   OH2 6574   6.727   3.213   9.239
13168TIP3    H1 6575   6.800   3.264   9.197
13168TIP3    H2 6576   6.765   3.196   9.327
13169TIP3   OH2 6577   6.111   2.761  10.466
13169TIP3    H1 6578   6.072   2.764  10.376
13169TIP3    H2 6579   6.056   2.829  10.508
13170TIP3   OH2 6580   7.007   2.835   9.333
13170TIP3    H1 6581   6.993   2.919   9.288
13170TIP3    H2 6582   7.088   2.806   9.288
13171TIP3   OH2 6583   6.362   3.440  10.172
13171TIP3    H1 6584   6.328   3.470  10.086
13171TIP3    H2 6585   6.409   3.519  10.204
13172TIP3   OH2 6586   6.897   3.392   9.127
13172TIP3    H1 6587   6.912   3.431   9.216
13172TIP3    H2 6588   6.989   3.366   9.106
13173TIP3   OH2 6589   5.730   1.930  10.422
13173TIP3    H1 6590   5.826   1.940  10.434
13173TIP3    H2 6591   5.698   2.017  10.448
13174TIP3   OH2 6592   6.939   2.779  10.313
13174TIP3    H1 6593   6.982   2.861  10.347
13174TIP3    H2 6594   7.016   2.722  10.301
13175TIP3   OH2 6595   7.317   3.058   9.395
13175TIP3    H1 6596   7.352   3.050   9.485
13175TIP3    H2 6597   7.290   2.966   9.379
13176TIP3   OH2 6598   7.355   3.321   9.734
13176TIP3    H1 6599   7.278   3.273   9.701
13176TIP3    H2 6600   7.352   3.399   9.676
13177TIP3   OH2 6601   5.551   3.391   9.144
13177TIP3    H1 6602   5.563   3.295   9.148
13177TIP3    H2 6603   5.637   3.417   9.101
13178TIP3   OH2 6604   6.470   3.330   9.236
13178TIP3    H1 6605   6.452   3.400   9.171
13178TIP3    H2 6606   6.562   3.304   9.219
13179TIP3   OH2 6607   6.405   3.708  10.290
13179TIP3    H1 6608   6.375   3.736  10.379
13179TIP3    H2 6609   6.416   3.794  10.245
13180TIP3   OH2 6610   7.030   3.593  10.087
13180TIP3    H1 6611   7.009   3.566   9.994
13180TIP3    H2 6612   7.122   3.562  10.097
13181TIP3   OH2 6613   6.067   3.661  10.550
13181TIP3    H1 6614   6.102   3.573  10.570
13181TIP3    H2 6615   6.091   3.669  10.455
13182TIP3   OH2 6616   6.138   3.634  10.289
13182TIP3    H1 6617   6.235   3.639  10.271
13182TIP3    H2 6618   6.119   3.551  10.241
13183TIP3   OH2 6619   5.849   2.520   9.109
13183TIP3    H1 6620   5.900   2.567   9.177
13183TIP3    H2 6621   5.854   2.428   9.143
13184TIP3   OH2 6622   7.093   3.176   9.292
13184TIP3    H1 6623   7.092   3.136   9.202
13184TIP3    H2 6624   7.180   3.149   9.327
13185TIP3   OH2 6625   6.826   2.051   9.691
13185TIP3    H1 6626   6.911   2.052   9.740
13185TIP3    H2 6627   6.853   2.102   9.612
13186TIP3   OH2 6628   6.332   1.989   9.385
13186TIP3    H1 6629   6.296   1.945   9.305
13186TIP3    H2 6630   6.428   1.994   9.362
13187TIP3   OH2 6631   6.082   2.412   9.302
13187TIP3    H1 6632   6.131   2.380   9.222
13187TIP3    H2 6633   6.091   2.509   9.291
13188TIP3   OH2 6634   6.397   2.188  10.590
13188TIP3    H1 6635   6.480   2.183  10.540
13188TIP3    H2 6636   6.430   2.196  10.683
13189TIP3   OH2 6637   6.832   2.513   9.587
13189TIP3    H1 6638   6.912   2.508   9.531
13189TIP3    H2 6639   6.836   2.608   9.615
13190TIP3   OH2 6640   6.854   2.511  10.075
13190TIP3    H1 6641   6.945   2.506  10.108
13190TIP3    H2 6642   6.803   2.509  10.160
13191TIP3   OH2 6643   6.283   2.618  10.168
13191TIP3    H1 6644   6.299   2.700  10.220
13191TIP3    H2 6645   6.227   2.569  10.232
13192TIP3   OH2 6646   6.390   2.630   9.062
13192TIP3    H1 6647   6.423   2.546   9.025
13192TIP3    H2 6648   6.302   2.632   9.020
13193TIP3   OH2 6649   6.163   2.562   9.900
13193TIP3    H1 6650   6.183   2.643   9.951
13193TIP3    H2 6651   6.186   2.494   9.965
13194TIP3   OH2 6652   7.081   2.530   9.454
13194TIP3    H1 6653   7.048   2.565   9.370
13194TIP3    H2 6654   7.113   2.442   9.423
13195TIP3   OH2 6655   6.779   2.317  10.703
13195TIP3    H1 6656   6.826   2.236  10.679
13195TIP3    H2 6657   6.687   2.291  10.722
13196TIP3   OH2 6658   7.387   2.244   9.986
13196TIP3    H1 6659   7.310   2.227   9.929
13196TIP3    H2 6660   7.352   2.290  10.063
13197TIP3   OH2 6661   7.330   2.327  10.466
13197TIP3    H1 6662   7.255   2.347  10.524
13197TIP3    H2 6663   7.367   2.415  10.452
13198TIP3   OH2 6664   6.276   2.697   9.490
13198TIP3    H1 6665   6.221   2.628   9.533
13198TIP3    H2 6666   6.334   2.641   9.433
13199TIP3   OH2 6667   6.579   2.302   9.993
13199TIP3    H1 6668   6.671   2.293   9.963
13199TIP3    H2 6669   6.530   2.237   9.939
13200TIP3   OH2 6670   7.125   2.459  10.109
13200TIP3    H1 6671   7.209   2.484  10.153
13200TIP3    H2 6672   7.106   2.372  10.148
13201TIP3   OH2 6673   6.745   2.488  10.318
13201TIP3    H1 6674   6.649   2.473  10.320
13201TIP3    H2 6675   6.767   2.512  10.409
13202TIP3   OH2 6676   6.139   2.214   9.681
13202TIP3    H1 6677   6.218   2.194   9.628
13202TIP3    H2 6678   6.148   2.159   9.761
13203TIP3   OH2 6679   6.835   2.600  10.652
13203TIP3    H1 6680   6.893   2.529  10.625
13203TIP3    H2 6681   6.763   2.545  10.691
13204TIP3   OH2 6682   5.854   3.768   9.002
13204TIP3    H1 6683   5.820   3.794   9.089
13204TIP3    H2 6684   5.774   3.782   8.948
13205TIP3   OH2 6685   7.063   3.001   9.071
13205TIP3    H1 6686   7.004   3.018   8.995
13205TIP3    H2 6687   7.151   3.002   9.027
13206TIP3   OH2 6688   6.505   2.582   9.836
13206TIP3    H1 6689   6.427   2.545   9.880
13206TIP3    H2 6690   6.536   2.509   9.780
13207TIP3   OH2 6691   7.019   2.190  10.169
13207TIP3    H1 6692   7.065   2.120  10.118
13207TIP3    H2 6693   6.997   2.141  10.250
13208TIP3   OH2 6694   6.588   2.388   9.569
13208TIP3    H1 6695   6.668   2.445   9.576
13208TIP3    H2 6696   6.529   2.442   9.513
13209TIP3   OH2 6697   6.533   3.049  10.356
13209TIP3    H1 6698   6.598   2.986  10.394
13209TIP3    H2 6699   6.568   3.065  10.265
13210TIP3   OH2 6700   5.795   2.975   9.504
13210TIP3    H1 6701   5.748   3.032   9.570
13210TIP3    H2 6702   5.881   2.968   9.547
13211TIP3   OH2 6703   6.165   2.313  10.580
13211TIP3    H1 6704   6.252   2.270  10.601
13211TIP3    H2 6705   6.195   2.399  10.546
13212TIP3   OH2 6706   6.426   3.063   9.271
13212TIP3    H1 6707   6.453   3.043   9.181
13212TIP3    H2 6708   6.443   3.159   9.273
13213TIP3   OH2 6709   6.136   2.512  10.369
13213TIP3    H1 6710   6.042   2.497  10.344
13213TIP3    H2 6711   6.128   2.590  10.428
13214TIP3   OH2 6712   7.016   2.981   9.834
13214TIP3    H1 6713   6.960   2.964   9.912
13214TIP3    H2 6714   6.999   2.903   9.779
13215TIP3   OH2 6715   6.368   3.189  10.509
13215TIP3    H1 6716   6.390   3.280  10.479
13215TIP3    H2 6717   6.432   3.133  10.461
13216TIP3   OH2 6718   7.336   2.799   9.267
13216TIP3    H1 6719   7.337   2.734   9.195
13216TIP3    H2 6720   7.384   2.753   9.339
13217TIP3   OH2 6721   6.639   2.760   9.107
13217TIP3    H1 6722   6.684   2.685   9.149
13217TIP3    H2 6723   6.546   2.728   9.109
13218TIP3   OH2 6724   6.134   3.286   9.241
13218TIP3    H1 6725   6.208   3.310   9.299
13218TIP3    H2 6726   6.162   3.335   9.161
13219TIP3   OH2 6727   5.634   2.513  10.386
13219TIP3    H1 6728   5.587   2.463  10.457
13219TIP3    H2 6729   5.629   2.602  10.430
13220TIP3   OH2 6730   5.568   3.116   9.178
13220TIP3    H1 6731   5.663   3.117   9.205
13220TIP3    H2 6732   5.524   3.103   9.265
13221TIP3   OH2 6733   6.036   2.889   9.694
13221TIP3    H1 6734   6.128   2.869   9.717
13221TIP3    H2 6735   5.989   2.817   9.741
13222TIP3   OH2 6736   6.796   3.306  10.043
13222TIP3    H1 6737   6.754   3.394  10.052
13222TIP3    H2 6738   6.873   3.321  10.100
13223TIP3   OH2 6739   6.657   3.082  10.118
13223TIP3    H1 6740   6.709   3.159  10.086
13223TIP3    H2 6741   6.706   3.005  10.084
13224TIP3   OH2 6742   6.608   3.501   9.431
13224TIP3    H1 6743   6.542   3.566   9.463
13224TIP3    H2 6744   6.558   3.460   9.359
13225TIP3   OH2 6745   6.767   3.567  10.165
13225TIP3    H1 6746   6.863   3.581  10.148
13225TIP3    H2 6747   6.731   3.653  10.134
13226TIP3   OH2 6748   6.283   3.091   9.524
13226TIP3    H1 6749   6.318   3.064   9.435
13226TIP3    H2 6750   6.246   3.008   9.557
13227TIP3   OH2 6751   5.956   3.564   9.272
13227TIP3    H1 6752   6.040   3.520   9.295
13227TIP3    H2 6753   5.945   3.625   9.349
13228TIP3   OH2 6754   7.127   2.298   9.320
13228TIP3    H1 6755   7.200   2.338   9.268
13228TIP3    H2 6756   7.144   2.205   9.298
13229TIP3   OH2 6757   5.933   3.061  10.363
13229TIP3    H1 6758   5.947   2.969  10.333
13229TIP3    H2 6759   5.835   3.063  10.364
13230TIP3   OH2 6760   7.217   3.439   9.501
13230TIP3    H1 6761   7.132   3.395   9.479
13230TIP3    H2 6762   7.225   3.506   9.432
13231TIP3   OH2 6763   6.730   3.257  10.524
13231TIP3    H1 6764   6.698   3.224  10.440
13231TIP3    H2 6765   6.735   3.354  10.509
13232TIP3   OH2 6766   7.042   2.992  10.457
13232TIP3    H1 6767   7.134   3.022  10.439
13232TIP3    H2 6768   7.000   3.070  10.495
13233TIP3   OH2 6769   6.294   2.266   9.414
13233TIP3    H1 6770   6.204   2.293   9.386
13233TIP3    H2 6771   6.302   2.174   9.384
13234TIP3   OH2 6772   6.179   2.182  10.323
13234TIP3    H1 6773   6.183   2.203  10.419
13234TIP3    H2 6774   6.138   2.264  10.291
13235TIP3   OH2 6775   6.425   3.457  10.473
13235TIP3    H1 6776   6.517   3.473  10.446
13235TIP3    H2 6777   6.394   3.548  10.482
13236TIP3   OH2 6778   6.486   2.399  10.231
13236TIP3    H1 6779   6.423   2.466  10.198
13236TIP3    H2 6780   6.516   2.356  10.148
13237TIP3   OH2 6781   6.407   2.529   9.324
13237TIP3    H1 6782   6.405   2.550   9.228
13237TIP3    H2 6783   6.373   2.437   9.331
13238TIP3   OH2 6784   6.423   2.104  10.192
13238TIP3    H1 6785   6.447   2.141  10.105
13238TIP3    H2 6786   6.340   2.155  10.213
13239TIP3   OH2 6787   6.705   3.515  10.439
13239TIP3    H1 6788   6.698   3.593  10.498
13239TIP3    H2 6789   6.743   3.551  10.356
13240TIP3   OH2 6790   5.837   2.280   9.240
13240TIP3    H1 6791   5.933   2.285   9.256
13240TIP3    H2 6792   5.801   2.283   9.330
13241TIP3   OH2 6793   5.920   2.668   9.831
13241TIP3    H1 6794   6.002   2.615   9.836
13241TIP3    H2 6795   5.859   2.605   9.786
13242TIP3   OH2 6796   7.188   2.563  10.697
13242TIP3    H1 6797   7.142   2.617  10.632
13242TIP3    H2 6798   7.270   2.612  10.712
13243TIP3   OH2 6799   5.860   3.583   9.682
13243TIP3    H1 6800   5.858   3.645   9.757
13243TIP3    H2 6801   5.764   3.575   9.665
13244TIP3   OH2 6802   7.090   1.994   9.761
13244TIP3    H1 6803   7.098   1.983   9.858
13244TIP3    H2 6804   7.120   1.906   9.731
13245TIP3   OH2 6805   7.235   3.353  10.211
13245TIP3    H1 6806   7.300   3.419  10.185
13245TIP3    H2 6807   7.188   3.405  10.278
13246TIP3   OH2 6808   7.311   3.679   9.041
13246TIP3    H1 6809   7.247   3.669   8.966
13246TIP3    H2 6810   7.341   3.587   9.049
13247TIP3   OH2 6811   6.811   3.511   8.870
13247TIP3    H1 6812   6.719   3.480   8.868
13247TIP3    H2 6813   6.844   3.464   8.948
13248TIP3   OH2 6814   6.198   3.414   9.015
13248TIP3    H1 6815   6.218   3.324   8.979
13248TIP3    H2 6816   6.109   3.425   8.974
13249TIP3   OH2 6817   7.320   3.026   8.958
13249TIP3    H1 6818   7.362   2.939   8.956
13249TIP3    H2 6819   7.364   3.067   9.036
13250TIP3   OH2 6820   6.642   3.023   9.060
13250TIP3    H1 6821   6.668   3.081   9.135
13250TIP3    H2 6822   6.645   2.931   9.100
13251TIP3   OH2 6823   6.366   3.181  10.780
13251TIP3    H1 6824   6.364   3.190  10.682
13251TIP3    H2 6825   6.304   3.107  10.795
13252TIP3   OH2 6826   6.062   3.015   9.264
13252TIP3    H1 6827   5.977   3.066   9.263
13252TIP3    H2 6828   6.122   3.091   9.248
13253TIP3   OH2 6829   7.174   2.723   9.002
13253TIP3    H1 6830   7.085   2.686   9.005
13253TIP3    H2 6831   7.160   2.793   8.935
13254TIP3   OH2 6832   6.716   2.865  10.485
13254TIP3    H1 6833   6.798   2.836  10.439
13254TIP3    H2 6834   6.690   2.781  10.525
13255TIP3   OH2 6835   6.827   2.636   9.303
13255TIP3    H1 6836   6.889   2.711   9.301
13255TIP3    H2 6837   6.761   2.670   9.366
13256TIP3   OH2 6838   6.281   2.925   8.936
13256TIP3    H1 6839   6.224   2.875   8.995
13256TIP3    H2 6840   6.317   2.857   8.877
13257TIP3   OH2 6841   6.696   2.419   9.196
13257TIP3    H1 6842   6.693   2.357   9.272
13257TIP3    H2 6843   6.726   2.500   9.242
13258TIP3   OH2 6844   6.707   2.212   9.411
13258TIP3    H1 6845   6.659   2.257   9.485
13258TIP3    H2 6846   6.799   2.221   9.445
13259TIP3   OH2 6847   6.598   2.783   9.421
13259TIP3    H1 6848   6.510   2.817   9.444
13259TIP3    H2 6849   6.655   2.856   9.452
13260TIP3   OH2 6850   6.186   2.571   8.885
13260TIP3    H1 6851   6.179   2.485   8.837
13260TIP3    H2 6852   6.094   2.590   8.905
13261TIP3   OH2 6853   6.002   2.869   9.042
13261TIP3    H1 6854   6.039   2.910   9.124
13261TIP3    H2 6855   5.912   2.846   9.074
13262TIP3   OH2 6856   6.904   2.488   8.991
13262TIP3    H1 6857   6.983   2.437   9.022
13262TIP3    H2 6858   6.851   2.493   9.071
13263TIP3   OH2 6859   6.621   1.964   9.387
13263TIP3    H1 6860   6.653   2.057   9.384
13263TIP3    H2 6861   6.700   1.919   9.417
13264TIP3   OH2 6862   6.515   2.388   8.976
13264TIP3    H1 6863   6.584   2.370   8.909
13264TIP3    H2 6864   6.569   2.376   9.057
13265TIP3   OH2 6865   6.252   2.337   9.096
13265TIP3    H1 6866   6.345   2.331   9.069
13265TIP3    H2 6867   6.215   2.276   9.027
13266TIP3   OH2 6868   6.153   2.160   8.926
13266TIP3    H1 6869   6.100   2.081   8.906
13266TIP3    H2 6870   6.137   2.220   8.848
13267TIP3   OH2 6871   7.110   2.317   9.000
13267TIP3    H1 6872   7.112   2.228   9.040
13267TIP3    H2 6873   7.124   2.293   8.904
13268TIP3   OH2 6874   6.660   1.900   9.113
13268TIP3    H1 6875   6.578   1.847   9.108
13268TIP3    H2 6876   6.658   1.919   9.209
13269TIP3   OH2 6877   6.662   2.018   8.846
13269TIP3    H1 6878   6.663   1.976   8.934
13269TIP3    H2 6879   6.680   2.111   8.869
13270TIP3   OH2 6880   6.629   3.759  10.580
13270TIP3    H1 6881   6.555   3.794  10.528
13270TIP3    H2 6882   6.653   3.834  10.636
13271TIP3   OH2 6883   7.424   3.753  10.134
13271TIP3    H1 6884   7.483   3.684  10.171
13271TIP3    H2 6885   7.378   3.702  10.064
13272TIP3   OH2 6886   7.330   3.565   9.955
13272TIP3    H1 6887   7.396   3.495   9.945
13272TIP3    H2 6888   7.310   3.582   9.861
13273TIP3   OH2 6889   5.587   3.625   9.686
13273TIP3    H1 6890   5.556   3.636   9.595
13273TIP3    H2 6891   5.547   3.702   9.729
13274TIP3   OH2 6892   5.622   3.585   9.371
13274TIP3    H1 6893   5.657   3.505   9.416
13274TIP3    H2 6894   5.599   3.547   9.284
13275TIP3   OH2 6895   5.747   3.161   8.881
13275TIP3    H1 6896   5.835   3.175   8.838
13275TIP3    H2 6897   5.709   3.251   8.867
13276TIP3   OH2 6898   5.660   3.019  10.326
13276TIP3    H1 6899   5.569   3.055  10.336
13276TIP3    H2 6900   5.645   2.937  10.274
13277TIP3   OH2 6901   5.606   2.812  10.155
13277TIP3    H1 6902   5.687   2.764  10.125
13277TIP3    H2 6903   5.553   2.812  10.073
13278TIP3   OH2 6904   5.640   3.088   9.686
13278TIP3    H1 6905   5.568   3.025   9.707
13278TIP3    H2 6906   5.611   3.170   9.729
13279TIP3   OH2 6907   5.767   3.366   9.439
13279TIP3    H1 6908   5.839   3.409   9.390
13279TIP3    H2 6909   5.813   3.342   9.522
13280TIP3   OH2 6910   5.588   2.734  10.520
13280TIP3    H1 6911   5.535   2.704  10.597
13280TIP3    H2 6912   5.544   2.818  10.500
13281TIP3   OH2 6913   5.814   2.668  10.081
13281TIP3    H1 6914   5.842   2.578  10.100
13281TIP3    H2 6915   5.834   2.675   9.984
13282TIP3   OH2 6916   7.322   2.903   9.691
13282TIP3    H1 6917   7.319   2.870   9.784
13282TIP3    H2 6918   7.230   2.879   9.662
13283TIP3   OH2 6919   5.715   2.855   9.123
13283TIP3    H1 6920   5.675   2.765   9.128
13283TIP3    H2 6921   5.642   2.909   9.160
13284TIP3   OH2 6922   5.603   2.599   9.092
13284TIP3    H1 6923   5.692   2.557   9.093
13284TIP3    H2 6924   5.543   2.521   9.083
13285TIP3   OH2 6925   5.892   2.445  10.277
13285TIP3    H1 6926   5.872   2.352  10.252
13285TIP3    H2 6927   5.803   2.472  10.308
13286TIP3   OH2 6928   5.765   2.492   9.709
13286TIP3    H1 6929   5.666   2.503   9.704
13286TIP3    H2 6930   5.787   2.503   9.615
13287TIP3   OH2 6931   5.770   2.557   9.446
13287TIP3    H1 6932   5.862   2.584   9.430
13287TIP3    H2 6933   5.725   2.642   9.469
13288TIP3   OH2 6934   7.335   2.396   9.106
13288TIP3    H1 6935   7.253   2.377   9.056
13288TIP3    H2 6936   7.386   2.313   9.092
13289TIP3   OH2 6937   5.575   1.989   8.926
13289TIP3    H1 6938   5.529   1.917   8.974
13289TIP3    H2 6939   5.575   2.058   8.997
13290TIP3   OH2 6940   5.845   2.174  10.229
13290TIP3    H1 6941   5.784   2.136  10.164
13290TIP3    H2 6942   5.881   2.096  10.275
13291TIP3   OH2 6943   7.245   2.221   9.725
13291TIP3    H1 6944   7.197   2.136   9.737
13291TIP3    H2 6945   7.176   2.287   9.743
13292TIP3   OH2 6946   7.392   2.538   9.683
13292TIP3    H1 6947   7.338   2.512   9.759
13292TIP3    H2 6948   7.356   2.627   9.668
13293TIP3   OH2 6949   5.621   2.198   9.082
13293TIP3    H1 6950   5.695   2.213   9.021
13293TIP3    H2 6951   5.669   2.165   9.160
13294TIP3   OH2 6952   7.373   2.161  10.262
13294TIP3    H1 6953   7.469   2.152  10.275
13294TIP3    H2 6954   7.347   2.208  10.345
13295TIP3   OH2 6955   5.898   3.649  10.071
13295TIP3    H1 6956   5.827   3.632  10.136
13295TIP3    H2 6957   5.865   3.725  10.019
13296TIP3   OH2 6958   7.375   2.017   9.448
13296TIP3    H1 6959   7.449   1.982   9.396
13296TIP3    H2 6960   7.413   2.093   9.495
13297TIP3   OH2 6961   7.157   3.330   9.053
13297TIP3    H1 6962   7.242   3.364   9.087
13297TIP3    H2 6963   7.182   3.294   8.968
13298TIP3   OH2 6964   6.880   3.476   9.386
13298TIP3    H1 6965   6.879   3.570   9.414
13298TIP3    H2 6966   6.784   3.457   9.390
13299TIP3   OH2 6967   6.460   3.591   9.131
13299TIP3    H1 6968   6.448   3.584   9.034
13299TIP3    H2 6969   6.373   3.624   9.160
13300TIP3   OH2 6970   6.237   3.753   9.175
13300TIP3    H1 6971   6.154   3.707   9.193
13300TIP3    H2 6972   6.214   3.806   9.095
13301TIP3   OH2 6973   5.718   1.957   9.266
13301TIP3    H1 6974   5.798   1.989   9.310
13301TIP3    H2 6975   5.706   1.869   9.309
13302TIP3   OH2 6976   7.138   3.780   9.424
13302TIP3    H1 6977   7.213   3.819   9.474
13302TIP3    H2 6978   7.152   3.818   9.335
13303TIP3   OH2 6979   6.895   3.729   9.518
13303TIP3    H1 6980   6.987   3.752   9.491
13303TIP3    H2 6981   6.877   3.796   9.587
13304TIP3   OH2 6982   6.432   3.687   9.574
13304TIP3    H1 6983   6.510   3.731   9.611
13304TIP3    H2 6984   6.388   3.763   9.529
13305TIP3   OH2 6985   6.201   3.565   9.450
13305TIP3    H1 6986   6.272   3.605   9.506
13305TIP3    H2 6987   6.128   3.627   9.470
13306TIP3   OH2 6988   5.953   3.731   9.479
13306TIP3    H1 6989   5.935   3.823   9.508
13306TIP3    H2 6990   5.920   3.683   9.559
13307TIP3   OH2 6991   7.171   3.619   9.719
13307TIP3    H1 6992   7.192   3.551   9.652
13307TIP3    H2 6993   7.084   3.589   9.753
13308TIP3   OH2 6994   6.947   3.532   9.840
13308TIP3    H1 6995   6.965   3.439   9.815
13308TIP3    H2 6996   6.859   3.545   9.800
13309TIP3   OH2 6997   6.715   3.519   9.703
13309TIP3    H1 6998   6.689   3.427   9.719
13309TIP3    H2 6999   6.703   3.525   9.606
13310TIP3   OH2 7000   6.419   2.090   9.918
13310TIP3    H1 7001   6.492   2.068   9.857
13310TIP3    H2 7002   6.358   2.019   9.899
13311TIP3   OH2 7003   5.847   1.919   9.851
13311TIP3    H1 7004   5.778   1.973   9.897
13311TIP3    H2 7005   5.929   1.957   9.887
13312TIP3   OH2 7006   5.679   2.039  10.025
13312TIP3    H1 7007   5.619   1.971  10.063
13312TIP3    H2 7008   5.617   2.112  10.002
13313TIP3   OH2 7009   7.130   1.972  10.030
13313TIP3    H1 7010   7.214   1.971  10.079
13313TIP3    H2 7011   7.089   1.890  10.065
13314TIP3   OH2 7012   6.678   1.932  10.104
13314TIP3    H1 7013   6.621   1.987  10.159
13314TIP3    H2 7014   6.652   1.957  10.014
13315TIP3   OH2 7015   6.101   1.984   9.953
13315TIP3    H1 7016   6.141   2.000  10.040
13315TIP3    H2 7017   6.137   1.895   9.931
13316TIP3   OH2 7018   5.999   1.976  10.381
13316TIP3    H1 7019   6.078   2.024  10.349
13316TIP3    H2 7020   6.028   1.883  10.364
13317TIP3   OH2 7021   7.202   3.572  10.385
13317TIP3    H1 7022   7.284   3.592  10.435
13317TIP3    H2 7023   7.142   3.547  10.458
13318TIP3   OH2 7024   6.574   2.158  10.401
13318TIP3    H1 7025   6.516   2.137  10.325
13318TIP3    H2 7026   6.575   2.255  10.390
13319TIP3   OH2 7027   6.343   3.736  10.553
13319TIP3    H1 7028   6.255   3.754  10.593
13319TIP3    H2 7029   6.394   3.721  10.634
13320TIP3   OH2 7030   5.721   3.613  10.265
13320TIP3    H1 7031   5.722   3.529  10.313
13320TIP3    H2 7032   5.722   3.681  10.335
13321TIP3   OH2 7033   7.158   2.038   9.130
13321TIP3    H1 7034   7.212   1.958   9.120
13321TIP3    H2 7035   7.085   2.021   9.065
13322TIP3   OH2 7036   6.963   1.978   8.948
13322TIP3    H1 7037   6.883   1.929   8.974
13322TIP3    H2 7038   7.005   1.912   8.891
13323TIP3   OH2 7039   6.104   1.895   8.898
13323TIP3    H1 7040   6.091   1.851   8.812
13323TIP3    H2 7041   6.017   1.879   8.941
13324TIP3   OH2 7042   5.779   3.509   9.075
13324TIP3    H1 7043   5.854   3.501   9.138
13324TIP3    H2 7044   5.792   3.601   9.044
13325TIP3   OH2 7045   4.303   2.904  10.098
13325TIP3    H1 7046   4.286   2.988  10.051
13325TIP3    H2 7047   4.396   2.917  10.123
13326TIP3   OH2 7048   4.438   2.782   9.752
13326TIP3    H1 7049   4.431   2.739   9.664
13326TIP3    H2 7050   4.502   2.726   9.799
13327TIP3   OH2 7051   5.234   2.777   9.600
13327TIP3    H1 7052   5.236   2.698   9.543
13327TIP3    H2 7053   5.158   2.823   9.562
13328TIP3   OH2 7054   4.118   3.096   9.899
13328TIP3    H1 7055   4.109   3.035   9.823
13328TIP3    H2 7056   4.105   3.181   9.856
13329TIP3   OH2 7057   5.125   3.250   9.761
13329TIP3    H1 7058   5.155   3.159   9.782
13329TIP3    H2 7059   5.029   3.235   9.769
13330TIP3   OH2 7060   5.445   2.560  10.183
13330TIP3    H1 7061   5.455   2.655  10.198
13330TIP3    H2 7062   5.531   2.531  10.220
13331TIP3   OH2 7063   5.427   2.796   9.942
13331TIP3    H1 7064   5.389   2.707   9.924
13331TIP3    H2 7065   5.352   2.845   9.980
13332TIP3   OH2 7066   4.363   3.644   9.890
13332TIP3    H1 7067   4.292   3.591   9.934
13332TIP3    H2 7068   4.398   3.572   9.835
13333TIP3   OH2 7069   4.631   3.063   9.643
13333TIP3    H1 7070   4.604   3.002   9.713
13333TIP3    H2 7071   4.544   3.085   9.604
13334TIP3   OH2 7072   3.759   2.202   9.648
13334TIP3    H1 7073   3.738   2.251   9.566
13334TIP3    H2 7074   3.682   2.222   9.703
13335TIP3   OH2 7075   4.272   2.513   9.634
13335TIP3    H1 7076   4.250   2.418   9.627
13335TIP3    H2 7077   4.302   2.514   9.727
13336TIP3   OH2 7078   4.960   2.280   9.968
13336TIP3    H1 7079   4.955   2.368  10.011
13336TIP3    H2 7080   5.011   2.230  10.035
13337TIP3   OH2 7081   4.203   2.314  10.073
13337TIP3    H1 7082   4.155   2.279   9.996
13337TIP3    H2 7083   4.134   2.370  10.111
13338TIP3   OH2 7084   5.313   2.567   9.865
13338TIP3    H1 7085   5.246   2.526   9.808
13338TIP3    H2 7086   5.286   2.532   9.952
13339TIP3   OH2 7087   4.836   2.699   9.908
13339TIP3    H1 7088   4.746   2.661   9.906
13339TIP3    H2 7089   4.886   2.622   9.941
13340TIP3   OH2 7090   3.745   2.343   9.410
13340TIP3    H1 7091   3.774   2.424   9.458
13340TIP3    H2 7092   3.730   2.381   9.321
13341TIP3   OH2 7093   5.057   2.212   9.530
13341TIP3    H1 7094   5.110   2.251   9.603
13341TIP3    H2 7095   5.114   2.237   9.455
13342TIP3   OH2 7096   4.403   3.171  10.187
13342TIP3    H1 7097   4.464   3.164  10.261
13342TIP3    H2 7098   4.401   3.268  10.172
13343TIP3   OH2 7099   4.864   2.966   9.557
13343TIP3    H1 7100   4.923   3.036   9.521
13343TIP3    H2 7101   4.787   3.019   9.587
13344TIP3   OH2 7102   4.020   2.304   9.848
13344TIP3    H1 7103   4.000   2.220   9.806
13344TIP3    H2 7104   3.955   2.364   9.804
13345TIP3   OH2 7105   5.122   2.391   9.744
13345TIP3    H1 7106   5.060   2.451   9.694
13345TIP3    H2 7107   5.064   2.363   9.818
13346TIP3   OH2 7108   4.997   3.181   9.453
13346TIP3    H1 7109   5.016   3.260   9.506
13346TIP3    H2 7110   5.081   3.175   9.401
13347TIP3   OH2 7111   5.401   3.121  10.390
13347TIP3    H1 7112   5.416   3.173  10.471
13347TIP3    H2 7113   5.376   3.191  10.325
13348TIP3   OH2 7114   4.019   3.295   9.660
13348TIP3    H1 7115   4.113   3.321   9.645
13348TIP3    H2 7116   3.993   3.371   9.714
13349TIP3   OH2 7117   4.037   2.122   9.551
13349TIP3    H1 7118   4.115   2.152   9.603
13349TIP3    H2 7119   3.960   2.159   9.597
13350TIP3   OH2 7120   4.742   1.928   9.770
13350TIP3    H1 7121   4.778   1.838   9.775
13350TIP3    H2 7122   4.824   1.979   9.750
13351TIP3   OH2 7123   4.181   3.486  10.015
13351TIP3    H1 7124   4.176   3.408  10.073
13351TIP3    H2 7125   4.107   3.540  10.051
13352TIP3   OH2 7126   4.093   3.267  10.173
13352TIP3    H1 7127   4.099   3.194  10.237
13352TIP3    H2 7128   4.102   3.216  10.091
13353TIP3   OH2 7129   3.934   3.129   9.301
13353TIP3    H1 7130   3.922   3.058   9.368
13353TIP3    H2 7131   3.910   3.207   9.355
13354TIP3   OH2 7132   4.450   2.822  10.354
13354TIP3    H1 7133   4.533   2.874  10.362
13354TIP3    H2 7134   4.387   2.891  10.327
13355TIP3   OH2 7135   3.727   2.779   9.508
13355TIP3    H1 7136   3.793   2.851   9.508
13355TIP3    H2 7137   3.666   2.813   9.577
13356TIP3   OH2 7138   4.088   2.808  10.237
13356TIP3    H1 7139   4.158   2.849  10.181
13356TIP3    H2 7140   4.026   2.777  10.166
13357TIP3   OH2 7141   4.121   2.687   9.319
13357TIP3    H1 7142   4.118   2.776   9.282
13357TIP3    H2 7143   4.193   2.698   9.383
13358TIP3   OH2 7144   4.964   2.876  10.056
13358TIP3    H1 7145   5.003   2.826  10.131
13358TIP3    H2 7146   4.907   2.808  10.013
13359TIP3   OH2 7147   4.836   3.227   9.773
13359TIP3    H1 7148   4.820   3.211   9.867
13359TIP3    H2 7149   4.765   3.176   9.729
13360TIP3   OH2 7150   4.954   2.753   9.675
13360TIP3    H1 7151   4.913   2.753   9.765
13360TIP3    H2 7152   4.910   2.831   9.633
13361TIP3   OH2 7153   4.273   3.349   9.607
13361TIP3    H1 7154   4.310   3.403   9.534
13361TIP3    H2 7155   4.293   3.259   9.578
13362TIP3   OH2 7156   4.835   3.218   9.237
13362TIP3    H1 7157   4.907   3.268   9.191
13362TIP3    H2 7158   4.880   3.202   9.323
13363TIP3   OH2 7159   5.129   2.837   9.334
13363TIP3    H1 7160   5.116   2.921   9.288
13363TIP3    H2 7161   5.206   2.805   9.284
13364TIP3   OH2 7162   4.450   3.461  10.173
13364TIP3    H1 7163   4.454   3.516  10.094
13364TIP3    H2 7164   4.494   3.518  10.238
13365TIP3   OH2 7165   5.013   3.389   9.127
13365TIP3    H1 7166   5.023   3.428   9.217
13365TIP3    H2 7167   5.106   3.368   9.107
13366TIP3   OH2 7168   5.107   2.779  10.279
13366TIP3    H1 7169   5.124   2.869  10.315
13366TIP3    H2 7170   5.158   2.724  10.339
13367TIP3   OH2 7171   5.429   3.053   9.395
13367TIP3    H1 7172   5.475   3.039   9.480
13367TIP3    H2 7173   5.398   2.963   9.379
13368TIP3   OH2 7174   5.461   3.316   9.733
13368TIP3    H1 7175   5.368   3.290   9.734
13368TIP3    H2 7176   5.459   3.388   9.668
13369TIP3   OH2 7177   3.669   3.392   9.141
13369TIP3    H1 7178   3.680   3.295   9.142
13369TIP3    H2 7179   3.754   3.420   9.100
13370TIP3   OH2 7180   4.580   3.329   9.240
13370TIP3    H1 7181   4.565   3.402   9.176
13370TIP3    H2 7182   4.673   3.303   9.225
13371TIP3   OH2 7183   4.529   3.719  10.296
13371TIP3    H1 7184   4.578   3.753  10.373
13371TIP3    H2 7185   4.523   3.800  10.241
13372TIP3   OH2 7186   5.147   3.591  10.093
13372TIP3    H1 7187   5.124   3.568  10.001
13372TIP3    H2 7188   5.240   3.564  10.099
13373TIP3   OH2 7189   4.213   3.589  10.574
13373TIP3    H1 7190   4.129   3.540  10.588
13373TIP3    H2 7191   4.215   3.608  10.478
13374TIP3   OH2 7192   4.251   3.643  10.299
13374TIP3    H1 7193   4.338   3.677  10.272
13374TIP3    H2 7194   4.247   3.558  10.253
13375TIP3   OH2 7195   3.966   2.518   9.106
13375TIP3    H1 7196   4.021   2.561   9.174
13375TIP3    H2 7197   3.965   2.426   9.139
13376TIP3   OH2 7198   5.215   3.177   9.297
13376TIP3    H1 7199   5.215   3.142   9.206
13376TIP3    H2 7200   5.302   3.148   9.331
13377TIP3   OH2 7201   4.957   2.049   9.704
13377TIP3    H1 7202   5.048   2.043   9.740
13377TIP3    H2 7203   4.973   2.108   9.627
13378TIP3   OH2 7204   4.455   1.990   9.383
13378TIP3    H1 7205   4.419   1.946   9.303
13378TIP3    H2 7206   4.550   1.994   9.364
13379TIP3   OH2 7207   4.182   2.409   9.310
13379TIP3    H1 7208   4.229   2.387   9.226
13379TIP3    H2 7209   4.228   2.490   9.337
13380TIP3   OH2 7210   4.944   2.507   9.582
13380TIP3    H1 7211   5.022   2.518   9.525
13380TIP3    H2 7212   4.937   2.601   9.614
13381TIP3   OH2 7213   4.964   2.527  10.069
13381TIP3    H1 7214   5.057   2.516  10.098
13381TIP3    H2 7215   4.925   2.557  10.153
13382TIP3   OH2 7216   4.398   2.586  10.218
13382TIP3    H1 7217   4.416   2.673  10.261
13382TIP3    H2 7218   4.316   2.558  10.260
13383TIP3   OH2 7219   4.507   2.627   9.047
13383TIP3    H1 7220   4.538   2.539   9.016
13383TIP3    H2 7221   4.418   2.628   9.005
13384TIP3   OH2 7222   4.305   2.563   9.905
13384TIP3    H1 7223   4.311   2.642   9.962
13384TIP3    H2 7224   4.302   2.491   9.972
13385TIP3   OH2 7225   5.194   2.533   9.456
13385TIP3    H1 7226   5.157   2.567   9.373
13385TIP3    H2 7227   5.232   2.448   9.425
13386TIP3   OH2 7228   5.506   2.244   9.996
13386TIP3    H1 7229   5.435   2.245   9.930
13386TIP3    H2 7230   5.465   2.283  10.075
13387TIP3   OH2 7231   4.390   2.701   9.488
13387TIP3    H1 7232   4.338   2.632   9.536
13387TIP3    H2 7233   4.447   2.646   9.430
13388TIP3   OH2 7234   4.659   2.277  10.003
13388TIP3    H1 7235   4.754   2.272   9.979
13388TIP3    H2 7236   4.618   2.228   9.929
13389TIP3   OH2 7237   5.209   2.441  10.116
13389TIP3    H1 7238   5.285   2.478  10.166
13389TIP3    H2 7239   5.179   2.369  10.175
13390TIP3   OH2 7240   4.895   2.466  10.336
13390TIP3    H1 7241   4.798   2.456  10.334
13390TIP3    H2 7242   4.909   2.526  10.411
13391TIP3   OH2 7243   4.265   2.211   9.684
13391TIP3    H1 7244   4.343   2.181   9.635
13391TIP3    H2 7245   4.268   2.156   9.765
13392TIP3   OH2 7246   4.942   2.571  10.591
13392TIP3    H1 7247   4.992   2.488  10.595
13392TIP3    H2 7248   4.918   2.581  10.684
13393TIP3   OH2 7249   3.968   3.775   9.006
13393TIP3    H1 7250   3.933   3.807   9.092
13393TIP3    H2 7251   3.890   3.791   8.950
13394TIP3   OH2 7252   5.178   3.001   9.070
13394TIP3    H1 7253   5.118   3.014   8.993
13394TIP3    H2 7254   5.265   3.002   9.025
13395TIP3   OH2 7255   4.601   2.567   9.844
13395TIP3    H1 7256   4.513   2.531   9.863
13395TIP3    H2 7257   4.642   2.496   9.791
13396TIP3   OH2 7258   5.113   2.170  10.177
13396TIP3    H1 7259   5.177   2.113  10.129
13396TIP3    H2 7260   5.061   2.102  10.222
13397TIP3   OH2 7261   4.703   2.381   9.572
13397TIP3    H1 7262   4.780   2.437   9.590
13397TIP3    H2 7263   4.650   2.438   9.514
13398TIP3   OH2 7264   4.647   3.014  10.363
13398TIP3    H1 7265   4.722   2.959  10.393
13398TIP3    H2 7266   4.686   3.059  10.284
13399TIP3   OH2 7267   3.910   2.975   9.514
13399TIP3    H1 7268   3.865   3.027   9.586
13399TIP3    H2 7269   4.000   2.971   9.550
13400TIP3   OH2 7270   4.295   2.314  10.561
13400TIP3    H1 7271   4.360   2.311  10.490
13400TIP3    H2 7272   4.231   2.378  10.523
13401TIP3   OH2 7273   4.532   3.062   9.273
13401TIP3    H1 7274   4.557   3.041   9.182
13401TIP3    H2 7275   4.556   3.157   9.275
13402TIP3   OH2 7276   4.169   2.506  10.392
13402TIP3    H1 7277   4.092   2.467  10.344
13402TIP3    H2 7278   4.143   2.599  10.383
13403TIP3   OH2 7279   5.140   2.977   9.850
13403TIP3    H1 7280   5.095   2.954   9.933
13403TIP3    H2 7281   5.112   2.905   9.790
13404TIP3   OH2 7282   5.453   2.801   9.264
13404TIP3    H1 7283   5.456   2.734   9.194
13404TIP3    H2 7284   5.499   2.755   9.337
13405TIP3   OH2 7285   4.750   2.757   9.108
13405TIP3    H1 7286   4.787   2.674   9.141
13405TIP3    H2 7287   4.656   2.732   9.100
13406TIP3   OH2 7288   4.250   3.292   9.241
13406TIP3    H1 7289   4.327   3.309   9.296
13406TIP3    H2 7290   4.277   3.342   9.160
13407TIP3   OH2 7291   3.722   2.531  10.406
13407TIP3    H1 7292   3.763   2.490  10.483
13407TIP3    H2 7293   3.707   2.621  10.443
13408TIP3   OH2 7294   3.684   3.116   9.177
13408TIP3    H1 7295   3.779   3.117   9.203
13408TIP3    H2 7296   3.641   3.102   9.265
13409TIP3   OH2 7297   4.148   2.896   9.704
13409TIP3    H1 7298   4.239   2.883   9.736
13409TIP3    H2 7299   4.103   2.821   9.746
13410TIP3   OH2 7300   4.921   3.301  10.050
13410TIP3    H1 7301   4.862   3.374  10.075
13410TIP3    H2 7302   5.006   3.331  10.085
13411TIP3   OH2 7303   4.777   3.091  10.138
13411TIP3    H1 7304   4.831   3.165  10.104
13411TIP3    H2 7305   4.809   3.017  10.082
13412TIP3   OH2 7306   4.725   3.501   9.434
13412TIP3    H1 7307   4.659   3.564   9.468
13412TIP3    H2 7308   4.672   3.457   9.365
13413TIP3   OH2 7309   4.875   3.583  10.170
13413TIP3    H1 7310   4.969   3.582  10.146
13413TIP3    H2 7311   4.850   3.672  10.138
13414TIP3   OH2 7312   4.393   3.090   9.516
13414TIP3    H1 7313   4.428   3.064   9.427
13414TIP3    H2 7314   4.346   3.009   9.543
13415TIP3   OH2 7315   4.130   3.188  10.613
13415TIP3    H1 7316   4.133   3.171  10.517
13415TIP3    H2 7317   4.102   3.102  10.650
13416TIP3   OH2 7318   4.076   3.559   9.272
13416TIP3    H1 7319   4.163   3.517   9.289
13416TIP3    H2 7320   4.070   3.619   9.351
13417TIP3   OH2 7321   5.244   2.295   9.324
13417TIP3    H1 7322   5.317   2.331   9.269
13417TIP3    H2 7323   5.249   2.201   9.297
13418TIP3   OH2 7324   4.050   3.048  10.372
13418TIP3    H1 7325   4.077   2.958  10.342
13418TIP3    H2 7326   3.956   3.032  10.393
13419TIP3   OH2 7327   5.319   3.451   9.501
13419TIP3    H1 7328   5.245   3.391   9.482
13419TIP3    H2 7329   5.324   3.501   9.419
13420TIP3   OH2 7330   4.872   3.270  10.532
13420TIP3    H1 7331   4.840   3.225  10.453
13420TIP3    H2 7332   4.855   3.365  10.510
13421TIP3   OH2 7333   5.136   3.009  10.420
13421TIP3    H1 7334   5.228   3.031  10.392
13421TIP3    H2 7335   5.136   3.066  10.499
13422TIP3   OH2 7336   4.412   2.266   9.396
13422TIP3    H1 7337   4.317   2.273   9.377
13422TIP3    H2 7338   4.428   2.170   9.382
13423TIP3   OH2 7339   4.341   2.235  10.296
13423TIP3    H1 7340   4.262   2.211  10.344
13423TIP3    H2 7341   4.302   2.279  10.218
13424TIP3   OH2 7342   4.624   2.430  10.282
13424TIP3    H1 7343   4.540   2.477  10.265
13424TIP3    H2 7344   4.651   2.400  10.193
13425TIP3   OH2 7345   4.526   2.530   9.321
13425TIP3    H1 7346   4.525   2.549   9.225
13425TIP3    H2 7347   4.489   2.439   9.329
13426TIP3   OH2 7348   4.524   2.064  10.149
13426TIP3    H1 7349   4.570   2.118  10.082
13426TIP3    H2 7350   4.460   2.130  10.184
13427TIP3   OH2 7351   4.821   3.520  10.438
13427TIP3    H1 7352   4.794   3.606  10.477
13427TIP3    H2 7353   4.846   3.548  10.348
13428TIP3   OH2 7354   4.916   2.259  10.515
13428TIP3    H1 7355   4.952   2.298  10.432
13428TIP3    H2 7356   4.838   2.207  10.485
13429TIP3   OH2 7357   3.949   2.276   9.240
13429TIP3    H1 7358   4.043   2.289   9.265
13429TIP3    H2 7359   3.908   2.279   9.328
13430TIP3   OH2 7360   4.051   2.655   9.839
13430TIP3    H1 7361   4.134   2.603   9.832
13430TIP3    H2 7362   3.987   2.601   9.788
13431TIP3   OH2 7363   5.160   3.244  10.574
13431TIP3    H1 7364   5.068   3.272  10.555
13431TIP3    H2 7365   5.154   3.211  10.665
13432TIP3   OH2 7366   3.975   3.579   9.690
13432TIP3    H1 7367   3.964   3.643   9.764
13432TIP3    H2 7368   3.882   3.570   9.665
13433TIP3   OH2 7369   5.215   2.000   9.767
13433TIP3    H1 7370   5.223   1.991   9.865
13433TIP3    H2 7371   5.245   1.912   9.738
13434TIP3   OH2 7372   5.354   3.323  10.218
13434TIP3    H1 7373   5.396   3.338  10.133
13434TIP3    H2 7374   5.342   3.413  10.254
13435TIP3   OH2 7375   5.419   3.684   9.042
13435TIP3    H1 7376   5.354   3.671   8.969
13435TIP3    H2 7377   5.453   3.594   9.051
13436TIP3   OH2 7378   4.917   3.508   8.866
13436TIP3    H1 7379   4.824   3.479   8.862
13436TIP3    H2 7380   4.948   3.457   8.942
13437TIP3   OH2 7381   4.314   3.414   9.012
13437TIP3    H1 7382   4.334   3.324   8.978
13437TIP3    H2 7383   4.223   3.424   8.976
13438TIP3   OH2 7384   4.012   3.426  10.673
13438TIP3    H1 7385   4.055   3.338  10.663
13438TIP3    H2 7386   4.012   3.439  10.769
13439TIP3   OH2 7387   5.432   3.023   8.959
13439TIP3    H1 7388   5.476   2.936   8.956
13439TIP3    H2 7389   5.475   3.064   9.037
13440TIP3   OH2 7390   4.758   3.021   9.058
13440TIP3    H1 7391   4.782   3.081   9.132
13440TIP3    H2 7392   4.761   2.930   9.099
13441TIP3   OH2 7393   4.179   3.015   9.262
13441TIP3    H1 7394   4.093   3.063   9.261
13441TIP3    H2 7395   4.236   3.094   9.249
13442TIP3   OH2 7396   5.291   2.724   9.005
13442TIP3    H1 7397   5.203   2.687   9.009
13442TIP3    H2 7398   5.278   2.792   8.936
13443TIP3   OH2 7399   4.871   2.857  10.470
13443TIP3    H1 7400   4.931   2.912  10.419
13443TIP3    H2 7401   4.940   2.809  10.519
13444TIP3   OH2 7402   4.950   2.636   9.323
13444TIP3    H1 7403   5.005   2.715   9.305
13444TIP3    H2 7404   4.872   2.678   9.364
13445TIP3   OH2 7405   4.722   2.719  10.683
13445TIP3    H1 7406   4.802   2.737  10.733
13445TIP3    H2 7407   4.750   2.755  10.596
13446TIP3   OH2 7408   4.391   2.930   8.937
13446TIP3    H1 7409   4.335   2.880   8.998
13446TIP3    H2 7410   4.419   2.862   8.874
13447TIP3   OH2 7411   4.823   2.422   9.199
13447TIP3    H1 7412   4.820   2.355   9.271
13447TIP3    H2 7413   4.851   2.501   9.252
13448TIP3   OH2 7414   4.819   2.221   9.402
13448TIP3    H1 7415   4.770   2.263   9.476
13448TIP3    H2 7416   4.910   2.225   9.439
13449TIP3   OH2 7417   4.711   2.786   9.420
13449TIP3    H1 7418   4.623   2.819   9.441
13449TIP3    H2 7419   4.766   2.861   9.449
13450TIP3   OH2 7420   4.292   2.564   8.882
13450TIP3    H1 7421   4.284   2.478   8.836
13450TIP3    H2 7422   4.199   2.586   8.901
13451TIP3   OH2 7423   4.114   2.864   9.040
13451TIP3    H1 7424   4.150   2.907   9.120
13451TIP3    H2 7425   4.025   2.840   9.072
13452TIP3   OH2 7426   5.023   2.488   8.988
13452TIP3    H1 7427   5.102   2.436   9.020
13452TIP3    H2 7428   4.967   2.488   9.067
13453TIP3   OH2 7429   4.742   1.969   9.398
13453TIP3    H1 7430   4.775   2.061   9.393
13453TIP3    H2 7431   4.821   1.922   9.428
13454TIP3   OH2 7432   4.631   2.385   8.979
13454TIP3    H1 7433   4.700   2.374   8.911
13454TIP3    H2 7434   4.687   2.376   9.059
13455TIP3   OH2 7435   4.341   2.344   9.100
13455TIP3    H1 7436   4.437   2.336   9.087
13455TIP3    H2 7437   4.314   2.280   9.031
13456TIP3   OH2 7438   4.272   2.160   8.923
13456TIP3    H1 7439   4.219   2.080   8.906
13456TIP3    H2 7440   4.253   2.218   8.845
13457TIP3   OH2 7441   5.226   2.310   9.005
13457TIP3    H1 7442   5.236   2.224   9.050
13457TIP3    H2 7443   5.242   2.284   8.911
13458TIP3   OH2 7444   4.777   1.916   9.137
13458TIP3    H1 7445   4.693   1.870   9.123
13458TIP3    H2 7446   4.775   1.918   9.235
13459TIP3   OH2 7447   4.764   2.023   8.852
13459TIP3    H1 7448   4.784   1.989   8.941
13459TIP3    H2 7449   4.765   2.119   8.870
13460TIP3   OH2 7450   4.744   3.773  10.554
13460TIP3    H1 7451   4.674   3.782  10.621
13460TIP3    H2 7452   4.820   3.810  10.602
13461TIP3   OH2 7453   5.435   3.255  10.636
13461TIP3    H1 7454   5.338   3.255  10.638
13461TIP3    H2 7455   5.454   3.203  10.718
13462TIP3   OH2 7456   5.531   3.740  10.122
13462TIP3    H1 7457   5.604   3.685  10.159
13462TIP3    H2 7458   5.498   3.681  10.051
13463TIP3   OH2 7459   5.428   3.545   9.938
13463TIP3    H1 7460   5.494   3.492   9.890
13463TIP3    H2 7461   5.378   3.580   9.861
13464TIP3   OH2 7462   3.698   3.638   9.676
13464TIP3    H1 7463   3.664   3.657   9.587
13464TIP3    H2 7464   3.623   3.666   9.730
13465TIP3   OH2 7465   3.736   3.584   9.364
13465TIP3    H1 7466   3.770   3.505   9.412
13465TIP3    H2 7467   3.715   3.545   9.277
13466TIP3   OH2 7468   3.856   3.164   8.880
13466TIP3    H1 7469   3.946   3.176   8.842
13466TIP3    H2 7470   3.823   3.256   8.868
13467TIP3   OH2 7471   3.725   3.010  10.344
13467TIP3    H1 7472   3.735   3.077  10.276
13467TIP3    H2 7473   3.724   2.930  10.287
13468TIP3   OH2 7474   3.711   2.820  10.144
13468TIP3    H1 7475   3.794   2.771  10.124
13468TIP3    H2 7476   3.667   2.818  10.056
13469TIP3   OH2 7477   3.759   3.091   9.695
13469TIP3    H1 7478   3.688   3.023   9.702
13469TIP3    H2 7479   3.714   3.175   9.716
13470TIP3   OH2 7480   3.878   3.369   9.439
13470TIP3    H1 7481   3.944   3.417   9.386
13470TIP3    H2 7482   3.928   3.349   9.522
13471TIP3   OH2 7483   3.706   2.790  10.504
13471TIP3    H1 7484   3.749   2.812  10.588
13471TIP3    H2 7485   3.690   2.877  10.463
13472TIP3   OH2 7486   3.907   2.562  10.655
13472TIP3    H1 7487   3.901   2.642  10.709
13472TIP3    H2 7488   3.939   2.502  10.724
13473TIP3   OH2 7489   3.921   2.676  10.074
13473TIP3    H1 7490   3.946   2.586  10.101
13473TIP3    H2 7491   3.947   2.678   9.979
13474TIP3   OH2 7492   5.446   2.894   9.686
13474TIP3    H1 7493   5.450   2.861   9.779
13474TIP3    H2 7494   5.356   2.864   9.659
13475TIP3   OH2 7495   3.826   2.855   9.124
13475TIP3    H1 7496   3.791   2.763   9.125
13475TIP3    H2 7497   3.751   2.904   9.162
13476TIP3   OH2 7498   3.722   2.600   9.092
13476TIP3    H1 7499   3.811   2.558   9.091
13476TIP3    H2 7500   3.662   2.522   9.084
13477TIP3   OH2 7501   3.951   2.303  10.754
13477TIP3    H1 7502   3.874   2.265  10.709
13477TIP3    H2 7503   4.021   2.283  10.692
13478TIP3   OH2 7504   3.969   2.425  10.233
13478TIP3    H1 7505   3.959   2.328  10.218
13478TIP3    H2 7506   3.880   2.447  10.266
13479TIP3   OH2 7507   3.886   2.491   9.703
13479TIP3    H1 7508   3.788   2.507   9.700
13479TIP3    H2 7509   3.907   2.498   9.608
13480TIP3   OH2 7510   3.887   2.563   9.442
13480TIP3    H1 7511   3.972   2.584   9.401
13480TIP3    H2 7512   3.847   2.651   9.458
13481TIP3   OH2 7513   5.449   2.388   9.111
13481TIP3    H1 7514   5.367   2.365   9.061
13481TIP3    H2 7515   5.502   2.306   9.098
13482TIP3   OH2 7516   3.687   1.989   8.931
13482TIP3    H1 7517   3.640   1.918   8.978
13482TIP3    H2 7518   3.689   2.060   9.000
13483TIP3   OH2 7519   3.952   2.150  10.206
13483TIP3    H1 7520   3.896   2.115  10.133
13483TIP3    H2 7521   3.979   2.069  10.255
13484TIP3   OH2 7522   5.357   2.229   9.734
13484TIP3    H1 7523   5.312   2.142   9.743
13484TIP3    H2 7524   5.285   2.292   9.752
13485TIP3   OH2 7525   5.509   2.534   9.685
13485TIP3    H1 7526   5.446   2.499   9.750
13485TIP3    H2 7527   5.470   2.621   9.671
13486TIP3   OH2 7528   3.740   2.203   9.075
13486TIP3    H1 7529   3.809   2.228   9.011
13486TIP3    H2 7530   3.794   2.175   9.152
13487TIP3   OH2 7531   3.700   2.200  10.606
13487TIP3    H1 7532   3.705   2.112  10.646
13487TIP3    H2 7533   3.657   2.258  10.670
13488TIP3   OH2 7534   5.468   2.191  10.277
13488TIP3    H1 7535   5.555   2.188  10.234
13488TIP3    H2 7536   5.489   2.217  10.369
13489TIP3   OH2 7537   3.988   3.641  10.113
13489TIP3    H1 7538   3.931   3.648  10.191
13489TIP3    H2 7539   3.947   3.703  10.049
13490TIP3   OH2 7540   5.501   2.018   9.453
13490TIP3    H1 7541   5.570   2.001   9.386
13490TIP3    H2 7542   5.542   2.080   9.516
13491TIP3   OH2 7543   5.270   3.333   9.053
13491TIP3    H1 7544   5.356   3.368   9.080
13491TIP3    H2 7545   5.291   3.289   8.970
13492TIP3   OH2 7546   4.990   3.471   9.387
13492TIP3    H1 7547   4.993   3.565   9.415
13492TIP3    H2 7548   4.892   3.457   9.392
13493TIP3   OH2 7549   4.579   3.593   9.132
13493TIP3    H1 7550   4.569   3.583   9.035
13493TIP3    H2 7551   4.494   3.634   9.155
13494TIP3   OH2 7552   4.356   3.757   9.166
13494TIP3    H1 7553   4.273   3.715   9.194
13494TIP3    H2 7554   4.327   3.810   9.089
13495TIP3   OH2 7555   3.830   1.954   9.271
13495TIP3    H1 7556   3.908   1.989   9.314
13495TIP3    H2 7557   3.823   1.864   9.311
13496TIP3   OH2 7558   5.254   3.784   9.420
13496TIP3    H1 7559   5.337   3.824   9.452
13496TIP3    H2 7560   5.252   3.819   9.329
13497TIP3   OH2 7561   5.012   3.730   9.525
13497TIP3    H1 7562   5.105   3.750   9.498
13497TIP3    H2 7563   4.993   3.804   9.586
13498TIP3   OH2 7564   4.552   3.694   9.570
13498TIP3    H1 7565   4.628   3.747   9.601
13498TIP3    H2 7566   4.501   3.764   9.525
13499TIP3   OH2 7567   4.324   3.571   9.444
13499TIP3    H1 7568   4.392   3.606   9.505
13499TIP3    H2 7569   4.249   3.627   9.474
13500TIP3   OH2 7570   4.061   3.727   9.479
13500TIP3    H1 7571   4.046   3.821   9.501
13500TIP3    H2 7572   4.032   3.685   9.563
13501TIP3   OH2 7573   5.290   3.622   9.713
13501TIP3    H1 7574   5.309   3.563   9.636
13501TIP3    H2 7575   5.199   3.594   9.737
13502TIP3   OH2 7576   5.069   3.530   9.842
13502TIP3    H1 7577   5.090   3.438   9.813
13502TIP3    H2 7578   4.979   3.537   9.803
13503TIP3   OH2 7579   4.837   3.515   9.717
13503TIP3    H1 7580   4.813   3.421   9.731
13503TIP3    H2 7581   4.819   3.525   9.622
13504TIP3   OH2 7582   4.549   2.071   9.859
13504TIP3    H1 7583   4.617   2.008   9.825
13504TIP3    H2 7584   4.479   2.015   9.894
13505TIP3   OH2 7585   3.959   1.902   9.866
13505TIP3    H1 7586   3.905   1.976   9.903
13505TIP3    H2 7587   4.050   1.926   9.893
13506TIP3   OH2 7588   3.789   2.058  10.016
13506TIP3    H1 7589   3.728   1.997  10.061
13506TIP3    H2 7590   3.728   2.131   9.989
13507TIP3   OH2 7591   5.253   1.976  10.045
13507TIP3    H1 7592   5.344   1.961  10.076
13507TIP3    H2 7593   5.210   1.892  10.073
13508TIP3   OH2 7594   5.407   1.949  10.468
13508TIP3    H1 7595   5.353   1.956  10.549
13508TIP3    H2 7596   5.388   2.031  10.420
13509TIP3   OH2 7597   4.810   1.934  10.072
13509TIP3    H1 7598   4.723   1.945  10.114
13509TIP3    H2 7599   4.795   1.970   9.983
13510TIP3   OH2 7600   4.225   1.979   9.922
13510TIP3    H1 7601   4.242   1.990  10.015
13510TIP3    H2 7602   4.273   1.896   9.902
13511TIP3   OH2 7603   4.089   1.944  10.323
13511TIP3    H1 7604   4.166   1.999  10.337
13511TIP3    H2 7605   4.133   1.858  10.307
13512TIP3   OH2 7606   5.371   3.553  10.363
13512TIP3    H1 7607   5.338   3.519  10.448
13512TIP3    H2 7608   5.381   3.647  10.378
13513TIP3   OH2 7609   5.175   2.110  10.590
13513TIP3    H1 7610   5.153   2.057  10.667
13513TIP3    H2 7611   5.110   2.182  10.594
13514TIP3   OH2 7612   4.673   2.172  10.397
13514TIP3    H1 7613   4.632   2.122  10.323
13514TIP3    H2 7614   4.651   2.264  10.374
13515TIP3   OH2 7615   3.799   3.583  10.318
13515TIP3    H1 7616   3.876   3.527  10.336
13515TIP3    H2 7617   3.813   3.661  10.376
13516TIP3   OH2 7618   5.279   2.037   9.135
13516TIP3    H1 7619   5.332   1.955   9.121
13516TIP3    H2 7620   5.203   2.018   9.075
13517TIP3   OH2 7621   5.081   1.972   8.950
13517TIP3    H1 7622   4.998   1.926   8.974
13517TIP3    H2 7623   5.120   1.907   8.888
13518TIP3   OH2 7624   4.225   1.896   8.903
13518TIP3    H1 7625   4.213   1.854   8.816
13518TIP3    H2 7626   4.138   1.878   8.944
13519TIP3   OH2 7627   3.898   3.511   9.076
13519TIP3    H1 7628   3.970   3.501   9.142
13519TIP3    H2 7629   3.914   3.602   9.045
13520TIP3   OH2 7630   2.439   2.899  10.090
13520TIP3    H1 7631   2.448   2.994  10.068
13520TIP3    H2 7632   2.512   2.887  10.153
13521TIP3   OH2 7633   2.562   2.790   9.731
13521TIP3    H1 7634   2.541   2.753   9.643
13521TIP3    H2 7635   2.623   2.723   9.766
13522TIP3   OH2 7636   3.350   2.777   9.601
13522TIP3    H1 7637   3.360   2.697   9.545
13522TIP3    H2 7638   3.276   2.821   9.557
13523TIP3   OH2 7639   2.238   3.115   9.866
13523TIP3    H1 7640   2.234   3.033   9.815
13523TIP3    H2 7641   2.228   3.181   9.797
13524TIP3   OH2 7642   3.238   3.250   9.766
13524TIP3    H1 7643   3.273   3.159   9.771
13524TIP3    H2 7644   3.144   3.226   9.776
13525TIP3   OH2 7645   3.559   2.588  10.196
13525TIP3    H1 7646   3.601   2.674  10.182
13525TIP3    H2 7647   3.618   2.552  10.266
13526TIP3   OH2 7648   3.517   2.818   9.942
13526TIP3    H1 7649   3.473   2.731   9.924
13526TIP3    H2 7650   3.455   2.862  10.001
13527TIP3   OH2 7651   2.483   3.644   9.901
13527TIP3    H1 7652   2.413   3.592   9.948
13527TIP3    H2 7653   2.505   3.576   9.835
13528TIP3   OH2 7654   2.752   3.084   9.650
13528TIP3    H1 7655   2.721   3.045   9.733
13528TIP3    H2 7656   2.669   3.085   9.600
13529TIP3   OH2 7657   1.869   2.198   9.642
13529TIP3    H1 7658   1.862   2.251   9.560
13529TIP3    H2 7659   1.781   2.216   9.681
13530TIP3   OH2 7660   2.369   2.513   9.639
13530TIP3    H1 7661   2.346   2.419   9.624
13530TIP3    H2 7662   2.421   2.508   9.721
13531TIP3   OH2 7663   3.092   2.292   9.963
13531TIP3    H1 7664   3.077   2.374  10.013
13531TIP3    H2 7665   3.138   2.239  10.032
13532TIP3   OH2 7666   2.332   2.298  10.069
13532TIP3    H1 7667   2.274   2.280   9.991
13532TIP3    H2 7668   2.284   2.370  10.113
13533TIP3   OH2 7669   3.430   2.574   9.858
13533TIP3    H1 7670   3.371   2.521   9.802
13533TIP3    H2 7671   3.408   2.540   9.947
13534TIP3   OH2 7672   2.944   2.712   9.917
13534TIP3    H1 7673   2.866   2.667   9.879
13534TIP3    H2 7674   2.973   2.643   9.980
13535TIP3   OH2 7675   1.855   2.349   9.408
13535TIP3    H1 7676   1.894   2.433   9.443
13535TIP3    H2 7677   1.830   2.378   9.319
13536TIP3   OH2 7678   3.177   2.208   9.527
13536TIP3    H1 7679   3.217   2.251   9.605
13536TIP3    H2 7680   3.238   2.239   9.458
13537TIP3   OH2 7681   2.484   3.175  10.179
13537TIP3    H1 7682   2.521   3.172  10.270
13537TIP3    H2 7683   2.520   3.260  10.147
13538TIP3   OH2 7684   2.980   2.968   9.558
13538TIP3    H1 7685   3.040   3.040   9.530
13538TIP3    H2 7686   2.905   3.020   9.594
13539TIP3   OH2 7687   2.140   2.307   9.872
13539TIP3    H1 7688   2.099   2.221   9.851
13539TIP3    H2 7689   2.093   2.366   9.809
13540TIP3   OH2 7690   3.246   2.394   9.744
13540TIP3    H1 7691   3.186   2.454   9.694
13540TIP3    H2 7692   3.187   2.360   9.814
13541TIP3   OH2 7693   3.113   3.181   9.454
13541TIP3    H1 7694   3.135   3.258   9.507
13541TIP3    H2 7695   3.195   3.174   9.398
13542TIP3   OH2 7696   2.138   3.299   9.653
13542TIP3    H1 7697   2.230   3.328   9.635
13542TIP3    H2 7698   2.114   3.373   9.713
13543TIP3   OH2 7699   2.160   2.119   9.553
13543TIP3    H1 7700   2.238   2.144   9.606
13543TIP3    H2 7701   2.087   2.156   9.605
13544TIP3   OH2 7702   2.848   1.940   9.789
13544TIP3    H1 7703   2.875   1.847   9.788
13544TIP3    H2 7704   2.933   1.984   9.763
13545TIP3   OH2 7705   2.297   3.474  10.009
13545TIP3    H1 7706   2.291   3.399  10.070
13545TIP3    H2 7707   2.226   3.533  10.044
13546TIP3   OH2 7708   2.170   3.243  10.187
13546TIP3    H1 7709   2.207   3.186  10.255
13546TIP3    H2 7710   2.201   3.199  10.105
13547TIP3   OH2 7711   2.043   3.129   9.298
13547TIP3    H1 7712   2.033   3.056   9.364
13547TIP3    H2 7713   2.020   3.206   9.355
13548TIP3   OH2 7714   2.564   2.833  10.330
13548TIP3    H1 7715   2.654   2.869  10.342
13548TIP3    H2 7716   2.515   2.901  10.379
13549TIP3   OH2 7717   2.573   2.612  10.645
13549TIP3    H1 7718   2.513   2.664  10.590
13549TIP3    H2 7719   2.539   2.522  10.628
13550TIP3   OH2 7720   1.837   2.781   9.508
13550TIP3    H1 7721   1.905   2.849   9.518
13550TIP3    H2 7722   1.768   2.814   9.570
13551TIP3   OH2 7723   2.207   2.818  10.215
13551TIP3    H1 7724   2.281   2.854  10.161
13551TIP3    H2 7725   2.154   2.771  10.148
13552TIP3   OH2 7726   2.243   2.690   9.323
13552TIP3    H1 7727   2.238   2.782   9.294
13552TIP3    H2 7728   2.316   2.699   9.388
13553TIP3   OH2 7729   3.089   2.887  10.047
13553TIP3    H1 7730   3.111   2.844  10.132
13553TIP3    H2 7731   3.020   2.827  10.011
13554TIP3   OH2 7732   2.945   3.231   9.784
13554TIP3    H1 7733   2.927   3.218   9.878
13554TIP3    H2 7734   2.869   3.187   9.740
13555TIP3   OH2 7735   3.068   2.749   9.678
13555TIP3    H1 7736   3.041   2.759   9.772
13555TIP3    H2 7737   3.027   2.828   9.635
13556TIP3   OH2 7738   2.391   3.353   9.610
13556TIP3    H1 7739   2.448   3.408   9.554
13556TIP3    H2 7740   2.410   3.263   9.576
13557TIP3   OH2 7741   2.956   3.213   9.239
13557TIP3    H1 7742   3.028   3.261   9.192
13557TIP3    H2 7743   2.999   3.198   9.326
13558TIP3   OH2 7744   2.289   2.752  10.460
13558TIP3    H1 7745   2.264   2.767  10.366
13558TIP3    H2 7746   2.271   2.842  10.491
13559TIP3   OH2 7747   3.248   2.839   9.334
13559TIP3    H1 7748   3.233   2.920   9.283
13559TIP3    H2 7749   3.320   2.802   9.281
13560TIP3   OH2 7750   2.611   3.461  10.116
13560TIP3    H1 7751   2.565   3.526  10.061
13560TIP3    H2 7752   2.647   3.519  10.185
13561TIP3   OH2 7753   3.126   3.388   9.126
13561TIP3    H1 7754   3.136   3.427   9.215
13561TIP3    H2 7755   3.219   3.363   9.109
13562TIP3   OH2 7756   3.162   2.773  10.311
13562TIP3    H1 7757   3.200   2.860  10.342
13562TIP3    H2 7758   3.233   2.713  10.337
13563TIP3   OH2 7759   3.541   3.052   9.390
13563TIP3    H1 7760   3.585   3.041   9.476
13563TIP3    H2 7761   3.516   2.959   9.374
13564TIP3   OH2 7762   3.588   3.322   9.732
13564TIP3    H1 7763   3.498   3.298   9.761
13564TIP3    H2 7764   3.568   3.389   9.665
13565TIP3   OH2 7765   1.783   3.395   9.144
13565TIP3    H1 7766   1.790   3.298   9.140
13565TIP3    H2 7767   1.867   3.420   9.097
13566TIP3   OH2 7768   2.702   3.328   9.242
13566TIP3    H1 7769   2.682   3.400   9.178
13566TIP3    H2 7770   2.796   3.305   9.223
13567TIP3   OH2 7771   2.629   3.720  10.287
13567TIP3    H1 7772   2.620   3.737  10.383
13567TIP3    H2 7773   2.636   3.810  10.250
13568TIP3   OH2 7774   3.267   3.609  10.084
13568TIP3    H1 7775   3.235   3.568  10.000
13568TIP3    H2 7776   3.347   3.555  10.100
13569TIP3   OH2 7777   2.361   3.611  10.564
13569TIP3    H1 7778   2.337   3.643  10.653
13569TIP3    H2 7779   2.388   3.520  10.588
13570TIP3   OH2 7780   2.371   3.637  10.246
13570TIP3    H1 7781   2.465   3.659  10.259
13570TIP3    H2 7782   2.368   3.546  10.278
13571TIP3   OH2 7783   2.089   2.523   9.108
13571TIP3    H1 7784   2.141   2.563   9.181
13571TIP3    H2 7785   2.084   2.430   9.140
13572TIP3   OH2 7786   3.324   3.183   9.294
13572TIP3    H1 7787   3.323   3.141   9.206
13572TIP3    H2 7788   3.412   3.156   9.328
13573TIP3   OH2 7789   3.068   2.058   9.709
13573TIP3    H1 7790   3.154   2.032   9.749
13573TIP3    H2 7791   3.097   2.109   9.631
13574TIP3   OH2 7792   2.575   2.002   9.392
13574TIP3    H1 7793   2.534   1.958   9.314
13574TIP3    H2 7794   2.670   2.001   9.365
13575TIP3   OH2 7795   2.309   2.414   9.307
13575TIP3    H1 7796   2.348   2.376   9.224
13575TIP3    H2 7797   2.355   2.499   9.313
13576TIP3   OH2 7798   3.065   2.503   9.581
13576TIP3    H1 7799   3.138   2.517   9.517
13576TIP3    H2 7800   3.060   2.595   9.619
13577TIP3   OH2 7801   3.085   2.531  10.092
13577TIP3    H1 7802   3.179   2.510  10.111
13577TIP3    H2 7803   3.058   2.569  10.177
13578TIP3   OH2 7804   2.532   2.587  10.226
13578TIP3    H1 7805   2.540   2.681  10.255
13578TIP3    H2 7806   2.468   2.549  10.291
13579TIP3   OH2 7807   2.619   2.629   9.067
13579TIP3    H1 7808   2.657   2.548   9.028
13579TIP3    H2 7809   2.535   2.632   9.016
13580TIP3   OH2 7810   2.445   2.555   9.915
13580TIP3    H1 7811   2.438   2.637   9.967
13580TIP3    H2 7812   2.437   2.488   9.986
13581TIP3   OH2 7813   3.318   2.536   9.455
13581TIP3    H1 7814   3.275   2.579   9.379
13581TIP3    H2 7815   3.345   2.450   9.416
13582TIP3   OH2 7816   3.609   2.251   9.981
13582TIP3    H1 7817   3.538   2.249   9.915
13582TIP3    H2 7818   3.567   2.272  10.066
13583TIP3   OH2 7819   2.502   2.693   9.489
13583TIP3    H1 7820   2.447   2.622   9.531
13583TIP3    H2 7821   2.562   2.641   9.430
13584TIP3   OH2 7822   2.788   2.286   9.983
13584TIP3    H1 7823   2.883   2.284   9.963
13584TIP3    H2 7824   2.748   2.255   9.902
13585TIP3   OH2 7825   3.338   2.453  10.112
13585TIP3    H1 7826   3.414   2.480  10.169
13585TIP3    H2 7827   3.315   2.362  10.139
13586TIP3   OH2 7828   2.996   2.459  10.360
13586TIP3    H1 7829   2.903   2.451  10.329
13586TIP3    H2 7830   2.985   2.509  10.442
13587TIP3   OH2 7831   2.376   2.225   9.678
13587TIP3    H1 7832   2.451   2.210   9.618
13587TIP3    H2 7833   2.403   2.172   9.756
13588TIP3   OH2 7834   2.080   3.776   9.011
13588TIP3    H1 7835   2.048   3.811   9.096
13588TIP3    H2 7836   2.001   3.793   8.955
13589TIP3   OH2 7837   3.287   3.003   9.074
13589TIP3    H1 7838   3.230   3.016   8.994
13589TIP3    H2 7839   3.375   3.002   9.032
13590TIP3   OH2 7840   2.740   2.567   9.829
13590TIP3    H1 7841   2.651   2.537   9.855
13590TIP3    H2 7842   2.775   2.488   9.784
13591TIP3   OH2 7843   3.222   2.170  10.165
13591TIP3    H1 7844   3.291   2.118  10.118
13591TIP3    H2 7845   3.164   2.098  10.195
13592TIP3   OH2 7846   2.827   2.378   9.571
13592TIP3    H1 7847   2.907   2.432   9.588
13592TIP3    H2 7848   2.772   2.440   9.521
13593TIP3   OH2 7849   2.775   2.989  10.373
13593TIP3    H1 7850   2.853   2.937  10.404
13593TIP3    H2 7851   2.813   3.041  10.298
13594TIP3   OH2 7852   2.025   2.975   9.511
13594TIP3    H1 7853   1.978   3.024   9.584
13594TIP3    H2 7854   2.113   2.969   9.551
13595TIP3   OH2 7855   2.653   3.059   9.291
13595TIP3    H1 7856   2.667   3.023   9.203
13595TIP3    H2 7857   2.679   3.152   9.278
13596TIP3   OH2 7858   2.357   2.494  10.408
13596TIP3    H1 7859   2.280   2.483  10.348
13596TIP3    H2 7860   2.338   2.582  10.447
13597TIP3   OH2 7861   3.239   2.975   9.806
13597TIP3    H1 7862   3.182   2.954   9.882
13597TIP3    H2 7863   3.250   2.890   9.761
13598TIP3   OH2 7864   2.579   3.161  10.436
13598TIP3    H1 7865   2.617   3.249  10.458
13598TIP3    H2 7866   2.655   3.101  10.426
13599TIP3   OH2 7867   3.567   2.799   9.273
13599TIP3    H1 7868   3.575   2.736   9.198
13599TIP3    H2 7869   3.617   2.754   9.343
13600TIP3   OH2 7870   2.867   2.758   9.104
13600TIP3    H1 7871   2.894   2.692   9.167
13600TIP3    H2 7872   2.772   2.737   9.095
13601TIP3   OH2 7873   2.361   3.282   9.241
13601TIP3    H1 7874   2.430   3.303   9.304
13601TIP3    H2 7875   2.389   3.338   9.166
13602TIP3   OH2 7876   1.892   2.559  10.377
13602TIP3    H1 7877   1.886   2.567  10.473
13602TIP3    H2 7878   1.851   2.642  10.343
13603TIP3   OH2 7879   1.791   3.120   9.175
13603TIP3    H1 7880   1.882   3.121   9.213
13603TIP3    H2 7881   1.739   3.103   9.257
13604TIP3   OH2 7882   1.933   3.357  10.432
13604TIP3    H1 7883   1.970   3.302  10.360
13604TIP3    H2 7884   2.012   3.388  10.478
13605TIP3   OH2 7885   2.252   2.886   9.705
13605TIP3    H1 7886   2.347   2.874   9.721
13605TIP3    H2 7887   2.213   2.811   9.753
13606TIP3   OH2 7888   3.037   3.313  10.081
13606TIP3    H1 7889   3.006   3.399  10.119
13606TIP3    H2 7890   3.132   3.323  10.093
13607TIP3   OH2 7891   2.885   3.087  10.138
13607TIP3    H1 7892   2.926   3.175  10.124
13607TIP3    H2 7893   2.939   3.030  10.082
13608TIP3   OH2 7894   2.833   3.505   9.434
13608TIP3    H1 7895   2.768   3.571   9.463
13608TIP3    H2 7896   2.781   3.461   9.363
13609TIP3   OH2 7897   3.011   3.565  10.179
13609TIP3    H1 7898   3.102   3.587  10.154
13609TIP3    H2 7899   2.967   3.650  10.159
13610TIP3   OH2 7900   2.511   3.086   9.524
13610TIP3    H1 7901   2.548   3.065   9.434
13610TIP3    H2 7902   2.482   3.000   9.556
13611TIP3   OH2 7903   2.186   3.561   9.272
13611TIP3    H1 7904   2.270   3.516   9.295
13611TIP3    H2 7905   2.174   3.623   9.347
13612TIP3   OH2 7906   3.364   2.295   9.323
13612TIP3    H1 7907   3.437   2.334   9.271
13612TIP3    H2 7908   3.384   2.201   9.308
13613TIP3   OH2 7909   3.427   3.452   9.505
13613TIP3    H1 7910   3.354   3.391   9.485
13613TIP3    H2 7911   3.428   3.506   9.425
13614TIP3   OH2 7912   3.275   2.984  10.443
13614TIP3    H1 7913   3.345   3.046  10.419
13614TIP3    H2 7914   3.239   3.024  10.524
13615TIP3   OH2 7915   2.532   2.277   9.423
13615TIP3    H1 7916   2.443   2.299   9.389
13615TIP3    H2 7917   2.545   2.184   9.399
13616TIP3   OH2 7918   2.449   2.187  10.280
13616TIP3    H1 7919   2.447   2.268  10.335
13616TIP3    H2 7920   2.390   2.214  10.205
13617TIP3   OH2 7921   2.654   3.427  10.490
13617TIP3    H1 7922   2.744   3.451  10.461
13617TIP3    H2 7923   2.635   3.487  10.564
13618TIP3   OH2 7924   2.737   2.405  10.265
13618TIP3    H1 7925   2.663   2.468  10.250
13618TIP3    H2 7926   2.752   2.367  10.177
13619TIP3   OH2 7927   2.637   2.531   9.321
13619TIP3    H1 7928   2.635   2.550   9.224
13619TIP3    H2 7929   2.606   2.439   9.331
13620TIP3   OH2 7930   2.627   2.053  10.115
13620TIP3    H1 7931   2.684   2.132  10.106
13620TIP3    H2 7932   2.548   2.094  10.158
13621TIP3   OH2 7933   2.920   3.494  10.437
13621TIP3    H1 7934   2.907   3.585  10.474
13621TIP3    H2 7935   2.962   3.517  10.351
13622TIP3   OH2 7936   3.055   2.237  10.493
13622TIP3    H1 7937   3.055   2.304  10.421
13622TIP3    H2 7938   2.987   2.176  10.458
13623TIP3   OH2 7939   2.074   2.294   9.243
13623TIP3    H1 7940   2.164   2.325   9.267
13623TIP3    H2 7941   2.030   2.290   9.330
13624TIP3   OH2 7942   2.170   2.627   9.852
13624TIP3    H1 7943   2.243   2.571   9.821
13624TIP3    H2 7944   2.097   2.598   9.794
13625TIP3   OH2 7945   2.102   3.573   9.690
13625TIP3    H1 7946   2.092   3.635   9.765
13625TIP3    H2 7947   2.010   3.568   9.661
13626TIP3   OH2 7948   3.324   1.988   9.778
13626TIP3    H1 7949   3.327   1.978   9.875
13626TIP3    H2 7950   3.360   1.901   9.750
13627TIP3   OH2 7951   3.443   3.413  10.158
13627TIP3    H1 7952   3.535   3.437  10.143
13627TIP3    H2 7953   3.428   3.432  10.252
13628TIP3   OH2 7954   3.537   3.682   9.046
13628TIP3    H1 7955   3.470   3.666   8.974
13628TIP3    H2 7956   3.569   3.591   9.056
13629TIP3   OH2 7957   3.033   3.507   8.868
13629TIP3    H1 7958   2.940   3.477   8.873
13629TIP3    H2 7959   3.071   3.459   8.943
13630TIP3   OH2 7960   2.423   3.413   9.015
13630TIP3    H1 7961   2.444   3.323   8.980
13630TIP3    H2 7962   2.333   3.423   8.975
13631TIP3   OH2 7963   3.541   3.026   8.962
13631TIP3    H1 7964   3.585   2.939   8.956
13631TIP3    H2 7965   3.582   3.064   9.043
13632TIP3   OH2 7966   2.873   3.022   9.063
13632TIP3    H1 7967   2.899   3.082   9.136
13632TIP3    H2 7968   2.877   2.932   9.103
13633TIP3   OH2 7969   2.288   3.015   9.258
13633TIP3    H1 7970   2.201   3.062   9.260
13633TIP3    H2 7971   2.342   3.095   9.241
13634TIP3   OH2 7972   3.406   2.730   9.003
13634TIP3    H1 7973   3.320   2.687   9.000
13634TIP3    H2 7974   3.397   2.794   8.929
13635TIP3   OH2 7975   2.965   2.846  10.501
13635TIP3    H1 7976   3.025   2.802  10.437
13635TIP3    H2 7977   2.946   2.776  10.566
13636TIP3   OH2 7978   3.077   2.640   9.337
13636TIP3    H1 7979   3.134   2.719   9.331
13636TIP3    H2 7980   3.000   2.679   9.382
13637TIP3   OH2 7981   2.833   2.694  10.714
13637TIP3    H1 7982   2.863   2.606  10.739
13637TIP3    H2 7983   2.742   2.675  10.684
13638TIP3   OH2 7984   2.511   2.927   8.937
13638TIP3    H1 7985   2.450   2.882   8.998
13638TIP3    H2 7986   2.537   2.856   8.876
13639TIP3   OH2 7987   2.950   2.432   9.205
13639TIP3    H1 7988   2.938   2.359   9.270
13639TIP3    H2 7989   2.976   2.507   9.263
13640TIP3   OH2 7990   2.944   2.218   9.395
13640TIP3    H1 7991   2.905   2.258   9.476
13640TIP3    H2 7992   3.038   2.213   9.423
13641TIP3   OH2 7993   2.828   2.799   9.405
13641TIP3    H1 7994   2.742   2.826   9.439
13641TIP3    H2 7995   2.885   2.870   9.441
13642TIP3   OH2 7996   2.416   2.567   8.886
13642TIP3    H1 7997   2.405   2.481   8.838
13642TIP3    H2 7998   2.324   2.592   8.902
13643TIP3   OH2 7999   2.229   2.868   9.039
13643TIP3    H1 8000   2.266   2.910   9.120
13643TIP3    H2 8001   2.140   2.845   9.070
13644TIP3   OH2 8002   3.137   2.488   8.992
13644TIP3    H1 8003   3.213   2.434   9.025
13644TIP3    H2 8004   3.079   2.489   9.070
13645TIP3   OH2 8005   2.854   1.970   9.380
13645TIP3    H1 8006   2.886   2.063   9.375
13645TIP3    H2 8007   2.931   1.928   9.421
13646TIP3   OH2 8008   2.746   2.390   8.976
13646TIP3    H1 8009   2.815   2.377   8.908
13646TIP3    H2 8010   2.802   2.383   9.056
13647TIP3   OH2 8011   2.465   2.339   9.097
13647TIP3    H1 8012   2.558   2.332   9.074
13647TIP3    H2 8013   2.430   2.280   9.026
13648TIP3   OH2 8014   2.377   2.163   8.922
13648TIP3    H1 8015   2.328   2.081   8.905
13648TIP3    H2 8016   2.363   2.217   8.841
13649TIP3   OH2 8017   3.341   2.315   8.996
13649TIP3    H1 8018   3.348   2.229   9.040
13649TIP3    H2 8019   3.349   2.288   8.901
13650TIP3   OH2 8020   2.882   1.904   9.110
13650TIP3    H1 8021   2.824   1.825   9.102
13650TIP3    H2 8022   2.874   1.919   9.207
13651TIP3   OH2 8023   2.887   2.017   8.845
13651TIP3    H1 8024   2.887   1.971   8.932
13651TIP3    H2 8025   2.886   2.109   8.876
13652TIP3   OH2 8026   2.889   3.744  10.541
13652TIP3    H1 8027   2.794   3.762  10.556
13652TIP3    H2 8028   2.917   3.722  10.631
13653TIP3   OH2 8029   3.647   3.731  10.133
13653TIP3    H1 8030   3.709   3.669  10.176
13653TIP3    H2 8031   3.610   3.675  10.061
13654TIP3   OH2 8032   3.563   3.565   9.938
13654TIP3    H1 8033   3.628   3.532   9.874
13654TIP3    H2 8034   3.488   3.583   9.877
13655TIP3   OH2 8035   1.811   3.647   9.678
13655TIP3    H1 8036   1.786   3.648   9.584
13655TIP3    H2 8037   1.732   3.686   9.717
13656TIP3   OH2 8038   1.853   3.585   9.363
13656TIP3    H1 8039   1.887   3.505   9.409
13656TIP3    H2 8040   1.830   3.547   9.277
13657TIP3   OH2 8041   1.979   3.165   8.878
13657TIP3    H1 8042   2.070   3.174   8.841
13657TIP3    H2 8043   1.941   3.251   8.848
13658TIP3   OH2 8044   1.897   3.001  10.343
13658TIP3    H1 8045   1.810   3.045  10.335
13658TIP3    H2 8046   1.900   2.946  10.261
13659TIP3   OH2 8047   1.847   2.819  10.143
13659TIP3    H1 8048   1.921   2.755  10.126
13659TIP3    H2 8049   1.814   2.833  10.052
13660TIP3   OH2 8050   1.873   3.087   9.696
13660TIP3    H1 8051   1.797   3.024   9.703
13660TIP3    H2 8052   1.836   3.172   9.726
13661TIP3   OH2 8053   1.988   3.369   9.443
13661TIP3    H1 8054   2.066   3.403   9.396
13661TIP3    H2 8055   2.029   3.335   9.526
13662TIP3   OH2 8056   1.981   2.521  10.694
13662TIP3    H1 8057   1.900   2.556  10.734
13662TIP3    H2 8058   1.955   2.432  10.670
13663TIP3   OH2 8059   2.034   2.636  10.089
13663TIP3    H1 8060   2.066   2.552  10.129
13663TIP3    H2 8061   2.076   2.635  10.001
13664TIP3   OH2 8062   3.563   2.896   9.681
13664TIP3    H1 8063   3.561   2.867   9.776
13664TIP3    H2 8064   3.474   2.864   9.654
13665TIP3   OH2 8065   1.947   2.857   9.126
13665TIP3    H1 8066   1.908   2.766   9.127
13665TIP3    H2 8067   1.873   2.908   9.164
13666TIP3   OH2 8068   1.843   2.597   9.091
13666TIP3    H1 8069   1.934   2.560   9.095
13666TIP3    H2 8070   1.785   2.517   9.081
13667TIP3   OH2 8071   2.124   2.431  10.263
13667TIP3    H1 8072   2.090   2.342  10.239
13667TIP3    H2 8073   2.042   2.471  10.300
13668TIP3   OH2 8074   2.001   2.476   9.707
13668TIP3    H1 8075   1.902   2.487   9.706
13668TIP3    H2 8076   2.019   2.487   9.612
13669TIP3   OH2 8077   2.003   2.561   9.449
13669TIP3    H1 8078   2.090   2.586   9.414
13669TIP3    H2 8079   1.961   2.648   9.468
13670TIP3   OH2 8080   3.564   2.392   9.107
13670TIP3    H1 8081   3.483   2.373   9.055
13670TIP3    H2 8082   3.615   2.308   9.093
13671TIP3   OH2 8083   1.796   1.987   8.930
13671TIP3    H1 8084   1.747   1.916   8.977
13671TIP3    H2 8085   1.798   2.057   8.999
13672TIP3   OH2 8086   2.030   2.180  10.227
13672TIP3    H1 8087   1.983   2.134  10.153
13672TIP3    H2 8088   2.067   2.104  10.273
13673TIP3   OH2 8089   3.466   2.225   9.741
13673TIP3    H1 8090   3.422   2.137   9.746
13673TIP3    H2 8091   3.391   2.287   9.750
13674TIP3   OH2 8092   3.629   2.536   9.685
13674TIP3    H1 8093   3.564   2.501   9.749
13674TIP3    H2 8094   3.592   2.626   9.674
13675TIP3   OH2 8095   1.860   2.198   9.076
13675TIP3    H1 8096   1.928   2.220   9.010
13675TIP3    H2 8097   1.915   2.170   9.152
13676TIP3   OH2 8098   3.612   2.205  10.269
13676TIP3    H1 8099   3.709   2.206  10.264
13676TIP3    H2 8100   3.600   2.193  10.364
13677TIP3   OH2 8101   2.125   3.667  10.073
13677TIP3    H1 8102   2.052   3.642  10.133
13677TIP3    H2 8103   2.083   3.711   9.997
13678TIP3   OH2 8104   3.604   2.017   9.446
13678TIP3    H1 8105   3.673   1.979   9.389
13678TIP3    H2 8106   3.650   2.086   9.496
13679TIP3   OH2 8107   3.388   3.329   9.050
13679TIP3    H1 8108   3.471   3.370   9.078
13679TIP3    H2 8109   3.412   3.292   8.964
13680TIP3   OH2 8110   3.108   3.474   9.388
13680TIP3    H1 8111   3.102   3.567   9.420
13680TIP3    H2 8112   3.012   3.453   9.391
13681TIP3   OH2 8113   2.682   3.588   9.136
13681TIP3    H1 8114   2.675   3.586   9.039
13681TIP3    H2 8115   2.592   3.617   9.161
13682TIP3   OH2 8116   2.464   3.765   9.179
13682TIP3    H1 8117   2.381   3.723   9.207
13682TIP3    H2 8118   2.438   3.808   9.095
13683TIP3   OH2 8119   1.952   1.950   9.277
13683TIP3    H1 8120   2.031   1.989   9.317
13683TIP3    H2 8121   1.950   1.860   9.313
13684TIP3   OH2 8122   3.359   3.787   9.429
13684TIP3    H1 8123   3.439   3.817   9.476
13684TIP3    H2 8124   3.374   3.824   9.341
13685TIP3   OH2 8125   3.108   3.732   9.520
13685TIP3    H1 8126   3.200   3.752   9.491
13685TIP3    H2 8127   3.097   3.795   9.595
13686TIP3   OH2 8128   2.653   3.689   9.562
13686TIP3    H1 8129   2.715   3.729   9.625
13686TIP3    H2 8130   2.622   3.769   9.514
13687TIP3   OH2 8131   2.441   3.567   9.442
13687TIP3    H1 8132   2.509   3.611   9.498
13687TIP3    H2 8133   2.364   3.621   9.467
13688TIP3   OH2 8134   2.187   3.732   9.479
13688TIP3    H1 8135   2.176   3.822   9.518
13688TIP3    H2 8136   2.158   3.680   9.556
13689TIP3   OH2 8137   3.400   3.616   9.720
13689TIP3    H1 8138   3.419   3.553   9.646
13689TIP3    H2 8139   3.309   3.589   9.745
13690TIP3   OH2 8140   3.173   3.514   9.839
13690TIP3    H1 8141   3.180   3.419   9.815
13690TIP3    H2 8142   3.083   3.533   9.804
13691TIP3   OH2 8143   2.935   3.526   9.725
13691TIP3    H1 8144   2.913   3.431   9.729
13691TIP3    H2 8145   2.928   3.543   9.630
13692TIP3   OH2 8146   2.565   2.095   9.847
13692TIP3    H1 8147   2.649   2.090   9.800
13692TIP3    H2 8148   2.587   2.047   9.928
13693TIP3   OH2 8149   2.075   1.900   9.862
13693TIP3    H1 8150   2.016   1.966   9.907
13693TIP3    H2 8151   2.165   1.934   9.886
13694TIP3   OH2 8152   1.916   2.052  10.021
13694TIP3    H1 8153   1.854   1.986  10.062
13694TIP3    H2 8154   1.853   2.124   9.998
13695TIP3   OH2 8155   3.370   1.985  10.049
13695TIP3    H1 8156   3.464   1.973  10.074
13695TIP3    H2 8157   3.335   1.894  10.067
13696TIP3   OH2 8158   2.933   1.931  10.083
13696TIP3    H1 8159   2.892   1.986  10.151
13696TIP3    H2 8160   2.881   1.951  10.004
13697TIP3   OH2 8161   2.330   1.964   9.942
13697TIP3    H1 8162   2.386   1.993  10.015
13697TIP3    H2 8163   2.387   1.894   9.902
13698TIP3   OH2 8164   2.141   1.931  10.341
13698TIP3    H1 8165   2.199   2.005  10.321
13698TIP3    H2 8166   2.208   1.859  10.333
13699TIP3   OH2 8167   3.489   3.561  10.425
13699TIP3    H1 8168   3.574   3.561  10.378
13699TIP3    H2 8169   3.483   3.657  10.446
13700TIP3   OH2 8170   2.830   2.131  10.357
13700TIP3    H1 8171   2.745   2.093  10.332
13700TIP3    H2 8172   2.798   2.220  10.384
13701TIP3   OH2 8173   2.610   3.728  10.600
13701TIP3    H1 8174   2.514   3.706  10.591
13701TIP3    H2 8175   2.624   3.704  10.694
13702TIP3   OH2 8176   1.947   3.583  10.269
13702TIP3    H1 8177   1.946   3.519  10.342
13702TIP3    H2 8178   1.967   3.667  10.319
13703TIP3   OH2 8179   3.396   2.037   9.131
13703TIP3    H1 8180   3.446   1.954   9.114
13703TIP3    H2 8181   3.315   2.024   9.075
13704TIP3   OH2 8182   3.196   1.984   8.942
13704TIP3    H1 8183   3.119   1.930   8.967
13704TIP3    H2 8184   3.245   1.921   8.886
13705TIP3   OH2 8185   3.321   3.689  10.676
13705TIP3    H1 8186   3.359   3.616  10.626
13705TIP3    H2 8187   3.242   3.649  10.718
13706TIP3   OH2 8188   2.334   1.891   8.894
13706TIP3    H1 8189   2.319   1.846   8.809
13706TIP3    H2 8190   2.243   1.889   8.933
13707TIP3   OH2 8191   2.013   3.514   9.072
13707TIP3    H1 8192   2.089   3.503   9.134
13707TIP3    H2 8193   2.027   3.607   9.044
13708TIP3   OH2 8194   0.544   2.906  10.082
13708TIP3    H1 8195   0.545   3.003  10.066
13708TIP3    H2 8196   0.630   2.895  10.126
13709TIP3   OH2 8197   0.694   2.779   9.750
13709TIP3    H1 8198   0.674   2.745   9.661
13709TIP3    H2 8199   0.758   2.714   9.784
13710TIP3   OH2 8200   1.465   2.773   9.598
13710TIP3    H1 8201   1.469   2.699   9.536
13710TIP3    H2 8202   1.381   2.812   9.572
13711TIP3   OH2 8203   0.313   3.133   9.887
13711TIP3    H1 8204   0.265   3.061   9.844
13711TIP3    H2 8205   0.318   3.202   9.818
13712TIP3   OH2 8206   1.364   3.252   9.771
13712TIP3    H1 8207   1.395   3.160   9.781
13712TIP3    H2 8208   1.269   3.233   9.776
13713TIP3   OH2 8209   1.675   2.575  10.188
13713TIP3    H1 8210   1.706   2.665  10.167
13713TIP3    H2 8211   1.753   2.524  10.163
13714TIP3   OH2 8212   1.635   2.814   9.939
13714TIP3    H1 8213   1.593   2.725   9.932
13714TIP3    H2 8214   1.580   2.860  10.004
13715TIP3   OH2 8215   0.608   3.659   9.889
13715TIP3    H1 8216   0.544   3.593   9.927
13715TIP3    H2 8217   0.645   3.607   9.817
13716TIP3   OH2 8218   0.860   3.042   9.653
13716TIP3    H1 8219   0.830   2.987   9.726
13716TIP3    H2 8220   0.774   3.078   9.621
13717TIP3   OH2 8221  -0.009   2.259   9.602
13717TIP3    H1 8222  -0.031   2.355   9.602
13717TIP3    H2 8223  -0.086   2.226   9.652
13718TIP3   OH2 8224   0.527   2.510   9.634
13718TIP3    H1 8225   0.500   2.418   9.614
13718TIP3    H2 8226   0.543   2.506   9.728
13719TIP3   OH2 8227   1.191   2.279   9.961
13719TIP3    H1 8228   1.191   2.366  10.005
13719TIP3    H2 8229   1.250   2.229  10.021
13720TIP3   OH2 8230   0.448   2.345  10.083
13720TIP3    H1 8231   0.396   2.310  10.008
13720TIP3    H2 8232   0.381   2.397  10.130
13721TIP3   OH2 8233   1.559   2.559   9.875
13721TIP3    H1 8234   1.490   2.530   9.813
13721TIP3    H2 8235   1.527   2.516   9.957
13722TIP3   OH2 8236   1.068   2.704   9.902
13722TIP3    H1 8237   0.987   2.660   9.868
13722TIP3    H2 8238   1.110   2.628   9.948
13723TIP3   OH2 8239   1.317   2.197   9.537
13723TIP3    H1 8240   1.359   2.248   9.609
13723TIP3    H2 8241   1.373   2.223   9.461
13724TIP3   OH2 8242   0.611   3.165  10.173
13724TIP3    H1 8243   0.597   3.166  10.269
13724TIP3    H2 8244   0.630   3.258  10.154
13725TIP3   OH2 8245   1.095   2.975   9.554
13725TIP3    H1 8246   1.153   3.052   9.533
13725TIP3    H2 8247   1.014   3.019   9.589
13726TIP3   OH2 8248   0.277   2.311   9.871
13726TIP3    H1 8249   0.264   2.219   9.845
13726TIP3    H2 8250   0.248   2.359   9.790
13727TIP3   OH2 8251   1.352   2.393   9.734
13727TIP3    H1 8252   1.295   2.460   9.691
13727TIP3    H2 8253   1.296   2.365   9.810
13728TIP3   OH2 8254   1.227   3.183   9.453
13728TIP3    H1 8255   1.242   3.271   9.493
13728TIP3    H2 8256   1.309   3.173   9.399
13729TIP3   OH2 8257   1.647   3.117  10.333
13729TIP3    H1 8258   1.662   3.166  10.416
13729TIP3    H2 8259   1.618   3.186  10.272
13730TIP3   OH2 8260   0.288   3.325   9.704
13730TIP3    H1 8261   0.383   3.338   9.683
13730TIP3    H2 8262   0.259   3.418   9.710
13731TIP3   OH2 8263   0.219   2.111   9.552
13731TIP3    H1 8264   0.293   2.135   9.611
13731TIP3    H2 8265   0.149   2.174   9.579
13732TIP3   OH2 8266   0.957   1.943   9.799
13732TIP3    H1 8267   0.985   1.850   9.791
13732TIP3    H2 8268   1.040   1.987   9.765
13733TIP3   OH2 8269   0.447   3.472   9.994
13733TIP3    H1 8270   0.419   3.387  10.034
13733TIP3    H2 8271   0.377   3.531  10.029
13734TIP3   OH2 8272   0.311   3.257  10.155
13734TIP3    H1 8273   0.310   3.180  10.217
13734TIP3    H2 8274   0.287   3.214  10.070
13735TIP3   OH2 8275   0.186   3.126   9.292
13735TIP3    H1 8276   0.185   3.065   9.370
13735TIP3    H2 8277   0.149   3.206   9.333
13736TIP3   OH2 8278   0.730   2.815  10.347
13736TIP3    H1 8279   0.793   2.888  10.353
13736TIP3    H2 8280   0.649   2.854  10.385
13737TIP3   OH2 8281  -0.007   2.761   9.542
13737TIP3    H1 8282   0.057   2.834   9.529
13737TIP3    H2 8283  -0.068   2.805   9.606
13738TIP3   OH2 8284   0.364   2.812  10.249
13738TIP3    H1 8285   0.425   2.850  10.182
13738TIP3    H2 8286   0.298   2.769  10.189
13739TIP3   OH2 8287   0.374   2.650   9.334
13739TIP3    H1 8288   0.378   2.731   9.280
13739TIP3    H2 8289   0.438   2.677   9.401
13740TIP3   OH2 8290   1.202   2.879  10.053
13740TIP3    H1 8291   1.236   2.834  10.134
13740TIP3    H2 8292   1.140   2.812  10.017
13741TIP3   OH2 8293   1.047   3.244   9.769
13741TIP3    H1 8294   1.044   3.224   9.865
13741TIP3    H2 8295   0.991   3.174   9.731
13742TIP3   OH2 8296   1.193   2.766   9.671
13742TIP3    H1 8297   1.157   2.768   9.762
13742TIP3    H2 8298   1.145   2.841   9.629
13743TIP3   OH2 8299   0.535   3.341   9.606
13743TIP3    H1 8300   0.569   3.396   9.534
13743TIP3    H2 8301   0.546   3.251   9.567
13744TIP3   OH2 8302   1.062   3.219   9.239
13744TIP3    H1 8303   1.133   3.269   9.193
13744TIP3    H2 8304   1.107   3.200   9.324
13745TIP3   OH2 8305   0.484   2.800  10.480
13745TIP3    H1 8306   0.446   2.793  10.388
13745TIP3    H2 8307   0.417   2.850  10.525
13746TIP3   OH2 8308   1.358   2.840   9.336
13746TIP3    H1 8309   1.348   2.923   9.286
13746TIP3    H2 8310   1.430   2.802   9.283
13747TIP3   OH2 8311   0.675   3.494  10.169
13747TIP3    H1 8312   0.646   3.485  10.077
13747TIP3    H2 8313   0.758   3.543  10.160
13748TIP3   OH2 8314   1.247   3.392   9.127
13748TIP3    H1 8315   1.256   3.432   9.216
13748TIP3    H2 8316   1.341   3.366   9.111
13749TIP3   OH2 8317   0.077   1.904  10.479
13749TIP3    H1 8318   0.172   1.922  10.464
13749TIP3    H2 8319   0.057   1.970  10.549
13750TIP3   OH2 8320   1.347   2.777  10.257
13750TIP3    H1 8321   1.365   2.862  10.302
13750TIP3    H2 8322   1.375   2.710  10.321
13751TIP3   OH2 8323   9.332   3.404  10.636
13751TIP3    H1 8324   9.285   3.486  10.655
13751TIP3    H2 8325   9.261   3.336  10.638
13752TIP3   OH2 8326   1.661   3.051   9.392
13752TIP3    H1 8327   1.705   3.040   9.478
13752TIP3    H2 8328   1.626   2.961   9.381
13753TIP3   OH2 8329   1.686   3.319   9.732
13753TIP3    H1 8330   1.597   3.289   9.754
13753TIP3    H2 8331   1.666   3.381   9.661
13754TIP3   OH2 8332   0.810   3.338   9.223
13754TIP3    H1 8333   0.808   3.411   9.159
13754TIP3    H2 8334   0.902   3.303   9.220
13755TIP3   OH2 8335   0.808   3.714  10.309
13755TIP3    H1 8336   0.773   3.724  10.400
13755TIP3    H2 8337   0.768   3.791  10.264
13756TIP3   OH2 8338   1.380   3.590  10.081
13756TIP3    H1 8339   1.347   3.572   9.990
13756TIP3    H2 8340   1.467   3.547  10.078
13757TIP3   OH2 8341   0.495   3.629  10.305
13757TIP3    H1 8342   0.581   3.604  10.264
13757TIP3    H2 8343   0.441   3.555  10.273
13758TIP3   OH2 8344   0.197   2.553   9.112
13758TIP3    H1 8345   0.225   2.565   9.204
13758TIP3    H2 8346   0.150   2.469   9.118
13759TIP3   OH2 8347   1.440   3.181   9.295
13759TIP3    H1 8348   1.437   3.141   9.206
13759TIP3    H2 8349   1.528   3.153   9.328
13760TIP3   OH2 8350   1.179   2.047   9.709
13760TIP3    H1 8351   1.264   2.069   9.753
13760TIP3    H2 8352   1.196   2.092   9.624
13761TIP3   OH2 8353   0.695   1.992   9.378
13761TIP3    H1 8354   0.655   1.946   9.301
13761TIP3    H2 8355   0.789   1.992   9.354
13762TIP3   OH2 8356   0.388   2.361   9.315
13762TIP3    H1 8357   0.450   2.347   9.240
13762TIP3    H2 8358   0.379   2.459   9.314
13763TIP3   OH2 8359   0.746   2.276  10.610
13763TIP3    H1 8360   0.792   2.226  10.540
13763TIP3    H2 8361   0.810   2.276  10.682
13764TIP3   OH2 8362   1.167   2.524   9.570
13764TIP3    H1 8363   1.246   2.515   9.514
13764TIP3    H2 8364   1.181   2.616   9.604
13765TIP3   OH2 8365   1.190   2.522  10.072
13765TIP3    H1 8366   1.279   2.556  10.093
13765TIP3    H2 8367   1.160   2.488  10.159
13766TIP3   OH2 8368   0.640   2.586  10.220
13766TIP3    H1 8369   0.669   2.669  10.263
13766TIP3    H2 8370   0.564   2.558  10.275
13767TIP3   OH2 8371   0.745   2.622   9.085
13767TIP3    H1 8372   0.781   2.536   9.053
13767TIP3    H2 8373   0.661   2.624   9.036
13768TIP3   OH2 8374   0.542   2.580   9.924
13768TIP3    H1 8375   0.563   2.662   9.975
13768TIP3    H2 8376   0.533   2.516   9.998
13769TIP3   OH2 8377   1.423   2.530   9.453
13769TIP3    H1 8378   1.393   2.566   9.369
13769TIP3    H2 8379   1.460   2.444   9.423
13770TIP3   OH2 8380   1.731   2.246  10.006
13770TIP3    H1 8381   1.657   2.244   9.944
13770TIP3    H2 8382   1.689   2.228  10.093
13771TIP3   OH2 8383   1.706   2.345  10.468
13771TIP3    H1 8384   1.641   2.385  10.528
13771TIP3    H2 8385   1.739   2.421  10.419
13772TIP3   OH2 8386   0.593   2.733   9.501
13772TIP3    H1 8387   0.556   2.653   9.547
13772TIP3    H2 8388   0.654   2.689   9.439
13773TIP3   OH2 8389   0.891   2.277  10.031
13773TIP3    H1 8390   0.983   2.257  10.005
13773TIP3    H2 8391   0.838   2.256   9.951
13774TIP3   OH2 8392   1.457   2.444  10.089
13774TIP3    H1 8393   1.520   2.476  10.158
13774TIP3    H2 8394   1.427   2.357  10.124
13775TIP3   OH2 8395   1.129   2.459  10.351
13775TIP3    H1 8396   1.033   2.468  10.332
13775TIP3    H2 8397   1.145   2.531  10.414
13776TIP3   OH2 8398   0.446   2.174   9.691
13776TIP3    H1 8399   0.525   2.185   9.636
13776TIP3    H2 8400   0.480   2.120   9.766
13777TIP3   OH2 8401   1.223   2.564  10.595
13777TIP3    H1 8402   1.277   2.495  10.555
13777TIP3    H2 8403   1.209   2.528  10.684
13778TIP3   OH2 8404   0.202   3.763   9.008
13778TIP3    H1 8405   0.173   3.803   9.093
13778TIP3    H2 8406   0.136   3.801   8.947
13779TIP3   OH2 8407   1.403   3.002   9.072
13779TIP3    H1 8408   1.341   3.032   9.002
13779TIP3    H2 8409   1.489   3.005   9.023
13780TIP3   OH2 8410   0.843   2.560   9.832
13780TIP3    H1 8411   0.759   2.531   9.868
13780TIP3    H2 8412   0.878   2.482   9.787
13781TIP3   OH2 8413   1.372   2.194  10.145
13781TIP3    H1 8414   1.404   2.106  10.115
13781TIP3    H2 8415   1.322   2.171  10.225
13782TIP3   OH2 8416   0.938   2.377   9.556
13782TIP3    H1 8417   1.010   2.443   9.562
13782TIP3    H2 8418   0.867   2.428   9.513
13783TIP3   OH2 8419   0.909   3.025  10.380
13783TIP3    H1 8420   0.979   2.958  10.378
13783TIP3    H2 8421   0.931   3.071  10.295
13784TIP3   OH2 8422   0.168   2.973   9.501
13784TIP3    H1 8423   0.123   3.034   9.564
13784TIP3    H2 8424   0.238   2.932   9.556
13785TIP3   OH2 8425   0.481   2.311  10.552
13785TIP3    H1 8426   0.575   2.307  10.581
13785TIP3    H2 8427   0.477   2.402  10.515
13786TIP3   OH2 8428   0.759   3.075   9.270
13786TIP3    H1 8429   0.790   3.041   9.185
13786TIP3    H2 8430   0.773   3.171   9.258
13787TIP3   OH2 8431   0.436   2.532  10.406
13787TIP3    H1 8432   0.351   2.511  10.362
13787TIP3    H2 8433   0.419   2.617  10.450
13788TIP3   OH2 8434   1.363   2.976   9.824
13788TIP3    H1 8435   1.323   2.956   9.910
13788TIP3    H2 8436   1.348   2.896   9.773
13789TIP3   OH2 8437   0.669   3.144  10.436
13789TIP3    H1 8438   0.702   3.234  10.420
13789TIP3    H2 8439   0.749   3.095  10.408
13790TIP3   OH2 8440   1.686   2.795   9.269
13790TIP3    H1 8441   1.694   2.728   9.198
13790TIP3    H2 8442   1.732   2.751   9.343
13791TIP3   OH2 8443   0.975   2.762   9.108
13791TIP3    H1 8444   1.017   2.704   9.174
13791TIP3    H2 8445   0.884   2.723   9.104
13792TIP3   OH2 8446   0.480   3.287   9.258
13792TIP3    H1 8447   0.569   3.307   9.289
13792TIP3    H2 8448   0.486   3.317   9.166
13793TIP3   OH2 8449   0.101   3.395  10.387
13793TIP3    H1 8450   0.160   3.320  10.374
13793TIP3    H2 8451   0.063   3.382  10.476
13794TIP3   OH2 8452   0.349   2.857   9.650
13794TIP3    H1 8453   0.444   2.848   9.634
13794TIP3    H2 8454   0.339   2.808   9.734
13795TIP3   OH2 8455   1.156   3.305  10.045
13795TIP3    H1 8456   1.114   3.393  10.050
13795TIP3    H2 8457   1.226   3.317  10.112
13796TIP3   OH2 8458   1.517   2.812  10.576
13796TIP3    H1 8459   1.466   2.875  10.521
13796TIP3    H2 8460   1.571   2.871  10.629
13797TIP3   OH2 8461   1.006   3.096  10.136
13797TIP3    H1 8462   1.061   3.172  10.106
13797TIP3    H2 8463   1.042   3.024  10.082
13798TIP3   OH2 8464   0.951   3.507   9.420
13798TIP3    H1 8465   0.888   3.570   9.456
13798TIP3    H2 8466   0.894   3.458   9.358
13799TIP3   OH2 8467   1.125   3.551  10.171
13799TIP3    H1 8468   1.220   3.565  10.151
13799TIP3    H2 8469   1.093   3.643  10.173
13800TIP3   OH2 8470   0.630   3.088   9.518
13800TIP3    H1 8471   0.664   3.068   9.427
13800TIP3    H2 8472   0.594   3.002   9.546
13801TIP3   OH2 8473   0.353   3.556   9.264
13801TIP3    H1 8474   0.420   3.497   9.306
13801TIP3    H2 8475   0.312   3.604   9.340
13802TIP3   OH2 8476   1.479   2.297   9.323
13802TIP3    H1 8477   1.550   2.336   9.267
13802TIP3    H2 8478   1.483   2.205   9.292
13803TIP3   OH2 8479   0.276   3.051  10.325
13803TIP3    H1 8480   0.319   2.965  10.302
13803TIP3    H2 8481   0.204   3.021  10.382
13804TIP3   OH2 8482   1.543   3.455   9.509
13804TIP3    H1 8483   1.474   3.391   9.483
13804TIP3    H2 8484   1.550   3.509   9.429
13805TIP3   OH2 8485   1.102   3.263  10.500
13805TIP3    H1 8486   1.021   3.223  10.464
13805TIP3    H2 8487   1.081   3.357  10.491
13806TIP3   OH2 8488   1.397   2.996  10.418
13806TIP3    H1 8489   1.482   3.035  10.390
13806TIP3    H2 8490   1.357   3.072  10.465
13807TIP3   OH2 8491   0.628   2.259   9.408
13807TIP3    H1 8492   0.535   2.269   9.380
13807TIP3    H2 8493   0.642   2.163   9.397
13808TIP3   OH2 8494   0.574   2.236  10.297
13808TIP3    H1 8495   0.521   2.263  10.374
13808TIP3    H2 8496   0.535   2.293  10.227
13809TIP3   OH2 8497   0.819   3.400  10.440
13809TIP3    H1 8498   0.833   3.476  10.380
13809TIP3    H2 8499   0.749   3.434  10.497
13810TIP3   OH2 8500   0.868   2.434  10.273
13810TIP3    H1 8501   0.786   2.485  10.252
13810TIP3    H2 8502   0.875   2.377  10.193
13811TIP3   OH2 8503   0.746   2.524   9.348
13811TIP3    H1 8504   0.741   2.553   9.254
13811TIP3    H2 8505   0.703   2.436   9.347
13812TIP3   OH2 8506   0.769   2.085  10.181
13812TIP3    H1 8507   0.813   2.149  10.121
13812TIP3    H2 8508   0.691   2.138  10.211
13813TIP3   OH2 8509   1.206   2.194  10.417
13813TIP3    H1 8510   1.197   2.290  10.424
13813TIP3    H2 8511   1.112   2.167  10.421
13814TIP3   OH2 8512   0.140   2.263   9.253
13814TIP3    H1 8513   0.232   2.277   9.283
13814TIP3    H2 8514   0.092   2.278   9.334
13815TIP3   OH2 8515   0.297   2.678   9.857
13815TIP3    H1 8516   0.387   2.641   9.870
13815TIP3    H2 8517   0.255   2.610   9.801
13816TIP3   OH2 8518   1.368   3.210  10.600
13816TIP3    H1 8519   1.277   3.235  10.575
13816TIP3    H2 8520   1.363   3.225  10.696
13817TIP3   OH2 8521   1.639   2.560  10.644
13817TIP3    H1 8522   1.610   2.648  10.610
13817TIP3    H2 8523   1.557   2.523  10.678
13818TIP3   OH2 8524   0.155   3.570   9.682
13818TIP3    H1 8525   0.181   3.633   9.753
13818TIP3    H2 8526   0.063   3.594   9.668
13819TIP3   OH2 8527   1.441   1.999   9.779
13819TIP3    H1 8528   1.441   1.980   9.875
13819TIP3    H2 8529   1.467   1.911   9.743
13820TIP3   OH2 8530   1.585   3.376  10.162
13820TIP3    H1 8531   1.664   3.430  10.160
13820TIP3    H2 8532   1.544   3.411  10.243
13821TIP3   OH2 8533   1.648   3.687   9.042
13821TIP3    H1 8534   1.578   3.677   8.973
13821TIP3    H2 8535   1.678   3.595   9.047
13822TIP3   OH2 8536   1.149   3.513   8.855
13822TIP3    H1 8537   1.057   3.481   8.858
13822TIP3    H2 8538   1.187   3.464   8.929
13823TIP3   OH2 8539   0.543   3.415   9.010
13823TIP3    H1 8540   0.558   3.330   8.963
13823TIP3    H2 8541   0.451   3.433   8.980
13824TIP3   OH2 8542   1.660   3.019   8.960
13824TIP3    H1 8543   1.696   2.929   8.964
13824TIP3    H2 8544   1.704   3.062   9.038
13825TIP3   OH2 8545   0.994   3.023   9.060
13825TIP3    H1 8546   1.021   3.081   9.135
13825TIP3    H2 8547   0.984   2.933   9.101
13826TIP3   OH2 8548   0.424   3.014   9.240
13826TIP3    H1 8549   0.337   3.058   9.243
13826TIP3    H2 8550   0.480   3.094   9.248
13827TIP3   OH2 8551   1.521   2.729   9.001
13827TIP3    H1 8552   1.439   2.680   8.990
13827TIP3    H2 8553   1.509   2.798   8.933
13828TIP3   OH2 8554   1.161   2.652   9.320
13828TIP3    H1 8555   1.217   2.732   9.330
13828TIP3    H2 8556   1.087   2.680   9.378
13829TIP3   OH2 8557   0.641   2.916   8.931
13829TIP3    H1 8558   0.575   2.887   8.996
13829TIP3    H2 8559   0.659   2.834   8.882
13830TIP3   OH2 8560   1.059   2.433   9.213
13830TIP3    H1 8561   1.056   2.362   9.280
13830TIP3    H2 8562   1.081   2.512   9.267
13831TIP3   OH2 8563   1.080   2.208   9.407
13831TIP3    H1 8564   1.034   2.259   9.477
13831TIP3    H2 8565   1.174   2.217   9.434
13832TIP3   OH2 8566   0.950   2.791   9.427
13832TIP3    H1 8567   0.865   2.835   9.444
13832TIP3    H2 8568   1.011   2.859   9.461
13833TIP3   OH2 8569   0.466   2.532   8.903
13833TIP3    H1 8570   0.483   2.438   8.891
13833TIP3    H2 8571   0.388   2.531   8.961
13834TIP3   OH2 8572   0.334   2.854   9.049
13834TIP3    H1 8573   0.369   2.910   9.121
13834TIP3    H2 8574   0.239   2.846   9.075
13835TIP3   OH2 8575   1.248   2.500   8.978
13835TIP3    H1 8576   1.322   2.448   9.016
13835TIP3    H2 8577   1.187   2.510   9.053
13836TIP3   OH2 8578   0.973   1.962   9.401
13836TIP3    H1 8579   1.003   2.056   9.394
13836TIP3    H2 8580   1.051   1.922   9.439
13837TIP3   OH2 8581   0.863   2.387   8.991
13837TIP3    H1 8582   0.927   2.375   8.918
13837TIP3    H2 8583   0.922   2.375   9.068
13838TIP3   OH2 8584   0.579   2.310   9.110
13838TIP3    H1 8585   0.668   2.282   9.082
13838TIP3    H2 8586   0.521   2.250   9.059
13839TIP3   OH2 8587   0.418   2.168   8.941
13839TIP3    H1 8588   0.436   2.072   8.929
13839TIP3    H2 8589   0.453   2.206   8.857
13840TIP3   OH2 8590   1.454   2.311   9.003
13840TIP3    H1 8591   1.460   2.226   9.050
13840TIP3    H2 8592   1.468   2.281   8.910
13841TIP3   OH2 8593   1.019   1.902   9.135
13841TIP3    H1 8594   0.939   1.845   9.126
13841TIP3    H2 8595   1.011   1.919   9.232
13842TIP3   OH2 8596   0.996   2.020   8.843
13842TIP3    H1 8597   1.010   1.979   8.931
13842TIP3    H2 8598   1.021   2.113   8.862
13843TIP3   OH2 8599   1.643   3.184  10.623
13843TIP3    H1 8600   1.548   3.190  10.603
13843TIP3    H2 8601   1.634   3.173  10.720
13844TIP3   OH2 8602   1.769   3.736  10.127
13844TIP3    H1 8603   1.840   3.675  10.159
13844TIP3    H2 8604   1.730   3.681  10.056
13845TIP3   OH2 8605   1.683   3.567   9.939
13845TIP3    H1 8606   1.739   3.493   9.913
13845TIP3    H2 8607   1.642   3.592   9.853
13846TIP3   OH2 8608  -0.033   3.586   9.343
13846TIP3    H1 8609   0.027   3.535   9.399
13846TIP3    H2 8610  -0.039   3.527   9.266
13847TIP3   OH2 8611   0.114   3.162   8.882
13847TIP3    H1 8612   0.194   3.185   8.829
13847TIP3    H2 8613   0.069   3.250   8.883
13848TIP3   OH2 8614  -0.017   2.919  10.308
13848TIP3    H1 8615  -0.066   3.001  10.331
13848TIP3    H2 8616   0.031   2.945  10.228
13849TIP3   OH2 8617   9.334   3.107   9.645
13849TIP3    H1 8618   9.276   3.033   9.676
13849TIP3    H2 8619   9.293   3.185   9.689
13850TIP3   OH2 8620   0.123   3.373   9.440
13850TIP3    H1 8621   0.213   3.402   9.418
13850TIP3    H2 8622   0.132   3.350   9.534
13851TIP3   OH2 8623   0.202   2.660  10.110
13851TIP3    H1 8624   0.210   2.564  10.118
13851TIP3    H2 8625   0.219   2.674  10.014
13852TIP3   OH2 8626   1.675   2.896   9.685
13852TIP3    H1 8627   1.678   2.864   9.779
13852TIP3    H2 8628   1.585   2.865   9.661
13853TIP3   OH2 8629   0.070   2.861   9.105
13853TIP3    H1 8630   0.051   2.770   9.134
13853TIP3    H2 8631   0.044   2.915   9.181
13854TIP3   OH2 8632   0.239   2.416  10.247
13854TIP3    H1 8633   0.238   2.317  10.253
13854TIP3    H2 8634   0.145   2.433  10.248
13855TIP3   OH2 8635   0.164   2.497   9.706
13855TIP3    H1 8636   0.066   2.497   9.711
13855TIP3    H2 8637   0.173   2.500   9.609
13856TIP3   OH2 8638   0.129   2.561   9.428
13856TIP3    H1 8639   0.210   2.611   9.407
13856TIP3    H2 8640   0.067   2.631   9.459
13857TIP3   OH2 8641   1.681   2.391   9.102
13857TIP3    H1 8642   1.600   2.373   9.049
13857TIP3    H2 8643   1.736   2.311   9.086
13858TIP3   OH2 8644   0.183   2.155  10.243
13858TIP3    H1 8645   0.150   2.134  10.153
13858TIP3    H2 8646   0.217   2.067  10.272
13859TIP3   OH2 8647   1.587   2.222   9.732
13859TIP3    H1 8648   1.540   2.138   9.748
13859TIP3    H2 8649   1.517   2.288   9.742
13860TIP3   OH2 8650   1.740   2.532   9.682
13860TIP3    H1 8651   1.681   2.500   9.754
13860TIP3    H2 8652   1.702   2.619   9.666
13861TIP3   OH2 8653   1.730   2.154  10.282
13861TIP3    H1 8654   1.822   2.183  10.274
13861TIP3    H2 8655   1.705   2.206  10.361
13862TIP3   OH2 8656   0.256   3.643  10.076
13862TIP3    H1 8657   0.204   3.676  10.153
13862TIP3    H2 8658   0.213   3.689  10.001
13863TIP3   OH2 8659   1.719   2.010   9.456
13863TIP3    H1 8660   1.792   1.976   9.399
13863TIP3    H2 8661   1.758   2.088   9.499
13864TIP3   OH2 8662   1.507   3.335   9.055
13864TIP3    H1 8663   1.594   3.370   9.081
13864TIP3    H2 8664   1.525   3.299   8.968
13865TIP3   OH2 8665   1.217   3.472   9.393
13865TIP3    H1 8666   1.222   3.568   9.415
13865TIP3    H2 8667   1.119   3.462   9.391
13866TIP3   OH2 8668   0.782   3.640   9.138
13866TIP3    H1 8669   0.782   3.622   9.044
13866TIP3    H2 8670   0.687   3.654   9.157
13867TIP3   OH2 8671   0.550   3.772   9.189
13867TIP3    H1 8672   0.476   3.713   9.211
13867TIP3    H2 8673   0.524   3.809   9.102
13868TIP3   OH2 8674   0.112   1.962   9.241
13868TIP3    H1 8675   0.167   2.027   9.289
13868TIP3    H2 8676   0.091   1.898   9.311
13869TIP3   OH2 8677   1.480   3.788   9.419
13869TIP3    H1 8678   1.557   3.821   9.470
13869TIP3    H2 8679   1.497   3.828   9.332
13870TIP3   OH2 8680   1.239   3.735   9.517
13870TIP3    H1 8681   1.330   3.754   9.484
13870TIP3    H2 8682   1.234   3.793   9.594
13871TIP3   OH2 8683   0.746   3.696   9.608
13871TIP3    H1 8684   0.809   3.739   9.667
13871TIP3    H2 8685   0.729   3.768   9.544
13872TIP3   OH2 8686   0.565   3.561   9.441
13872TIP3    H1 8687   0.630   3.597   9.506
13872TIP3    H2 8688   0.492   3.624   9.456
13873TIP3   OH2 8689   0.267   3.702   9.479
13873TIP3    H1 8690   0.276   3.792   9.518
13873TIP3    H2 8691   0.222   3.658   9.554
13874TIP3   OH2 8692   1.514   3.620   9.721
13874TIP3    H1 8693   1.531   3.556   9.647
13874TIP3    H2 8694   1.423   3.593   9.747
13875TIP3   OH2 8695   1.288   3.531   9.834
13875TIP3    H1 8696   1.305   3.437   9.815
13875TIP3    H2 8697   1.195   3.538   9.801
13876TIP3   OH2 8698   1.046   3.517   9.708
13876TIP3    H1 8699   1.021   3.423   9.719
13876TIP3    H2 8700   1.052   3.524   9.612
13877TIP3   OH2 8701   0.725   2.108   9.870
13877TIP3    H1 8702   0.802   2.085   9.816
13877TIP3    H2 8703   0.694   2.021   9.898
13878TIP3   OH2 8704   0.201   1.909   9.832
13878TIP3    H1 8705   0.155   1.972   9.893
13878TIP3    H2 8706   0.295   1.937   9.845
13879TIP3   OH2 8707   0.077   2.053  10.017
13879TIP3    H1 8708   0.014   1.999  10.069
13879TIP3    H2 8709   0.017   2.127   9.989
13880TIP3   OH2 8710   1.460   1.954  10.066
13880TIP3    H1 8711   1.546   1.945  10.110
13880TIP3    H2 8712   1.426   1.862  10.074
13881TIP3   OH2 8713   1.041   1.930  10.076
13881TIP3    H1 8714   0.963   1.976  10.110
13881TIP3    H2 8715   1.025   1.935   9.981
13882TIP3   OH2 8716   0.456   1.980   9.906
13882TIP3    H1 8717   0.453   1.995  10.001
13882TIP3    H2 8718   0.509   1.897   9.901
13883TIP3   OH2 8719   0.319   1.947  10.347
13883TIP3    H1 8720   0.389   2.013  10.344
13883TIP3    H2 8721   0.367   1.865  10.319
13884TIP3   OH2 8722   1.617   3.552  10.378
13884TIP3    H1 8723   1.714   3.546  10.374
13884TIP3    H2 8724   1.605   3.641  10.419
13885TIP3   OH2 8725   1.446   2.234  10.614
13885TIP3    H1 8726   1.418   2.221  10.706
13885TIP3    H2 8727   1.389   2.170  10.570
13886TIP3   OH2 8728   0.906   2.179  10.402
13886TIP3    H1 8729   0.852   2.144  10.328
13886TIP3    H2 8730   0.899   2.275  10.386
13887TIP3   OH2 8731   0.710   3.712  10.569
13887TIP3    H1 8732   0.638   3.774  10.597
13887TIP3    H2 8733   0.705   3.651  10.643
13888TIP3   OH2 8734   0.111   3.660  10.310
13888TIP3    H1 8735   0.103   3.567  10.344
13888TIP3    H2 8736   0.189   3.697  10.357
13889TIP3   OH2 8737   1.506   2.036   9.136
13889TIP3    H1 8738   1.559   1.954   9.125
13889TIP3    H2 8739   1.429   2.019   9.077
13890TIP3   OH2 8740   1.308   1.976   8.946
13890TIP3    H1 8741   1.224   1.933   8.968
13890TIP3    H2 8742   1.352   1.904   8.895
13891TIP3   OH2 8743   0.459   1.900   8.919
13891TIP3    H1 8744   0.446   1.860   8.830
13891TIP3    H2 8745   0.369   1.878   8.956
13892TIP3   OH2 8746   0.149   3.507   9.085
13892TIP3    H1 8747   0.234   3.492   9.131
13892TIP3    H2 8748   0.157   3.604   9.068
13893TIP3   OH2 8749   8.085   4.799  10.100
13893TIP3    H1 8750   8.078   4.889  10.062
13893TIP3    H2 8751   8.176   4.801  10.130
13894TIP3   OH2 8752   8.215   4.663   9.750
13894TIP3    H1 8753   8.206   4.622   9.660
13894TIP3    H2 8754   8.290   4.613   9.788
13895TIP3   OH2 8755   8.950   4.675   9.616
13895TIP3    H1 8756   8.968   4.602   9.555
13895TIP3    H2 8757   8.901   4.735   9.555
13896TIP3   OH2 8758   7.890   4.982   9.882
13896TIP3    H1 8759   7.883   4.912   9.815
13896TIP3    H2 8760   7.872   5.061   9.830
13897TIP3   OH2 8761   8.921   5.117   9.794
13897TIP3    H1 8762   8.933   5.021   9.817
13897TIP3    H2 8763   8.824   5.116   9.783
13898TIP3   OH2 8764   9.211   4.476  10.178
13898TIP3    H1 8765   9.212   4.572  10.176
13898TIP3    H2 8766   9.290   4.457  10.126
13899TIP3   OH2 8767   9.169   4.679   9.956
13899TIP3    H1 8768   9.120   4.598   9.929
13899TIP3    H2 8769   9.098   4.740   9.983
13900TIP3   OH2 8770   8.152   5.513   9.872
13900TIP3    H1 8771   8.074   5.470   9.912
13900TIP3    H2 8772   8.191   5.436   9.831
13901TIP3   OH2 8773   8.395   4.909   9.642
13901TIP3    H1 8774   8.352   4.869   9.719
13901TIP3    H2 8775   8.318   4.948   9.597
13902TIP3   OH2 8776   7.532   4.090   9.650
13902TIP3    H1 8777   7.516   4.137   9.566
13902TIP3    H2 8778   7.451   4.111   9.698
13903TIP3   OH2 8779   8.016   4.400   9.654
13903TIP3    H1 8780   8.018   4.307   9.625
13903TIP3    H2 8781   8.008   4.386   9.750
13904TIP3   OH2 8782   8.755   4.179   9.946
13904TIP3    H1 8783   8.734   4.254  10.006
13904TIP3    H2 8784   8.788   4.114  10.012
13905TIP3   OH2 8785   8.001   4.202  10.080
13905TIP3    H1 8786   7.948   4.170  10.003
13905TIP3    H2 8787   7.941   4.270  10.116
13906TIP3   OH2 8788   9.059   4.449   9.862
13906TIP3    H1 8789   8.993   4.406   9.804
13906TIP3    H2 8790   9.039   4.406   9.948
13907TIP3   OH2 8791   8.616   4.598   9.949
13907TIP3    H1 8792   8.531   4.556   9.928
13907TIP3    H2 8793   8.658   4.527  10.002
13908TIP3   OH2 8794   7.516   4.227   9.408
13908TIP3    H1 8795   7.547   4.308   9.453
13908TIP3    H2 8796   7.494   4.265   9.322
13909TIP3   OH2 8797   8.849   4.093   9.524
13909TIP3    H1 8798   8.885   4.145   9.598
13909TIP3    H2 8799   8.915   4.115   9.454
13910TIP3   OH2 8800   8.163   5.065  10.191
13910TIP3    H1 8801   8.231   5.026  10.248
13910TIP3    H2 8802   8.181   5.161  10.197
13911TIP3   OH2 8803   8.639   4.856   9.550
13911TIP3    H1 8804   8.693   4.935   9.528
13911TIP3    H2 8805   8.557   4.898   9.585
13912TIP3   OH2 8806   7.807   4.146   9.899
13912TIP3    H1 8807   7.777   4.085   9.832
13912TIP3    H2 8808   7.722   4.180   9.932
13913TIP3   OH2 8809   8.893   4.281   9.724
13913TIP3    H1 8810   8.828   4.334   9.672
13913TIP3    H2 8811   8.837   4.248   9.799
13914TIP3   OH2 8812   8.765   5.079   9.462
13914TIP3    H1 8813   8.764   5.168   9.501
13914TIP3    H2 8814   8.856   5.075   9.425
13915TIP3   OH2 8815   9.176   5.041  10.375
13915TIP3    H1 8816   9.226   5.102  10.433
13915TIP3    H2 8817   9.157   5.097  10.296
13916TIP3   OH2 8818   7.807   5.189   9.665
13916TIP3    H1 8819   7.901   5.216   9.654
13916TIP3    H2 8820   7.777   5.267   9.715
13917TIP3   OH2 8821   7.804   4.020   9.561
13917TIP3    H1 8822   7.883   4.051   9.609
13917TIP3    H2 8823   7.730   4.059   9.610
13918TIP3   OH2 8824   8.521   3.829   9.799
13918TIP3    H1 8825   8.549   3.738   9.783
13918TIP3    H2 8826   8.601   3.878   9.766
13919TIP3   OH2 8827   7.954   5.359  10.010
13919TIP3    H1 8828   7.942   5.290  10.076
13919TIP3    H2 8829   7.880   5.420  10.033
13920TIP3   OH2 8830   7.844   5.147  10.190
13920TIP3    H1 8831   7.849   5.072  10.254
13920TIP3    H2 8832   7.868   5.100  10.108
13921TIP3   OH2 8833   7.705   5.009   9.303
13921TIP3    H1 8834   7.701   4.936   9.369
13921TIP3    H2 8835   7.681   5.086   9.359
13922TIP3   OH2 8836   8.213   4.692  10.358
13922TIP3    H1 8837   8.304   4.728  10.362
13922TIP3    H2 8838   8.162   4.774  10.354
13923TIP3   OH2 8839   7.499   4.670   9.503
13923TIP3    H1 8840   7.572   4.733   9.517
13923TIP3    H2 8841   7.439   4.699   9.575
13924TIP3   OH2 8842   7.845   4.742  10.215
13924TIP3    H1 8843   7.927   4.760  10.166
13924TIP3    H2 8844   7.801   4.679  10.154
13925TIP3   OH2 8845   7.911   4.551   9.304
13925TIP3    H1 8846   7.904   4.646   9.286
13925TIP3    H2 8847   7.973   4.555   9.379
13926TIP3   OH2 8848   8.717   4.820  10.062
13926TIP3    H1 8849   8.765   4.789  10.143
13926TIP3    H2 8850   8.673   4.737  10.033
13927TIP3   OH2 8851   8.597   5.123   9.783
13927TIP3    H1 8852   8.573   5.114   9.876
13927TIP3    H2 8853   8.520   5.087   9.737
13928TIP3   OH2 8854   8.680   4.632   9.694
13928TIP3    H1 8855   8.662   4.647   9.788
13928TIP3    H2 8856   8.650   4.716   9.651
13929TIP3   OH2 8857   8.071   5.232   9.618
13929TIP3    H1 8858   8.102   5.287   9.544
13929TIP3    H2 8859   8.080   5.142   9.580
13930TIP3   OH2 8860   8.630   5.096   9.228
13930TIP3    H1 8861   8.699   5.144   9.177
13930TIP3    H2 8862   8.677   5.080   9.314
13931TIP3   OH2 8863   8.911   4.729   9.310
13931TIP3    H1 8864   8.910   4.795   9.239
13931TIP3    H2 8865   8.995   4.686   9.289
13932TIP3   OH2 8866   8.242   5.375  10.178
13932TIP3    H1 8867   8.255   5.382  10.083
13932TIP3    H2 8868   8.299   5.448  10.210
13933TIP3   OH2 8869   8.796   5.288   9.118
13933TIP3    H1 8870   8.814   5.312   9.211
13933TIP3    H2 8871   8.888   5.270   9.088
13934TIP3   OH2 8872   7.628   3.830  10.444
13934TIP3    H1 8873   7.721   3.823  10.415
13934TIP3    H2 8874   7.635   3.911  10.495
13935TIP3   OH2 8875   8.834   4.707  10.287
13935TIP3    H1 8876   8.876   4.764  10.355
13935TIP3    H2 8877   8.845   4.618  10.324
13936TIP3   OH2 8878   9.202   4.929   9.357
13936TIP3    H1 8879   9.244   4.930   9.444
13936TIP3    H2 8880   9.218   4.837   9.327
13937TIP3   OH2 8881   9.203   5.210   9.770
13937TIP3    H1 8882   9.112   5.173   9.779
13937TIP3    H2 8883   9.192   5.265   9.690
13938TIP3   OH2 8884   7.443   5.274   9.161
13938TIP3    H1 8885   7.455   5.178   9.162
13938TIP3    H2 8886   7.524   5.300   9.111
13939TIP3   OH2 8887   8.379   5.217   9.232
13939TIP3    H1 8888   8.353   5.288   9.169
13939TIP3    H2 8889   8.473   5.200   9.211
13940TIP3   OH2 8890   8.324   5.627  10.301
13940TIP3    H1 8891   8.306   5.643  10.395
13940TIP3    H2 8892   8.289   5.708  10.259
13941TIP3   OH2 8893   8.926   5.489  10.083
13941TIP3    H1 8894   8.918   5.452   9.993
13941TIP3    H2 8895   9.009   5.450  10.115
13942TIP3   OH2 8896   8.021   5.512  10.568
13942TIP3    H1 8897   7.949   5.448  10.559
13942TIP3    H2 8898   8.030   5.542  10.475
13943TIP3   OH2 8899   8.056   5.524  10.307
13943TIP3    H1 8900   8.148   5.495  10.293
13943TIP3    H2 8901   8.010   5.441  10.286
13944TIP3   OH2 8902   7.731   4.403   9.106
13944TIP3    H1 8903   7.789   4.444   9.173
13944TIP3    H2 8904   7.729   4.309   9.135
13945TIP3   OH2 8905   8.989   5.088   9.312
13945TIP3    H1 8906   8.969   5.035   9.232
13945TIP3    H2 8907   9.066   5.036   9.345
13946TIP3   OH2 8908   8.730   3.947   9.703
13946TIP3    H1 8909   8.819   3.926   9.740
13946TIP3    H2 8910   8.755   3.993   9.621
13947TIP3   OH2 8911   8.248   3.875   9.392
13947TIP3    H1 8912   8.212   3.836   9.311
13947TIP3    H2 8913   8.344   3.878   9.371
13948TIP3   OH2 8914   7.969   4.282   9.292
13948TIP3    H1 8915   8.028   4.250   9.219
13948TIP3    H2 8916   7.960   4.376   9.268
13949TIP3   OH2 8917   8.303   4.227  10.597
13949TIP3    H1 8918   8.325   4.147  10.547
13949TIP3    H2 8919   8.313   4.200  10.690
13950TIP3   OH2 8920   8.727   4.410   9.565
13950TIP3    H1 8921   8.790   4.442   9.498
13950TIP3    H2 8922   8.712   4.493   9.617
13951TIP3   OH2 8923   8.730   4.397  10.101
13951TIP3    H1 8924   8.826   4.378  10.109
13951TIP3    H2 8925   8.696   4.373  10.191
13952TIP3   OH2 8926   8.155   4.466  10.242
13952TIP3    H1 8927   8.170   4.558  10.273
13952TIP3    H2 8928   8.089   4.435  10.305
13953TIP3   OH2 8929   8.268   4.521   9.077
13953TIP3    H1 8930   8.313   4.440   9.045
13953TIP3    H2 8931   8.187   4.516   9.022
13954TIP3   OH2 8932   8.034   4.436   9.927
13954TIP3    H1 8933   8.066   4.521   9.963
13954TIP3    H2 8934   8.063   4.375   9.997
13955TIP3   OH2 8935   8.989   4.422   9.445
13955TIP3    H1 8936   8.949   4.432   9.357
13955TIP3    H2 8937   9.014   4.327   9.446
13956TIP3   OH2 8938   9.244   4.126  10.001
13956TIP3    H1 8939   9.163   4.127   9.950
13956TIP3    H2 8940   9.216   4.135  10.094
13957TIP3   OH2 8941   9.173   4.249  10.472
13957TIP3    H1 8942   9.088   4.225  10.513
13957TIP3    H2 8943   9.226   4.253  10.552
13958TIP3   OH2 8944   8.154   4.572   9.497
13958TIP3    H1 8945   8.103   4.503   9.547
13958TIP3    H2 8946   8.209   4.518   9.436
13959TIP3   OH2 8947   8.419   4.162  10.010
13959TIP3    H1 8948   8.506   4.167   9.966
13959TIP3    H2 8949   8.365   4.119   9.940
13960TIP3   OH2 8950   8.994   4.316  10.095
13960TIP3    H1 8951   9.061   4.352  10.158
13960TIP3    H2 8952   8.981   4.225  10.129
13961TIP3   OH2 8953   8.648   4.347  10.349
13961TIP3    H1 8954   8.554   4.371  10.334
13961TIP3    H2 8955   8.681   4.416  10.411
13962TIP3   OH2 8956   8.037   4.096   9.674
13962TIP3    H1 8957   8.117   4.075   9.621
13962TIP3    H2 8958   8.049   4.041   9.755
13963TIP3   OH2 8959   8.746   4.487  10.547
13963TIP3    H1 8960   8.828   4.467  10.595
13963TIP3    H2 8961   8.680   4.496  10.618
13964TIP3   OH2 8962   7.736   5.666   9.013
13964TIP3    H1 8963   7.708   5.705   9.098
13964TIP3    H2 8964   7.655   5.684   8.961
13965TIP3   OH2 8965   8.936   4.928   9.097
13965TIP3    H1 8966   8.875   4.919   9.021
13965TIP3    H2 8967   9.023   4.924   9.051
13966TIP3   OH2 8968   8.387   4.442   9.846
13966TIP3    H1 8969   8.295   4.411   9.850
13966TIP3    H2 8970   8.430   4.374   9.791
13967TIP3   OH2 8971   8.887   4.049  10.153
13967TIP3    H1 8972   8.937   3.974  10.114
13967TIP3    H2 8973   8.838   4.004  10.224
13968TIP3   OH2 8974   8.498   4.273   9.575
13968TIP3    H1 8975   8.577   4.332   9.577
13968TIP3    H2 8976   8.433   4.321   9.524
13969TIP3   OH2 8977   8.385   4.905  10.340
13969TIP3    H1 8978   8.450   4.903  10.413
13969TIP3    H2 8979   8.437   4.950  10.270
13970TIP3   OH2 8980   7.688   4.859   9.519
13970TIP3    H1 8981   7.639   4.919   9.581
13970TIP3    H2 8982   7.773   4.852   9.565
13971TIP3   OH2 8983   8.048   4.250  10.505
13971TIP3    H1 8984   8.138   4.249  10.545
13971TIP3    H2 8985   8.000   4.194  10.568
13972TIP3   OH2 8986   8.321   4.957   9.277
13972TIP3    H1 8987   8.340   4.927   9.187
13972TIP3    H2 8988   8.353   5.049   9.271
13973TIP3   OH2 8989   8.912   4.863   9.863
13973TIP3    H1 8990   8.855   4.853   9.942
13973TIP3    H2 8991   8.882   4.792   9.803
13974TIP3   OH2 8992   9.204   4.677   9.278
13974TIP3    H1 8993   9.182   4.617   9.204
13974TIP3    H2 8994   9.235   4.616   9.346
13975TIP3   OH2 8995   8.549   4.655   9.110
13975TIP3    H1 8996   8.573   4.602   9.188
13975TIP3    H2 8997   8.452   4.650   9.116
13976TIP3   OH2 8998   8.027   5.169   9.245
13976TIP3    H1 8999   8.110   5.169   9.295
13976TIP3    H2 9000   8.053   5.225   9.170
13977TIP3   OH2 9001   7.542   4.430  10.367
13977TIP3    H1 9002   7.527   4.377  10.446
13977TIP3    H2 9003   7.542   4.520  10.408
13978TIP3   OH2 9004   7.458   4.998   9.175
13978TIP3    H1 9005   7.551   5.001   9.207
13978TIP3    H2 9006   7.409   4.983   9.258
13979TIP3   OH2 9007   7.648   5.237  10.393
13979TIP3    H1 9008   7.702   5.242  10.312
13979TIP3    H2 9009   7.663   5.145  10.419
13980TIP3   OH2 9010   7.927   4.780   9.691
13980TIP3    H1 9011   8.018   4.759   9.718
13980TIP3    H2 9012   7.879   4.705   9.731
13981TIP3   OH2 9013   8.694   5.219  10.062
13981TIP3    H1 9014   8.671   5.311  10.086
13981TIP3    H2 9015   8.788   5.217  10.086
13982TIP3   OH2 9016   8.527   5.003  10.122
13982TIP3    H1 9017   8.584   5.083  10.119
13982TIP3    H2 9018   8.589   4.932  10.094
13983TIP3   OH2 9019   8.491   5.382   9.448
13983TIP3    H1 9020   8.423   5.445   9.479
13983TIP3    H2 9021   8.440   5.336   9.379
13984TIP3   OH2 9022   8.659   5.477  10.159
13984TIP3    H1 9023   8.754   5.493  10.142
13984TIP3    H2 9024   8.620   5.559  10.121
13985TIP3   OH2 9025   8.160   4.979   9.519
13985TIP3    H1 9026   8.201   4.952   9.434
13985TIP3    H2 9027   8.092   4.911   9.533
13986TIP3   OH2 9028   7.889   5.122  10.595
13986TIP3    H1 9029   7.887   5.065  10.515
13986TIP3    H2 9030   7.984   5.131  10.611
13987TIP3   OH2 9031   7.843   5.447   9.277
13987TIP3    H1 9032   7.930   5.407   9.296
13987TIP3    H2 9033   7.834   5.508   9.354
13988TIP3   OH2 9034   9.039   4.148   9.343
13988TIP3    H1 9035   9.051   4.168   9.249
13988TIP3    H2 9036   9.069   4.055   9.345
13989TIP3   OH2 9037   7.815   4.954  10.376
13989TIP3    H1 9038   7.837   4.874  10.322
13989TIP3    H2 9039   7.719   4.936  10.390
13990TIP3   OH2 9040   9.087   5.334   9.523
13990TIP3    H1 9041   9.003   5.294   9.495
13990TIP3    H2 9042   9.123   5.368   9.440
13991TIP3   OH2 9043   8.938   4.888  10.465
13991TIP3    H1 9044   9.007   4.927  10.409
13991TIP3    H2 9045   8.891   4.968  10.498
13992TIP3   OH2 9046   8.177   4.146   9.423
13992TIP3    H1 9047   8.086   4.164   9.393
13992TIP3    H2 9048   8.198   4.059   9.383
13993TIP3   OH2 9049   8.111   4.086  10.292
13993TIP3    H1 9050   8.088   4.157  10.355
13993TIP3    H2 9051   8.062   4.117  10.212
13994TIP3   OH2 9052   8.385   4.309  10.271
13994TIP3    H1 9053   8.306   4.364  10.253
13994TIP3    H2 9054   8.403   4.265  10.185
13995TIP3   OH2 9055   8.286   4.407   9.329
13995TIP3    H1 9056   8.286   4.438   9.236
13995TIP3    H2 9057   8.254   4.315   9.327
13996TIP3   OH2 9058   8.307   3.949  10.160
13996TIP3    H1 9059   8.342   4.017  10.098
13996TIP3    H2 9060   8.230   3.999  10.198
13997TIP3   OH2 9061   8.649   5.441  10.440
13997TIP3    H1 9062   8.601   5.513  10.485
13997TIP3    H2 9063   8.638   5.464  10.346
13998TIP3   OH2 9064   8.736   4.080  10.449
13998TIP3    H1 9065   8.746   4.173  10.420
13998TIP3    H2 9066   8.641   4.065  10.432
13999TIP3   OH2 9067   7.721   4.156   9.237
13999TIP3    H1 9068   7.815   4.171   9.258
13999TIP3    H2 9069   7.675   4.169   9.322
14000TIP3   OH2 9070   7.799   4.561   9.833
14000TIP3    H1 9071   7.877   4.505   9.851
14000TIP3    H2 9072   7.741   4.499   9.783
14001TIP3   OH2 9073   8.844   5.138  10.536
14001TIP3    H1 9074   8.879   5.227  10.519
14001TIP3    H2 9075   8.760   5.142  10.487
14002TIP3   OH2 9076   7.750   5.463   9.689
14002TIP3    H1 9077   7.741   5.525   9.765
14002TIP3    H2 9078   7.656   5.450   9.670
14003TIP3   OH2 9079   8.975   3.879   9.778
14003TIP3    H1 9080   8.988   3.852   9.872
14003TIP3    H2 9081   9.018   3.801   9.735
14004TIP3   OH2 9082   9.091   5.256  10.226
14004TIP3    H1 9083   9.166   5.309  10.196
14004TIP3    H2 9084   9.070   5.311  10.305
14005TIP3   OH2 9085   9.172   5.591   9.012
14005TIP3    H1 9086   9.120   5.569   8.931
14005TIP3    H2 9087   9.194   5.502   9.044
14006TIP3   OH2 9088   8.668   5.419   8.875
14006TIP3    H1 9089   8.576   5.390   8.889
14006TIP3    H2 9090   8.710   5.381   8.954
14007TIP3   OH2 9091   8.083   5.297   9.016
14007TIP3    H1 9092   8.104   5.206   8.983
14007TIP3    H2 9093   7.992   5.303   8.980
14008TIP3   OH2 9094   9.190   4.946   8.989
14008TIP3    H1 9095   9.214   4.867   8.937
14008TIP3    H2 9096   9.278   4.981   9.013
14009TIP3   OH2 9097   8.531   4.913   9.057
14009TIP3    H1 9098   8.557   4.975   9.129
14009TIP3    H2 9099   8.555   4.824   9.091
14010TIP3   OH2 9100   7.947   4.893   9.261
14010TIP3    H1 9101   7.863   4.944   9.261
14010TIP3    H2 9102   8.007   4.969   9.243
14011TIP3   OH2 9103   9.060   4.605   9.030
14011TIP3    H1 9104   9.041   4.526   8.975
14011TIP3    H2 9105   9.052   4.676   8.965
14012TIP3   OH2 9106   8.581   4.786  10.517
14012TIP3    H1 9107   8.667   4.776  10.474
14012TIP3    H2 9108   8.572   4.700  10.562
14013TIP3   OH2 9109   8.727   4.531   9.320
14013TIP3    H1 9110   8.781   4.610   9.301
14013TIP3    H2 9111   8.654   4.572   9.372
14014TIP3   OH2 9112   8.529   4.544  10.704
14014TIP3    H1 9113   8.499   4.583  10.787
14014TIP3    H2 9114   8.464   4.474  10.689
14015TIP3   OH2 9115   8.176   4.808   8.945
14015TIP3    H1 9116   8.120   4.759   9.007
14015TIP3    H2 9117   8.212   4.738   8.888
14016TIP3   OH2 9118   8.595   4.309   9.204
14016TIP3    H1 9119   8.590   4.243   9.276
14016TIP3    H2 9120   8.614   4.391   9.254
14017TIP3   OH2 9121   8.603   4.100   9.403
14017TIP3    H1 9122   8.568   4.144   9.484
14017TIP3    H2 9123   8.699   4.101   9.423
14018TIP3   OH2 9124   8.488   4.682   9.411
14018TIP3    H1 9125   8.407   4.716   9.450
14018TIP3    H2 9126   8.550   4.749   9.445
14019TIP3   OH2 9127   8.082   4.447   8.885
14019TIP3    H1 9128   8.070   4.362   8.835
14019TIP3    H2 9129   7.990   4.470   8.904
14020TIP3   OH2 9130   7.879   4.752   9.041
14020TIP3    H1 9131   7.911   4.792   9.124
14020TIP3    H2 9132   7.788   4.723   9.065
14021TIP3   OH2 9133   8.774   4.360   8.980
14021TIP3    H1 9134   8.859   4.317   9.005
14021TIP3    H2 9135   8.747   4.398   9.065
14022TIP3   OH2 9136   8.520   3.849   9.378
14022TIP3    H1 9137   8.546   3.944   9.385
14022TIP3    H2 9138   8.598   3.807   9.419
14023TIP3   OH2 9139   8.407   4.287   8.983
14023TIP3    H1 9140   8.472   4.274   8.911
14023TIP3    H2 9141   8.467   4.270   9.059
14024TIP3   OH2 9142   8.141   4.220   9.096
14024TIP3    H1 9143   8.234   4.220   9.068
14024TIP3    H2 9144   8.106   4.162   9.024
14025TIP3   OH2 9145   8.042   4.047   8.919
14025TIP3    H1 9146   8.013   3.954   8.905
14025TIP3    H2 9147   8.018   4.094   8.836
14026TIP3   OH2 9148   8.997   4.193   9.016
14026TIP3    H1 9149   9.006   4.103   9.052
14026TIP3    H2 9150   9.008   4.174   8.919
14027TIP3   OH2 9151   8.548   3.787   9.110
14027TIP3    H1 9152   8.463   3.741   9.103
14027TIP3    H2 9153   8.548   3.802   9.208
14028TIP3   OH2 9154   8.536   3.904   8.840
14028TIP3    H1 9155   8.546   3.865   8.930
14028TIP3    H2 9156   8.560   3.997   8.860
14029TIP3   OH2 9157   8.546   5.652  10.616
14029TIP3    H1 9158   8.456   5.636  10.581
14029TIP3    H2 9159   8.525   5.704  10.694
14030TIP3   OH2 9160   9.104   5.107  10.644
14030TIP3    H1 9161   9.022   5.088  10.595
14030TIP3    H2 9162   9.157   5.026  10.631
14031TIP3   OH2 9163   9.250   5.644  10.135
14031TIP3    H1 9164   9.309   5.582  10.185
14031TIP3    H2 9165   9.235   5.588  10.056
14032TIP3   OH2 9166   9.211   5.457   9.944
14032TIP3    H1 9167   9.245   5.369   9.920
14032TIP3    H2 9168   9.157   5.478   9.865
14033TIP3   OH2 9169   7.471   5.522   9.681
14033TIP3    H1 9170   7.439   5.526   9.590
14033TIP3    H2 9171   7.428   5.600   9.718
14034TIP3   OH2 9172   7.514   5.465   9.374
14034TIP3    H1 9173   7.550   5.393   9.430
14034TIP3    H2 9174   7.492   5.412   9.295
14035TIP3   OH2 9175   7.630   5.047   8.878
14035TIP3    H1 9176   7.716   5.055   8.830
14035TIP3    H2 9177   7.595   5.138   8.864
14036TIP3   OH2 9178   7.550   4.893  10.368
14036TIP3    H1 9179   7.461   4.938  10.368
14036TIP3    H2 9180   7.545   4.842  10.284
14037TIP3   OH2 9181   7.492   4.718  10.142
14037TIP3    H1 9182   7.568   4.660  10.119
14037TIP3    H2 9183   7.434   4.710  10.063
14038TIP3   OH2 9184   7.530   4.980   9.684
14038TIP3    H1 9185   7.463   4.912   9.707
14038TIP3    H2 9186   7.483   5.063   9.705
14039TIP3   OH2 9187   7.653   5.251   9.439
14039TIP3    H1 9188   7.720   5.294   9.382
14039TIP3    H2 9189   7.704   5.230   9.520
14040TIP3   OH2 9190   7.525   4.659  10.505
14040TIP3    H1 9191   7.481   4.710  10.575
14040TIP3    H2 9192   7.541   4.732  10.442
14041TIP3   OH2 9193   7.697   4.561  10.081
14041TIP3    H1 9194   7.736   4.478  10.113
14041TIP3    H2 9195   7.723   4.561   9.986
14042TIP3   OH2 9196   9.185   4.771   9.702
14042TIP3    H1 9197   9.203   4.744   9.795
14042TIP3    H2 9198   9.091   4.741   9.692
14043TIP3   OH2 9199   7.609   4.734   9.124
14043TIP3    H1 9200   7.561   4.648   9.124
14043TIP3    H2 9201   7.540   4.794   9.158
14044TIP3   OH2 9202   7.485   4.493   9.090
14044TIP3    H1 9203   7.576   4.454   9.091
14044TIP3    H2 9204   7.429   4.412   9.079
14045TIP3   OH2 9205   7.750   4.328  10.209
14045TIP3    H1 9206   7.711   4.238  10.209
14045TIP3    H2 9207   7.678   4.373  10.257
14046TIP3   OH2 9208   7.648   4.383   9.699
14046TIP3    H1 9209   7.550   4.387   9.695
14046TIP3    H2 9210   7.670   4.390   9.604
14047TIP3   OH2 9211   7.657   4.448   9.430
14047TIP3    H1 9212   7.748   4.469   9.402
14047TIP3    H2 9213   7.615   4.536   9.440
14048TIP3   OH2 9214   9.232   4.314   9.021
14048TIP3    H1 9215   9.138   4.283   9.019
14048TIP3    H2 9216   9.278   4.231   9.040
14049TIP3   OH2 9217   7.455   3.873   8.928
14049TIP3    H1 9218   7.411   3.798   8.972
14049TIP3    H2 9219   7.449   3.941   8.999
14050TIP3   OH2 9220   7.621   4.095  10.239
14050TIP3    H1 9221   7.609   4.043  10.157
14050TIP3    H2 9222   7.688   4.042  10.285
14051TIP3   OH2 9223   9.106   4.116   9.718
14051TIP3    H1 9224   9.064   4.031   9.746
14051TIP3    H2 9225   9.036   4.182   9.734
14052TIP3   OH2 9226   9.251   4.403   9.680
14052TIP3    H1 9227   9.186   4.389   9.752
14052TIP3    H2 9228   9.239   4.497   9.661
14053TIP3   OH2 9229   7.507   4.081   9.083
14053TIP3    H1 9230   7.578   4.097   9.018
14053TIP3    H2 9231   7.557   4.047   9.159
14054TIP3   OH2 9232   9.237   4.062  10.285
14054TIP3    H1 9233   9.334   4.068  10.291
14054TIP3    H2 9234   9.211   4.108  10.369
14055TIP3   OH2 9235   7.764   5.526  10.096
14055TIP3    H1 9236   7.709   5.529  10.177
14055TIP3    H2 9237   7.724   5.596  10.040
14056TIP3   OH2 9238   9.258   3.900   9.456
14056TIP3    H1 9239   9.309   3.903   9.373
14056TIP3    H2 9240   9.307   3.964   9.511
14057TIP3   OH2 9241   9.049   5.205   9.038
14057TIP3    H1 9242   9.082   5.168   9.121
14057TIP3    H2 9243   9.056   5.125   8.985
14058TIP3   OH2 9244   8.760   5.366   9.396
14058TIP3    H1 9245   8.755   5.461   9.423
14058TIP3    H2 9246   8.665   5.344   9.394
14059TIP3   OH2 9247   8.340   5.478   9.136
14059TIP3    H1 9248   8.335   5.468   9.039
14059TIP3    H2 9249   8.250   5.513   9.155
14060TIP3   OH2 9250   8.121   5.634   9.172
14060TIP3    H1 9251   8.039   5.588   9.194
14060TIP3    H2 9252   8.092   5.688   9.095
14061TIP3   OH2 9253   7.600   3.839   9.268
14061TIP3    H1 9254   7.675   3.879   9.314
14061TIP3    H2 9255   7.593   3.751   9.310
14062TIP3   OH2 9256   9.024   5.672   9.431
14062TIP3    H1 9257   9.111   5.714   9.451
14062TIP3    H2 9258   9.030   5.650   9.337
14063TIP3   OH2 9259   8.770   5.624   9.516
14063TIP3    H1 9260   8.860   5.639   9.477
14063TIP3    H2 9261   8.763   5.698   9.579
14064TIP3   OH2 9262   8.322   5.576   9.574
14064TIP3    H1 9263   8.384   5.622   9.634
14064TIP3    H2 9264   8.286   5.652   9.524
14065TIP3   OH2 9265   8.093   5.444   9.447
14065TIP3    H1 9266   8.161   5.481   9.506
14065TIP3    H2 9267   8.021   5.506   9.471
14066TIP3   OH2 9268   7.847   5.618   9.484
14066TIP3    H1 9269   7.839   5.712   9.510
14066TIP3    H2 9270   7.812   5.575   9.566
14067TIP3   OH2 9271   9.069   5.526   9.715
14067TIP3    H1 9272   9.090   5.476   9.634
14067TIP3    H2 9273   8.980   5.487   9.734
14068TIP3   OH2 9274   8.858   5.402   9.821
14068TIP3    H1 9275   8.860   5.306   9.813
14068TIP3    H2 9276   8.767   5.420   9.790
14069TIP3   OH2 9277   8.615   5.433   9.714
14069TIP3    H1 9278   8.570   5.348   9.725
14069TIP3    H2 9279   8.598   5.448   9.619
14070TIP3   OH2 9280   8.305   3.956   9.867
14070TIP3    H1 9281   8.384   3.901   9.845
14070TIP3    H2 9282   8.246   3.892   9.910
14071TIP3   OH2 9283   7.728   3.808   9.854
14071TIP3    H1 9284   7.661   3.866   9.896
14071TIP3    H2 9285   7.811   3.847   9.890
14072TIP3   OH2 9286   7.576   3.943  10.021
14072TIP3    H1 9287   7.523   3.869  10.060
14072TIP3    H2 9288   7.507   4.008   9.993
14073TIP3   OH2 9289   9.003   3.829  10.054
14073TIP3    H1 9290   9.085   3.821  10.108
14073TIP3    H2 9291   8.962   3.740  10.065
14074TIP3   OH2 9292   9.089   3.802  10.482
14074TIP3    H1 9293   9.086   3.874  10.547
14074TIP3    H2 9294   9.162   3.829  10.424
14075TIP3   OH2 9295   8.588   3.812  10.082
14075TIP3    H1 9296   8.513   3.853  10.126
14075TIP3    H2 9297   8.563   3.823   9.989
14076TIP3   OH2 9298   8.002   3.866   9.943
14076TIP3    H1 9299   8.002   3.864  10.040
14076TIP3    H2 9300   8.050   3.784   9.920
14077TIP3   OH2 9301   7.877   3.848  10.357
14077TIP3    H1 9302   7.968   3.874  10.375
14077TIP3    H2 9303   7.897   3.759  10.318
14078TIP3   OH2 9304   9.130   5.453  10.404
14078TIP3    H1 9305   9.199   5.438  10.470
14078TIP3    H2 9306   9.114   5.548  10.421
14079TIP3   OH2 9307   9.031   4.048  10.613
14079TIP3    H1 9308   9.049   4.020  10.705
14079TIP3    H2 9309   8.940   4.019  10.595
14080TIP3   OH2 9310   8.443   4.044  10.383
14080TIP3    H1 9311   8.400   4.002  10.307
14080TIP3    H2 9312   8.423   4.140  10.369
14081TIP3   OH2 9313   8.278   5.578  10.565
14081TIP3    H1 9314   8.182   5.575  10.586
14081TIP3    H2 9315   8.292   5.483  10.548
14082TIP3   OH2 9316   7.592   5.500  10.320
14082TIP3    H1 9317   7.604   5.411  10.360
14082TIP3    H2 9318   7.609   5.558  10.396
14083TIP3   OH2 9319   9.053   3.908   9.126
14083TIP3    H1 9320   9.110   3.832   9.100
14083TIP3    H2 9321   8.969   3.881   9.084
14084TIP3   OH2 9322   8.837   3.868   8.950
14084TIP3    H1 9323   8.765   3.814   8.987
14084TIP3    H2 9324   8.877   3.805   8.887
14085TIP3   OH2 9325   7.994   3.781   8.902
14085TIP3    H1 9326   7.976   3.738   8.815
14085TIP3    H2 9327   7.906   3.770   8.945
14086TIP3   OH2 9328   7.672   5.393   9.080
14086TIP3    H1 9329   7.749   5.387   9.141
14086TIP3    H2 9330   7.684   5.484   9.048
14087TIP3   OH2 9331   6.192   4.791  10.079
14087TIP3    H1 9332   6.178   4.874  10.029
14087TIP3    H2 9333   6.269   4.817  10.132
14088TIP3   OH2 9334   6.312   4.668   9.761
14088TIP3    H1 9335   6.317   4.622   9.675
14088TIP3    H2 9336   6.386   4.629   9.811
14089TIP3   OH2 9337   7.126   4.662   9.599
14089TIP3    H1 9338   7.140   4.581   9.546
14089TIP3    H2 9339   7.050   4.699   9.551
14090TIP3   OH2 9340   6.012   4.999   9.868
14090TIP3    H1 9341   6.001   4.927   9.804
14090TIP3    H2 9342   5.990   5.077   9.814
14091TIP3   OH2 9343   7.001   5.142   9.767
14091TIP3    H1 9344   7.032   5.049   9.771
14091TIP3    H2 9345   6.906   5.124   9.779
14092TIP3   OH2 9346   7.332   4.453  10.204
14092TIP3    H1 9347   7.366   4.535  10.167
14092TIP3    H2 9348   7.404   4.436  10.268
14093TIP3   OH2 9349   7.308   4.676   9.946
14093TIP3    H1 9350   7.265   4.590   9.924
14093TIP3    H2 9351   7.234   4.729   9.982
14094TIP3   OH2 9352   6.253   5.521   9.899
14094TIP3    H1 9353   6.182   5.468   9.941
14094TIP3    H2 9354   6.286   5.453   9.839
14095TIP3   OH2 9355   6.514   4.974   9.644
14095TIP3    H1 9356   6.499   4.919   9.722
14095TIP3    H2 9357   6.421   4.990   9.615
14096TIP3   OH2 9358   5.647   4.079   9.644
14096TIP3    H1 9359   5.629   4.134   9.564
14096TIP3    H2 9360   5.566   4.094   9.696
14097TIP3   OH2 9361   6.150   4.398   9.629
14097TIP3    H1 9362   6.118   4.308   9.610
14097TIP3    H2 9363   6.181   4.388   9.721
14098TIP3   OH2 9364   6.862   4.172   9.955
14098TIP3    H1 9365   6.844   4.256  10.003
14098TIP3    H2 9366   6.914   4.124  10.023
14099TIP3   OH2 9367   6.094   4.200  10.066
14099TIP3    H1 9368   6.040   4.173   9.988
14099TIP3    H2 9369   6.061   4.288  10.085
14100TIP3   OH2 9370   7.207   4.439   9.867
14100TIP3    H1 9371   7.140   4.415   9.799
14100TIP3    H2 9372   7.167   4.399   9.948
14101TIP3   OH2 9373   6.734   4.576   9.920
14101TIP3    H1 9374   6.651   4.533   9.893
14101TIP3    H2 9375   6.775   4.504   9.972
14102TIP3   OH2 9376   5.630   4.229   9.407
14102TIP3    H1 9377   5.659   4.311   9.454
14102TIP3    H2 9378   5.615   4.266   9.318
14103TIP3   OH2 9379   6.955   4.092   9.523
14103TIP3    H1 9380   7.003   4.131   9.599
14103TIP3    H2 9381   7.018   4.109   9.450
14104TIP3   OH2 9382   6.279   5.053  10.176
14104TIP3    H1 9383   6.292   5.049  10.273
14104TIP3    H2 9384   6.290   5.148  10.161
14105TIP3   OH2 9385   6.744   4.851   9.559
14105TIP3    H1 9386   6.810   4.914   9.521
14105TIP3    H2 9387   6.673   4.913   9.586
14106TIP3   OH2 9388   5.902   4.197   9.863
14106TIP3    H1 9389   5.886   4.111   9.822
14106TIP3    H2 9390   5.844   4.257   9.809
14107TIP3   OH2 9391   7.010   4.277   9.735
14107TIP3    H1 9392   6.945   4.337   9.691
14107TIP3    H2 9393   6.959   4.245   9.812
14108TIP3   OH2 9394   6.883   5.058   9.456
14108TIP3    H1 9395   6.903   5.126   9.521
14108TIP3    H2 9396   6.966   5.059   9.402
14109TIP3   OH2 9397   7.294   5.004  10.385
14109TIP3    H1 9398   7.285   5.050  10.470
14109TIP3    H2 9399   7.272   5.075  10.320
14110TIP3   OH2 9400   5.912   5.186   9.670
14110TIP3    H1 9401   6.004   5.217   9.654
14110TIP3    H2 9402   5.880   5.265   9.718
14111TIP3   OH2 9403   5.927   4.008   9.548
14111TIP3    H1 9404   6.001   4.035   9.607
14111TIP3    H2 9405   5.848   4.037   9.595
14112TIP3   OH2 9406   6.615   3.830   9.792
14112TIP3    H1 9407   6.644   3.738   9.794
14112TIP3    H2 9408   6.698   3.874   9.763
14113TIP3   OH2 9409   6.049   5.338   9.974
14113TIP3    H1 9410   6.083   5.284  10.046
14113TIP3    H2 9411   5.990   5.402  10.020
14114TIP3   OH2 9412   5.935   5.142  10.174
14114TIP3    H1 9413   5.958   5.066  10.233
14114TIP3    H2 9414   5.970   5.113  10.089
14115TIP3   OH2 9415   5.815   5.013   9.297
14115TIP3    H1 9416   5.812   4.941   9.364
14115TIP3    H2 9417   5.799   5.091   9.356
14116TIP3   OH2 9418   6.348   4.723  10.357
14116TIP3    H1 9419   6.428   4.774  10.381
14116TIP3    H2 9420   6.279   4.779  10.395
14117TIP3   OH2 9421   6.345   4.550  10.610
14117TIP3    H1 9422   6.295   4.602  10.545
14117TIP3    H2 9423   6.385   4.483  10.555
14118TIP3   OH2 9424   5.613   4.662   9.507
14118TIP3    H1 9425   5.681   4.732   9.510
14118TIP3    H2 9426   5.552   4.696   9.577
14119TIP3   OH2 9427   5.979   4.679  10.231
14119TIP3    H1 9428   6.054   4.718  10.178
14119TIP3    H2 9429   5.918   4.651  10.160
14120TIP3   OH2 9430   6.009   4.573   9.318
14120TIP3    H1 9431   5.997   4.662   9.283
14120TIP3    H2 9432   6.080   4.589   9.383
14121TIP3   OH2 9433   6.850   4.775  10.049
14121TIP3    H1 9434   6.882   4.738  10.133
14121TIP3    H2 9435   6.795   4.700  10.016
14122TIP3   OH2 9436   6.725   5.102   9.770
14122TIP3    H1 9437   6.708   5.091   9.865
14122TIP3    H2 9438   6.646   5.064   9.727
14123TIP3   OH2 9439   6.836   4.639   9.676
14123TIP3    H1 9440   6.799   4.639   9.767
14123TIP3    H2 9441   6.795   4.721   9.638
14124TIP3   OH2 9442   6.164   5.234   9.606
14124TIP3    H1 9443   6.205   5.291   9.538
14124TIP3    H2 9444   6.186   5.145   9.574
14125TIP3   OH2 9445   6.725   5.094   9.237
14125TIP3    H1 9446   6.796   5.145   9.192
14125TIP3    H2 9447   6.767   5.080   9.325
14126TIP3   OH2 9448   6.095   4.636  10.466
14126TIP3    H1 9449   6.062   4.657  10.375
14126TIP3    H2 9450   6.049   4.704  10.521
14127TIP3   OH2 9451   7.020   4.725   9.337
14127TIP3    H1 9452   7.005   4.803   9.282
14127TIP3    H2 9453   7.094   4.687   9.287
14128TIP3   OH2 9454   6.307   5.375  10.147
14128TIP3    H1 9455   6.315   5.451  10.088
14128TIP3    H2 9456   6.386   5.387  10.203
14129TIP3   OH2 9457   6.895   5.275   9.124
14129TIP3    H1 9458   6.908   5.317   9.212
14129TIP3    H2 9459   6.988   5.249   9.106
14130TIP3   OH2 9460   5.758   3.820  10.447
14130TIP3    H1 9461   5.837   3.845  10.393
14130TIP3    H2 9462   5.801   3.820  10.533
14131TIP3   OH2 9463   6.955   4.670  10.288
14131TIP3    H1 9464   6.965   4.763  10.321
14131TIP3    H2 9465   7.043   4.637  10.307
14132TIP3   OH2 9466   7.311   4.936   9.391
14132TIP3    H1 9467   7.356   4.917   9.474
14132TIP3    H2 9468   7.280   4.845   9.370
14133TIP3   OH2 9469   7.352   5.207   9.726
14133TIP3    H1 9470   7.277   5.149   9.706
14133TIP3    H2 9471   7.329   5.282   9.668
14134TIP3   OH2 9472   5.552   5.273   9.143
14134TIP3    H1 9473   5.564   5.177   9.149
14134TIP3    H2 9474   5.636   5.298   9.097
14135TIP3   OH2 9475   6.462   5.220   9.243
14135TIP3    H1 9476   6.447   5.291   9.178
14135TIP3    H2 9477   6.555   5.195   9.230
14136TIP3   OH2 9478   6.404   5.607  10.317
14136TIP3    H1 9479   6.415   5.634  10.409
14136TIP3    H2 9480   6.415   5.693  10.270
14137TIP3   OH2 9481   7.037   5.480  10.093
14137TIP3    H1 9482   7.011   5.454  10.002
14137TIP3    H2 9483   7.130   5.451  10.097
14138TIP3   OH2 9484   6.133   5.522  10.316
14138TIP3    H1 9485   6.227   5.545  10.298
14138TIP3    H2 9486   6.131   5.432  10.278
14139TIP3   OH2 9487   5.852   4.407   9.110
14139TIP3    H1 9488   5.908   4.450   9.177
14139TIP3    H2 9489   5.856   4.314   9.141
14140TIP3   OH2 9490   7.096   5.066   9.292
14140TIP3    H1 9491   7.097   5.028   9.202
14140TIP3    H2 9492   7.181   5.035   9.328
14141TIP3   OH2 9493   6.835   3.942   9.701
14141TIP3    H1 9494   6.916   3.955   9.754
14141TIP3    H2 9495   6.860   3.990   9.619
14142TIP3   OH2 9496   6.337   3.876   9.398
14142TIP3    H1 9497   6.304   3.839   9.313
14142TIP3    H2 9498   6.434   3.878   9.382
14143TIP3   OH2 9499   6.079   4.303   9.312
14143TIP3    H1 9500   6.129   4.294   9.228
14143TIP3    H2 9501   6.114   4.385   9.349
14144TIP3   OH2 9502   5.961   4.787  10.647
14144TIP3    H1 9503   5.998   4.771  10.735
14144TIP3    H2 9504   5.881   4.836  10.671
14145TIP3   OH2 9505   6.825   4.396   9.582
14145TIP3    H1 9506   6.901   4.401   9.521
14145TIP3    H2 9507   6.823   4.490   9.612
14146TIP3   OH2 9508   6.854   4.392  10.098
14146TIP3    H1 9509   6.950   4.384  10.118
14146TIP3    H2 9510   6.815   4.371  10.185
14147TIP3   OH2 9511   6.286   4.510  10.201
14147TIP3    H1 9512   6.311   4.594  10.246
14147TIP3    H2 9513   6.216   4.478  10.260
14148TIP3   OH2 9514   6.393   4.513   9.052
14148TIP3    H1 9515   6.430   4.428   9.020
14148TIP3    H2 9516   6.305   4.512   9.009
14149TIP3   OH2 9517   6.202   4.446   9.907
14149TIP3    H1 9518   6.207   4.534   9.947
14149TIP3    H2 9519   6.208   4.391   9.986
14150TIP3   OH2 9520   7.090   4.421   9.458
14150TIP3    H1 9521   7.045   4.460   9.382
14150TIP3    H2 9522   7.117   4.334   9.422
14151TIP3   OH2 9523   6.807   4.113  10.696
14151TIP3    H1 9524   6.733   4.063  10.658
14151TIP3    H2 9525   6.818   4.183  10.631
14152TIP3   OH2 9526   7.396   4.144   9.985
14152TIP3    H1 9527   7.343   4.148   9.904
14152TIP3    H2 9528   7.355   4.209  10.043
14153TIP3   OH2 9529   6.271   4.598   9.493
14153TIP3    H1 9530   6.216   4.529   9.539
14153TIP3    H2 9531   6.328   4.543   9.434
14154TIP3   OH2 9532   6.582   4.197   9.993
14154TIP3    H1 9533   6.671   4.168   9.965
14154TIP3    H2 9534   6.524   4.126   9.960
14155TIP3   OH2 9535   7.125   4.327  10.097
14155TIP3    H1 9536   7.195   4.358  10.160
14155TIP3    H2 9537   7.110   4.233  10.123
14156TIP3   OH2 9538   6.760   4.343  10.349
14156TIP3    H1 9539   6.668   4.339  10.316
14156TIP3    H2 9540   6.767   4.434  10.380
14157TIP3   OH2 9541   6.148   4.096   9.678
14157TIP3    H1 9542   6.226   4.080   9.622
14157TIP3    H2 9543   6.160   4.034   9.753
14158TIP3   OH2 9544   5.858   5.661   9.011
14158TIP3    H1 9545   5.829   5.714   9.088
14158TIP3    H2 9546   5.779   5.669   8.954
14159TIP3   OH2 9547   7.056   4.888   9.071
14159TIP3    H1 9548   6.995   4.920   9.001
14159TIP3    H2 9549   7.141   4.887   9.024
14160TIP3   OH2 9550   6.504   4.460   9.852
14160TIP3    H1 9551   6.417   4.428   9.882
14160TIP3    H2 9552   6.530   4.392   9.789
14161TIP3   OH2 9553   7.028   4.084  10.143
14161TIP3    H1 9554   7.074   4.006  10.105
14161TIP3    H2 9555   6.973   4.041  10.210
14162TIP3   OH2 9556   6.588   4.268   9.575
14162TIP3    H1 9557   6.670   4.319   9.591
14162TIP3    H2 9558   6.539   4.328   9.518
14163TIP3   OH2 9559   6.574   4.898  10.377
14163TIP3    H1 9560   6.646   4.836  10.363
14163TIP3    H2 9561   6.576   4.948  10.292
14164TIP3   OH2 9562   5.798   4.862   9.509
14164TIP3    H1 9563   5.750   4.917   9.576
14164TIP3    H2 9564   5.885   4.856   9.553
14165TIP3   OH2 9565   6.421   4.949   9.276
14165TIP3    H1 9566   6.448   4.925   9.187
14165TIP3    H2 9567   6.442   5.045   9.275
14166TIP3   OH2 9568   6.115   4.374  10.396
14166TIP3    H1 9569   6.034   4.372  10.341
14166TIP3    H2 9570   6.103   4.461  10.442
14167TIP3   OH2 9571   7.011   4.860   9.804
14167TIP3    H1 9572   6.947   4.840   9.875
14167TIP3    H2 9573   7.015   4.776   9.754
14168TIP3   OH2 9574   6.345   5.059  10.435
14168TIP3    H1 9575   6.394   5.144  10.438
14168TIP3    H2 9576   6.391   5.003  10.500
14169TIP3   OH2 9577   7.332   4.688   9.271
14169TIP3    H1 9578   7.335   4.625   9.196
14169TIP3    H2 9579   7.387   4.641   9.337
14170TIP3   OH2 9580   6.634   4.641   9.107
14170TIP3    H1 9581   6.679   4.578   9.164
14170TIP3    H2 9582   6.542   4.607   9.109
14171TIP3   OH2 9583   6.132   5.180   9.245
14171TIP3    H1 9584   6.207   5.199   9.303
14171TIP3    H2 9585   6.163   5.224   9.163
14172TIP3   OH2 9586   5.567   4.996   9.178
14172TIP3    H1 9587   5.659   5.005   9.213
14172TIP3    H2 9588   5.517   4.982   9.262
14173TIP3   OH2 9589   5.777   5.228  10.395
14173TIP3    H1 9590   5.825   5.207  10.312
14173TIP3    H2 9591   5.714   5.156  10.397
14174TIP3   OH2 9592   6.035   4.770   9.703
14174TIP3    H1 9593   6.128   4.762   9.731
14174TIP3    H2 9594   5.995   4.694   9.748
14175TIP3   OH2 9595   6.795   5.205  10.067
14175TIP3    H1 9596   6.752   5.284  10.106
14175TIP3    H2 9597   6.885   5.212  10.104
14176TIP3   OH2 9598   6.645   4.985  10.127
14176TIP3    H1 9599   6.708   5.057  10.102
14176TIP3    H2 9600   6.678   4.909  10.077
14177TIP3   OH2 9601   6.609   5.387   9.433
14177TIP3    H1 9602   6.544   5.454   9.461
14177TIP3    H2 9603   6.555   5.343   9.364
14178TIP3   OH2 9604   6.754   5.460  10.152
14178TIP3    H1 9605   6.849   5.464  10.128
14178TIP3    H2 9606   6.731   5.555  10.146
14179TIP3   OH2 9607   6.275   4.983   9.517
14179TIP3    H1 9608   6.314   4.954   9.431
14179TIP3    H2 9609   6.238   4.899   9.551
14180TIP3   OH2 9610   5.965   5.434   9.268
14180TIP3    H1 9611   6.051   5.393   9.289
14180TIP3    H2 9612   5.957   5.498   9.343
14181TIP3   OH2 9613   5.562   5.563  10.564
14181TIP3    H1 9614   5.591   5.580  10.655
14181TIP3    H2 9615   5.641   5.596  10.517
14182TIP3   OH2 9616   7.131   4.180   9.323
14182TIP3    H1 9617   7.202   4.222   9.270
14182TIP3    H2 9618   7.156   4.087   9.309
14183TIP3   OH2 9619   5.944   4.930  10.347
14183TIP3    H1 9620   5.947   4.838  10.316
14183TIP3    H2 9621   5.849   4.942  10.365
14184TIP3   OH2 9622   7.206   5.339   9.500
14184TIP3    H1 9623   7.127   5.289   9.471
14184TIP3    H2 9624   7.226   5.395   9.424
14185TIP3   OH2 9625   6.731   5.152  10.526
14185TIP3    H1 9626   6.686   5.090  10.467
14185TIP3    H2 9627   6.722   5.240  10.482
14186TIP3   OH2 9628   7.006   4.917  10.401
14186TIP3    H1 9629   7.103   4.930  10.397
14186TIP3    H2 9630   6.984   4.990  10.463
14187TIP3   OH2 9631   6.296   4.156   9.400
14187TIP3    H1 9632   6.209   4.177   9.362
14187TIP3    H2 9633   6.304   4.059   9.386
14188TIP3   OH2 9634   6.214   4.106  10.278
14188TIP3    H1 9635   6.203   4.190  10.324
14188TIP3    H2 9636   6.163   4.124  10.195
14189TIP3   OH2 9637   6.450   5.308  10.429
14189TIP3    H1 9638   6.536   5.354  10.417
14189TIP3    H2 9639   6.441   5.312  10.526
14190TIP3   OH2 9640   6.482   4.298  10.251
14190TIP3    H1 9641   6.421   4.371  10.228
14190TIP3    H2 9642   6.512   4.268  10.163
14191TIP3   OH2 9643   6.405   4.416   9.321
14191TIP3    H1 9644   6.402   4.432   9.224
14191TIP3    H2 9645   6.376   4.323   9.332
14192TIP3   OH2 9646   6.434   3.968  10.188
14192TIP3    H1 9647   6.449   4.007  10.100
14192TIP3    H2 9648   6.352   4.018  10.213
14193TIP3   OH2 9649   6.711   5.400  10.418
14193TIP3    H1 9650   6.693   5.486  10.463
14193TIP3    H2 9651   6.750   5.432  10.334
14194TIP3   OH2 9652   5.837   4.162   9.236
14194TIP3    H1 9653   5.931   4.167   9.259
14194TIP3    H2 9654   5.795   4.170   9.323
14195TIP3   OH2 9655   5.933   4.533   9.847
14195TIP3    H1 9656   6.014   4.483   9.827
14195TIP3    H2 9657   5.868   4.490   9.788
14196TIP3   OH2 9658   7.000   5.145  10.583
14196TIP3    H1 9659   6.903   5.144  10.595
14196TIP3    H2 9660   7.033   5.089  10.659
14197TIP3   OH2 9661   5.853   5.468   9.677
14197TIP3    H1 9662   5.846   5.524   9.757
14197TIP3    H2 9663   5.758   5.464   9.654
14198TIP3   OH2 9664   7.096   3.877   9.778
14198TIP3    H1 9665   7.094   3.858   9.875
14198TIP3    H2 9666   7.118   3.787   9.746
14199TIP3   OH2 9667   7.248   5.213  10.226
14199TIP3    H1 9668   7.296   5.273  10.167
14199TIP3    H2 9669   7.203   5.274  10.287
14200TIP3   OH2 9670   7.304   5.567   9.041
14200TIP3    H1 9671   7.236   5.552   8.972
14200TIP3    H2 9672   7.339   5.477   9.051
14201TIP3   OH2 9673   6.806   5.393   8.867
14201TIP3    H1 9674   6.714   5.362   8.866
14201TIP3    H2 9675   6.841   5.347   8.945
14202TIP3   OH2 9676   6.431   5.379  10.708
14202TIP3    H1 9677   6.492   5.306  10.728
14202TIP3    H2 9678   6.387   5.384  10.795
14203TIP3   OH2 9679   6.201   5.300   9.011
14203TIP3    H1 9680   6.220   5.209   8.978
14203TIP3    H2 9681   6.108   5.308   8.979
14204TIP3   OH2 9682   7.317   4.912   8.960
14204TIP3    H1 9683   7.355   4.823   8.965
14204TIP3    H2 9684   7.361   4.954   9.037
14205TIP3   OH2 9685   6.643   4.905   9.060
14205TIP3    H1 9686   6.669   4.967   9.132
14205TIP3    H2 9687   6.646   4.815   9.103
14206TIP3   OH2 9688   6.060   4.900   9.264
14206TIP3    H1 9689   5.974   4.947   9.257
14206TIP3    H2 9690   6.118   4.978   9.255
14207TIP3   OH2 9691   7.171   4.612   9.004
14207TIP3    H1 9692   7.086   4.568   9.002
14207TIP3    H2 9693   7.156   4.678   8.932
14208TIP3   OH2 9694   6.843   4.526   9.332
14208TIP3    H1 9695   6.895   4.610   9.327
14208TIP3    H2 9696   6.763   4.561   9.376
14209TIP3   OH2 9697   6.279   4.815   8.934
14209TIP3    H1 9698   6.225   4.770   9.001
14209TIP3    H2 9699   6.307   4.741   8.877
14210TIP3   OH2 9700   6.703   4.305   9.196
14210TIP3    H1 9701   6.709   4.235   9.265
14210TIP3    H2 9702   6.723   4.384   9.250
14211TIP3   OH2 9703   6.710   4.106   9.411
14211TIP3    H1 9704   6.658   4.150   9.482
14211TIP3    H2 9705   6.801   4.112   9.447
14212TIP3   OH2 9706   6.596   4.675   9.412
14212TIP3    H1 9707   6.509   4.706   9.440
14212TIP3    H2 9708   6.652   4.748   9.447
14213TIP3   OH2 9709   6.180   4.452   8.884
14213TIP3    H1 9710   6.174   4.365   8.837
14213TIP3    H2 9711   6.086   4.473   8.895
14214TIP3   OH2 9712   6.000   4.758   9.041
14214TIP3    H1 9713   6.033   4.797   9.124
14214TIP3    H2 9714   5.909   4.734   9.066
14215TIP3   OH2 9715   6.905   4.370   8.993
14215TIP3    H1 9716   6.985   4.321   9.023
14215TIP3    H2 9717   6.846   4.357   9.069
14216TIP3   OH2 9718   6.625   3.857   9.395
14216TIP3    H1 9719   6.661   3.949   9.391
14216TIP3    H2 9720   6.705   3.809   9.422
14217TIP3   OH2 9721   6.515   4.265   8.979
14217TIP3    H1 9722   6.588   4.253   8.915
14217TIP3    H2 9723   6.567   4.261   9.061
14218TIP3   OH2 9724   6.243   4.231   9.096
14218TIP3    H1 9725   6.336   4.221   9.069
14218TIP3    H2 9726   6.205   4.169   9.029
14219TIP3   OH2 9727   6.156   4.046   8.922
14219TIP3    H1 9728   6.109   3.963   8.903
14219TIP3    H2 9729   6.142   4.102   8.842
14220TIP3   OH2 9730   7.111   4.201   8.997
14220TIP3    H1 9731   7.115   4.116   9.044
14220TIP3    H2 9732   7.122   4.172   8.903
14221TIP3   OH2 9733   6.661   3.801   9.133
14221TIP3    H1 9734   6.577   3.753   9.119
14221TIP3    H2 9735   6.662   3.804   9.231
14222TIP3   OH2 9736   6.660   3.910   8.846
14222TIP3    H1 9737   6.664   3.875   8.938
14222TIP3    H2 9738   6.679   4.004   8.863
14223TIP3   OH2 9739   6.661   5.635  10.550
14223TIP3    H1 9740   6.568   5.664  10.548
14223TIP3    H2 9741   6.674   5.627  10.647
14224TIP3   OH2 9742   7.423   5.618  10.103
14224TIP3    H1 9743   7.481   5.560  10.157
14224TIP3    H2 9744   7.391   5.556  10.034
14225TIP3   OH2 9745   7.313   5.436   9.937
14225TIP3    H1 9746   7.379   5.375   9.898
14225TIP3    H2 9747   7.258   5.456   9.859
14226TIP3   OH2 9748   5.581   5.530   9.671
14226TIP3    H1 9749   5.552   5.536   9.578
14226TIP3    H2 9750   5.523   5.596   9.710
14227TIP3   OH2 9751   5.622   5.469   9.376
14227TIP3    H1 9752   5.655   5.392   9.427
14227TIP3    H2 9753   5.599   5.425   9.292
14228TIP3   OH2 9754   5.745   5.046   8.877
14228TIP3    H1 9755   5.834   5.057   8.837
14228TIP3    H2 9756   5.709   5.137   8.862
14229TIP3   OH2 9757   5.652   4.898  10.337
14229TIP3    H1 9758   5.558   4.916  10.350
14229TIP3    H2 9759   5.650   4.823  10.274
14230TIP3   OH2 9760   5.612   4.702  10.160
14230TIP3    H1 9761   5.682   4.642  10.125
14230TIP3    H2 9762   5.551   4.708  10.082
14231TIP3   OH2 9763   5.648   4.971   9.697
14231TIP3    H1 9764   5.577   4.904   9.709
14231TIP3    H2 9765   5.614   5.053   9.738
14232TIP3   OH2 9766   5.769   5.253   9.440
14232TIP3    H1 9767   5.829   5.305   9.384
14232TIP3    H2 9768   5.825   5.231   9.518
14233TIP3   OH2 9769   5.793   4.525  10.082
14233TIP3    H1 9770   5.836   4.445  10.118
14233TIP3    H2 9771   5.833   4.533   9.993
14234TIP3   OH2 9772   7.333   4.780   9.693
14234TIP3    H1 9773   7.332   4.745   9.784
14234TIP3    H2 9774   7.243   4.751   9.663
14235TIP3   OH2 9775   5.716   4.744   9.125
14235TIP3    H1 9776   5.667   4.659   9.131
14235TIP3    H2 9777   5.650   4.809   9.158
14236TIP3   OH2 9778   5.609   4.488   9.093
14236TIP3    H1 9779   5.703   4.458   9.103
14236TIP3    H2 9780   5.558   4.404   9.086
14237TIP3   OH2 9781   5.869   4.342  10.260
14237TIP3    H1 9782   5.833   4.253  10.239
14237TIP3    H2 9783   5.789   4.386  10.291
14238TIP3   OH2 9784   5.771   4.370   9.703
14238TIP3    H1 9785   5.672   4.379   9.702
14238TIP3    H2 9786   5.791   4.376   9.608
14239TIP3   OH2 9787   5.771   4.444   9.443
14239TIP3    H1 9788   5.857   4.466   9.405
14239TIP3    H2 9789   5.730   4.532   9.456
14240TIP3   OH2 9790   7.337   4.275   9.102
14240TIP3    H1 9791   7.254   4.252   9.055
14240TIP3    H2 9792   7.390   4.193   9.089
14241TIP3   OH2 9793   5.574   3.875   8.929
14241TIP3    H1 9794   5.526   3.804   8.977
14241TIP3    H2 9795   5.578   3.945   8.997
14242TIP3   OH2 9796   5.767   4.102  10.240
14242TIP3    H1 9797   5.752   4.061  10.152
14242TIP3    H2 9798   5.832   4.043  10.280
14243TIP3   OH2 9799   7.234   4.110   9.726
14243TIP3    H1 9800   7.189   4.023   9.737
14243TIP3    H2 9801   7.160   4.173   9.734
14244TIP3   OH2 9802   7.391   4.417   9.682
14244TIP3    H1 9803   7.332   4.391   9.757
14244TIP3    H2 9804   7.358   4.507   9.667
14245TIP3   OH2 9805   5.629   4.090   9.076
14245TIP3    H1 9806   5.699   4.110   9.012
14245TIP3    H2 9807   5.681   4.062   9.154
14246TIP3   OH2 9808   7.352   4.052  10.301
14246TIP3    H1 9809   7.428   4.023  10.248
14246TIP3    H2 9810   7.398   4.093  10.375
14247TIP3   OH2 9811   5.923   5.550  10.086
14247TIP3    H1 9812   5.854   5.548  10.155
14247TIP3    H2 9813   5.878   5.593  10.011
14248TIP3   OH2 9814   7.380   3.896   9.455
14248TIP3    H1 9815   7.445   3.866   9.389
14248TIP3    H2 9816   7.420   3.975   9.495
14249TIP3   OH2 9817   7.157   5.215   9.047
14249TIP3    H1 9818   7.242   5.254   9.075
14249TIP3    H2 9819   7.178   5.177   8.961
14250TIP3   OH2 9820   6.881   5.358   9.386
14250TIP3    H1 9821   6.879   5.452   9.416
14250TIP3    H2 9822   6.786   5.336   9.395
14251TIP3   OH2 9823   6.468   5.475   9.128
14251TIP3    H1 9824   6.455   5.463   9.032
14251TIP3    H2 9825   6.382   5.512   9.155
14252TIP3   OH2 9826   6.234   5.635   9.164
14252TIP3    H1 9827   6.150   5.590   9.181
14252TIP3    H2 9828   6.211   5.694   9.090
14253TIP3   OH2 9829   5.715   3.836   9.271
14253TIP3    H1 9830   5.793   3.876   9.312
14253TIP3    H2 9831   5.709   3.749   9.316
14254TIP3   OH2 9832   7.137   5.681   9.414
14254TIP3    H1 9833   7.223   5.714   9.449
14254TIP3    H2 9834   7.143   5.711   9.322
14255TIP3   OH2 9835   6.898   5.610   9.524
14255TIP3    H1 9836   6.990   5.634   9.496
14255TIP3    H2 9837   6.875   5.686   9.580
14256TIP3   OH2 9838   6.435   5.575   9.581
14256TIP3    H1 9839   6.493   5.619   9.646
14256TIP3    H2 9840   6.403   5.652   9.529
14257TIP3   OH2 9841   6.218   5.457   9.443
14257TIP3    H1 9842   6.287   5.493   9.503
14257TIP3    H2 9843   6.142   5.513   9.468
14258TIP3   OH2 9844   5.945   5.611   9.464
14258TIP3    H1 9845   5.934   5.704   9.490
14258TIP3    H2 9846   5.914   5.567   9.547
14259TIP3   OH2 9847   7.165   5.512   9.712
14259TIP3    H1 9848   7.185   5.454   9.636
14259TIP3    H2 9849   7.075   5.483   9.739
14260TIP3   OH2 9850   6.947   5.420   9.844
14260TIP3    H1 9851   6.965   5.328   9.815
14260TIP3    H2 9852   6.858   5.431   9.803
14261TIP3   OH2 9853   6.717   5.425   9.711
14261TIP3    H1 9854   6.689   5.331   9.716
14261TIP3    H2 9855   6.711   5.441   9.616
14262TIP3   OH2 9856   6.422   3.991   9.923
14262TIP3    H1 9857   6.487   3.980   9.851
14262TIP3    H2 9858   6.368   3.911   9.909
14263TIP3   OH2 9859   5.849   3.803   9.856
14263TIP3    H1 9860   5.774   3.851   9.898
14263TIP3    H2 9861   5.927   3.847   9.897
14264TIP3   OH2 9862   5.684   3.939  10.024
14264TIP3    H1 9863   5.616   3.885  10.068
14264TIP3    H2 9864   5.627   4.011   9.988
14265TIP3   OH2 9865   7.112   3.844  10.046
14265TIP3    H1 9866   7.197   3.840  10.092
14265TIP3    H2 9867   7.075   3.756  10.070
14266TIP3   OH2 9868   7.195   3.865  10.477
14266TIP3    H1 9869   7.189   3.769  10.488
14266TIP3    H2 9870   7.263   3.874  10.409
14267TIP3   OH2 9871   6.698   3.813  10.075
14267TIP3    H1 9872   6.647   3.855  10.146
14267TIP3    H2 9873   6.647   3.835   9.996
14268TIP3   OH2 9874   6.108   3.866   9.961
14268TIP3    H1 9875   6.147   3.870  10.049
14268TIP3    H2 9876   6.149   3.784   9.924
14269TIP3   OH2 9877   6.004   3.858  10.348
14269TIP3    H1 9878   6.092   3.898  10.362
14269TIP3    H2 9879   6.030   3.771  10.311
14270TIP3   OH2 9880   7.257   5.461  10.399
14270TIP3    H1 9881   7.334   5.415  10.435
14270TIP3    H2 9882   7.272   5.553  10.426
14271TIP3   OH2 9883   6.571   4.038  10.403
14271TIP3    H1 9884   6.524   4.010  10.322
14271TIP3    H2 9885   6.560   4.134  10.392
14272TIP3   OH2 9886   6.384   5.638  10.590
14272TIP3    H1 9887   6.299   5.600  10.568
14272TIP3    H2 9888   6.413   5.571  10.656
14273TIP3   OH2 9889   5.738   5.490  10.290
14273TIP3    H1 9890   5.753   5.406  10.338
14273TIP3    H2 9891   5.763   5.557  10.359
14274TIP3   OH2 9892   7.165   3.920   9.142
14274TIP3    H1 9893   7.219   3.840   9.126
14274TIP3    H2 9894   7.095   3.908   9.074
14275TIP3   OH2 9895   6.964   3.863   8.949
14275TIP3    H1 9896   6.883   3.814   8.976
14275TIP3    H2 9897   7.011   3.793   8.900
14276TIP3   OH2 9898   6.108   3.777   8.897
14276TIP3    H1 9899   6.095   3.735   8.808
14276TIP3    H2 9900   6.020   3.762   8.938
14277TIP3   OH2 9901   5.779   5.390   9.076
14277TIP3    H1 9902   5.854   5.378   9.139
14277TIP3    H2 9903   5.797   5.480   9.043
14278TIP3   OH2 9904   4.303   4.790  10.078
14278TIP3    H1 9905   4.299   4.885  10.055
14278TIP3    H2 9906   4.382   4.789  10.133
14279TIP3   OH2 9907   4.445   4.671   9.759
14279TIP3    H1 9908   4.441   4.624   9.673
14279TIP3    H2 9909   4.513   4.624   9.809
14280TIP3   OH2 9910   5.239   4.668   9.605
14280TIP3    H1 9911   5.251   4.587   9.552
14280TIP3    H2 9912   5.166   4.709   9.554
14281TIP3   OH2 9913   4.107   4.990   9.874
14281TIP3    H1 9914   4.113   4.915   9.813
14281TIP3    H2 9915   4.095   5.064   9.813
14282TIP3   OH2 9916   5.122   5.132   9.764
14282TIP3    H1 9917   5.149   5.039   9.778
14282TIP3    H2 9918   5.025   5.120   9.772
14283TIP3   OH2 9919   5.464   4.432  10.207
14283TIP3    H1 9920   5.456   4.529  10.211
14283TIP3    H2 9921   5.540   4.427  10.147
14284TIP3   OH2 9922   5.420   4.676   9.973
14284TIP3    H1 9923   5.375   4.602   9.927
14284TIP3    H2 9924   5.349   4.742   9.984
14285TIP3   OH2 9925   4.369   5.530   9.894
14285TIP3    H1 9926   4.297   5.479   9.941
14285TIP3    H2 9927   4.396   5.459   9.833
14286TIP3   OH2 9928   4.626   4.975   9.667
14286TIP3    H1 9929   4.611   4.898   9.723
14286TIP3    H2 9930   4.538   4.982   9.624
14287TIP3   OH2 9931   3.759   4.087   9.647
14287TIP3    H1 9932   3.745   4.136   9.564
14287TIP3    H2 9933   3.672   4.102   9.690
14288TIP3   OH2 9934   4.259   4.402   9.624
14288TIP3    H1 9935   4.234   4.310   9.604
14288TIP3    H2 9936   4.278   4.392   9.719
14289TIP3   OH2 9937   4.981   4.177   9.958
14289TIP3    H1 9938   4.959   4.255  10.012
14289TIP3    H2 9939   5.015   4.116  10.026
14290TIP3   OH2 9940   4.204   4.200  10.081
14290TIP3    H1 9941   4.152   4.180   9.999
14290TIP3    H2 9942   4.154   4.274  10.118
14291TIP3   OH2 9943   5.320   4.458   9.860
14291TIP3    H1 9944   5.260   4.414   9.797
14291TIP3    H2 9945   5.290   4.418   9.944
14292TIP3   OH2 9946   4.849   4.592   9.911
14292TIP3    H1 9947   4.761   4.553   9.896
14292TIP3    H2 9948   4.889   4.522   9.967
14293TIP3   OH2 9949   3.742   4.231   9.408
14293TIP3    H1 9950   3.773   4.311   9.455
14293TIP3    H2 9951   3.728   4.267   9.319
14294TIP3   OH2 9952   5.060   4.099   9.534
14294TIP3    H1 9953   5.109   4.140   9.608
14294TIP3    H2 9954   5.118   4.121   9.459
14295TIP3   OH2 9955   4.379   5.055  10.182
14295TIP3    H1 9956   4.397   5.046  10.277
14295TIP3    H2 9957   4.401   5.149  10.173
14296TIP3   OH2 9958   4.855   4.856   9.567
14296TIP3    H1 9959   4.918   4.920   9.524
14296TIP3    H2 9960   4.787   4.918   9.601
14297TIP3   OH2 9961   4.032   4.188   9.866
14297TIP3    H1 9962   3.974   4.111   9.868
14297TIP3    H2 9963   3.985   4.245   9.800
14298TIP3   OH2 9964   5.128   4.275   9.739
14298TIP3    H1 9965   5.063   4.338   9.701
14298TIP3    H2 9966   5.079   4.241   9.817
14299TIP3   OH2 9967   4.996   5.063   9.458
14299TIP3    H1 9968   5.013   5.143   9.511
14299TIP3    H2 9969   5.080   5.057   9.407
14300TIP3   OH2 9970   5.385   5.018  10.380
14300TIP3    H1 9971   5.420   5.059  10.462
14300TIP3    H2 9972   5.393   5.090  10.313
14301TIP3   OH2 9973   4.025   5.189   9.669
14301TIP3    H1 9974   4.119   5.209   9.650
14301TIP3    H2 9975   4.002   5.271   9.716
14302TIP3   OH2 9976   4.041   4.018   9.550
14302TIP3    H1 9977   4.110   4.048   9.612
14302TIP3    H2 9978   3.958   4.035   9.600
14303TIP3   OH2 9979   4.749   3.813   9.789
14303TIP3    H1 9980   4.781   3.721   9.785
14303TIP3    H2 9981   4.832   3.862   9.762
14304TIP3   OH2 9982   4.186   5.375  10.009
14304TIP3    H1 9983   4.170   5.305  10.075
14304TIP3    H2 9984   4.111   5.436  10.031
14305TIP3   OH2 9985   4.090   5.165  10.182
14305TIP3    H1 9986   4.112   5.090  10.241
14305TIP3    H2 9987   4.100   5.122  10.095
14306TIP3   OH2 9988   3.937   5.014   9.301
14306TIP3    H1 9989   3.933   4.940   9.366
14306TIP3    H2 9990   3.914   5.088   9.360
14307TIP3   OH2 9991   4.481   4.693  10.355
14307TIP3    H1 9992   4.522   4.780  10.371
14307TIP3    H2 9993   4.391   4.707  10.391
14308TIP3   OH2 9994   3.732   4.665   9.525
14308TIP3    H1 9995   3.800   4.734   9.527
14308TIP3    H2 9996   3.668   4.702   9.589
14309TIP3   OH2 9997   4.093   4.716  10.242
14309TIP3    H1 9998   4.166   4.742  10.182
14309TIP3    H2 9999   4.038   4.662  10.180
14310TIP3   OH210000   4.137   4.556   9.300
14310TIP3    H110001   4.136   4.651   9.287
14310TIP3    H210002   4.198   4.553   9.376
14311TIP3   OH210003   4.994   4.771  10.050
14311TIP3    H110004   5.005   4.731  10.139
14311TIP3    H210005   4.933   4.709  10.005
14312TIP3   OH210006   4.833   5.119   9.787
14312TIP3    H110007   4.825   5.112   9.884
14312TIP3    H210008   4.753   5.073   9.755
14313TIP3   OH210009   4.955   4.637   9.669
14313TIP3    H110010   4.919   4.637   9.761
14313TIP3    H210011   4.909   4.715   9.630
14314TIP3   OH210012   4.280   5.230   9.611
14314TIP3    H110013   4.312   5.288   9.539
14314TIP3    H210014   4.304   5.141   9.576
14315TIP3   OH210015   4.845   5.092   9.233
14315TIP3    H110016   4.913   5.148   9.188
14315TIP3    H210017   4.884   5.085   9.323
14316TIP3   OH210018   4.226   4.662  10.467
14316TIP3    H110019   4.158   4.682  10.397
14316TIP3    H210020   4.190   4.709  10.544
14317TIP3   OH210021   5.125   4.723   9.341
14317TIP3    H110022   5.106   4.804   9.292
14317TIP3    H210023   5.202   4.692   9.290
14318TIP3   OH210024   4.479   5.342  10.188
14318TIP3    H110025   4.485   5.328  10.092
14318TIP3    H210026   4.507   5.436  10.194
14319TIP3   OH210027   5.008   5.275   9.124
14319TIP3    H110028   5.017   5.316   9.213
14319TIP3    H210029   5.102   5.254   9.107
14320TIP3   OH210030   3.852   3.813  10.435
14320TIP3    H110031   3.947   3.838  10.425
14320TIP3    H210032   3.807   3.898  10.434
14321TIP3   OH210033   5.080   4.685  10.311
14321TIP3    H110034   5.119   4.761  10.358
14321TIP3    H210035   5.150   4.619  10.312
14322TIP3   OH210036   5.424   4.937   9.395
14322TIP3    H110037   5.471   4.919   9.478
14322TIP3    H210038   5.396   4.846   9.373
14323TIP3   OH210039   5.466   5.208   9.733
14323TIP3    H110040   5.375   5.179   9.751
14323TIP3    H210041   5.449   5.279   9.668
14324TIP3   OH210042   3.667   5.270   9.155
14324TIP3    H110043   3.676   5.173   9.151
14324TIP3    H210044   3.749   5.294   9.105
14325TIP3   OH210045   4.592   5.215   9.246
14325TIP3    H110046   4.568   5.283   9.179
14325TIP3    H210047   4.682   5.186   9.222
14326TIP3   OH210048   4.530   5.597  10.298
14326TIP3    H110049   4.569   5.629  10.381
14326TIP3    H210050   4.526   5.683  10.249
14327TIP3   OH210051   5.175   5.497  10.084
14327TIP3    H110052   5.130   5.472  10.000
14327TIP3    H210053   5.252   5.438  10.083
14328TIP3   OH210054   4.246   5.532  10.285
14328TIP3    H110055   4.339   5.546  10.260
14328TIP3    H210056   4.240   5.436  10.284
14329TIP3   OH210057   3.971   4.404   9.113
14329TIP3    H110058   4.020   4.455   9.180
14329TIP3    H210059   3.974   4.313   9.150
14330TIP3   OH210060   5.208   5.062   9.297
14330TIP3    H110061   5.204   5.031   9.205
14330TIP3    H210062   5.296   5.029   9.327
14331TIP3   OH210063   4.956   3.938   9.706
14331TIP3    H110064   5.046   3.923   9.741
14331TIP3    H210065   4.977   3.993   9.627
14332TIP3   OH210066   4.449   3.879   9.399
14332TIP3    H110067   4.420   3.838   9.314
14332TIP3    H210068   4.546   3.886   9.387
14333TIP3   OH210069   4.183   4.279   9.281
14333TIP3    H110070   4.241   4.242   9.209
14333TIP3    H210071   4.177   4.372   9.252
14334TIP3   OH210072   4.496   4.158  10.643
14334TIP3    H110073   4.550   4.141  10.565
14334TIP3    H210074   4.507   4.083  10.704
14335TIP3   OH210075   4.943   4.394   9.572
14335TIP3    H110076   5.027   4.399   9.522
14335TIP3    H210077   4.942   4.486   9.609
14336TIP3   OH210078   4.975   4.407  10.096
14336TIP3    H110079   5.073   4.392  10.096
14336TIP3    H210080   4.952   4.387  10.189
14337TIP3   OH210081   4.393   4.499  10.191
14337TIP3    H110082   4.431   4.572  10.246
14337TIP3    H210083   4.346   4.448  10.261
14338TIP3   OH210084   4.511   4.510   9.051
14338TIP3    H110085   4.540   4.423   9.018
14338TIP3    H210086   4.421   4.513   9.014
14339TIP3   OH210087   4.289   4.453   9.911
14339TIP3    H110088   4.307   4.537   9.959
14339TIP3    H210089   4.306   4.390   9.982
14340TIP3   OH210090   5.202   4.421   9.457
14340TIP3    H110091   5.165   4.452   9.374
14340TIP3    H210092   5.234   4.332   9.429
14341TIP3   OH210093   4.941   4.211  10.737
14341TIP3    H110094   4.918   4.139  10.677
14341TIP3    H210095   4.881   4.192  10.814
14342TIP3   OH210096   5.502   4.139   9.984
14342TIP3    H110097   5.431   4.129   9.919
14342TIP3    H210098   5.458   4.174  10.063
14343TIP3   OH210099   5.433   4.227  10.457
14343TIP3    H110100   5.339   4.211  10.474
14343TIP3    H210101   5.433   4.252  10.363
14344TIP3   OH210102   4.395   4.594   9.492
14344TIP3    H110103   4.334   4.529   9.536
14344TIP3    H210104   4.448   4.534   9.435
14345TIP3   OH210105   4.661   4.154   9.994
14345TIP3    H110106   4.750   4.155   9.953
14345TIP3    H210107   4.607   4.106   9.927
14346TIP3   OH210108   5.228   4.323  10.095
14346TIP3    H110109   5.301   4.340  10.158
14346TIP3    H210110   5.192   4.235  10.122
14347TIP3   OH210111   4.892   4.354  10.348
14347TIP3    H110112   4.803   4.347  10.307
14347TIP3    H210113   4.887   4.437  10.396
14348TIP3   OH210114   4.262   4.106   9.678
14348TIP3    H110115   4.336   4.090   9.618
14348TIP3    H210116   4.278   4.044   9.751
14349TIP3   OH210117   3.971   5.659   9.013
14349TIP3    H110118   3.927   5.685   9.096
14349TIP3    H210119   3.897   5.673   8.950
14350TIP3   OH210120   5.170   4.887   9.070
14350TIP3    H110121   5.116   4.893   8.988
14350TIP3    H210122   5.260   4.886   9.031
14351TIP3   OH210123   4.608   4.463   9.854
14351TIP3    H110124   4.520   4.428   9.874
14351TIP3    H210125   4.637   4.407   9.780
14352TIP3   OH210126   5.121   4.079  10.178
14352TIP3    H110127   5.161   4.000  10.136
14352TIP3    H210128   5.100   4.048  10.267
14353TIP3   OH210129   4.699   4.277   9.579
14353TIP3    H110130   4.783   4.328   9.580
14353TIP3    H210131   4.643   4.328   9.517
14354TIP3   OH210132   4.662   4.907  10.375
14354TIP3    H110133   4.720   4.838  10.340
14354TIP3    H210134   4.675   4.970  10.302
14355TIP3   OH210135   3.917   4.863   9.516
14355TIP3    H110136   3.865   4.915   9.582
14355TIP3    H210137   4.002   4.857   9.561
14356TIP3   OH210138   4.534   4.949   9.272
14356TIP3    H110139   4.562   4.925   9.183
14356TIP3    H210140   4.559   5.043   9.274
14357TIP3   OH210141   4.253   4.387  10.393
14357TIP3    H110142   4.162   4.389  10.357
14357TIP3    H210143   4.253   4.466  10.452
14358TIP3   OH210144   5.139   4.863   9.831
14358TIP3    H110145   5.090   4.843   9.913
14358TIP3    H210146   5.121   4.783   9.778
14359TIP3   OH210147   4.475   5.087  10.438
14359TIP3    H110148   4.519   5.173  10.451
14359TIP3    H210149   4.548   5.021  10.438
14360TIP3   OH210150   5.451   4.684   9.270
14360TIP3    H110151   5.451   4.620   9.197
14360TIP3    H210152   5.499   4.635   9.340
14361TIP3   OH210153   4.754   4.642   9.105
14361TIP3    H110154   4.803   4.583   9.165
14361TIP3    H210155   4.664   4.604   9.109
14362TIP3   OH210156   4.252   5.181   9.249
14362TIP3    H110157   4.335   5.195   9.296
14362TIP3    H210158   4.273   5.227   9.166
14363TIP3   OH210159   3.706   4.402  10.419
14363TIP3    H110160   3.764   4.376  10.495
14363TIP3    H210161   3.701   4.499  10.440
14364TIP3   OH210162   3.687   4.995   9.176
14364TIP3    H110163   3.782   5.000   9.204
14364TIP3    H210164   3.643   4.983   9.263
14365TIP3   OH210165   3.874   5.237  10.367
14365TIP3    H110166   3.951   5.245  10.306
14365TIP3    H210167   3.851   5.145  10.351
14366TIP3   OH210168   4.158   4.763   9.707
14366TIP3    H110169   4.249   4.756   9.740
14366TIP3    H210170   4.116   4.692   9.759
14367TIP3   OH210171   4.912   5.201  10.055
14367TIP3    H110172   4.858   5.280  10.074
14367TIP3    H210173   4.994   5.223  10.102
14368TIP3   OH210174   4.790   4.977  10.142
14368TIP3    H110175   4.832   5.059  10.109
14368TIP3    H210176   4.822   4.911  10.079
14369TIP3   OH210177   4.721   5.391   9.429
14369TIP3    H110178   4.648   5.447   9.460
14369TIP3    H210179   4.672   5.339   9.361
14370TIP3   OH210180   4.885   5.450  10.161
14370TIP3    H110181   4.979   5.469  10.150
14370TIP3    H210182   4.849   5.538  10.137
14371TIP3   OH210183   4.398   4.980   9.516
14371TIP3    H110184   4.436   4.952   9.429
14371TIP3    H210185   4.352   4.899   9.544
14372TIP3   OH210186   4.070   5.438   9.274
14372TIP3    H110187   4.157   5.400   9.293
14372TIP3    H210188   4.058   5.500   9.351
14373TIP3   OH210189   5.242   4.182   9.323
14373TIP3    H110190   5.314   4.217   9.267
14373TIP3    H210191   5.231   4.093   9.283
14374TIP3   OH210192   4.035   4.939  10.386
14374TIP3    H110193   4.048   4.855  10.339
14374TIP3    H210194   3.938   4.945  10.387
14375TIP3   OH210195   5.317   5.338   9.511
14375TIP3    H110196   5.244   5.280   9.483
14375TIP3    H210197   5.337   5.390   9.432
14376TIP3   OH210198   5.172   4.883  10.478
14376TIP3    H110199   5.253   4.910  10.429
14376TIP3    H210200   5.134   4.968  10.499
14377TIP3   OH210201   4.415   4.157   9.405
14377TIP3    H110202   4.322   4.172   9.379
14377TIP3    H210203   4.426   4.061   9.393
14378TIP3   OH210204   4.351   4.106  10.280
14378TIP3    H110205   4.312   4.143  10.361
14378TIP3    H210206   4.303   4.157  10.212
14379TIP3   OH210207   4.571   5.335  10.467
14379TIP3    H110208   4.657   5.379  10.467
14379TIP3    H210209   4.535   5.369  10.383
14380TIP3   OH210210   4.642   4.314  10.225
14380TIP3    H110211   4.565   4.371  10.206
14380TIP3    H210212   4.649   4.255  10.147
14381TIP3   OH210213   4.521   4.415   9.321
14381TIP3    H110214   4.514   4.436   9.225
14381TIP3    H210215   4.480   4.326   9.330
14382TIP3   OH210216   4.528   3.955  10.148
14382TIP3    H110217   4.575   4.026  10.098
14382TIP3    H210218   4.452   4.007  10.185
14383TIP3   OH210219   4.947   4.106  10.454
14383TIP3    H110220   4.945   4.196  10.416
14383TIP3    H210221   4.851   4.086  10.452
14384TIP3   OH210222   3.946   4.154   9.243
14384TIP3    H110223   4.040   4.166   9.264
14384TIP3    H210224   3.903   4.166   9.330
14385TIP3   OH210225   4.038   4.537   9.855
14385TIP3    H110226   4.120   4.484   9.853
14385TIP3    H210227   3.977   4.484   9.800
14386TIP3   OH210228   3.972   5.472   9.687
14386TIP3    H110229   3.964   5.536   9.762
14386TIP3    H210230   3.878   5.460   9.666
14387TIP3   OH210231   5.213   3.875   9.769
14387TIP3    H110232   5.217   3.856   9.865
14387TIP3    H210233   5.250   3.792   9.732
14388TIP3   OH210234   5.343   5.240  10.195
14388TIP3    H110235   5.408   5.274  10.132
14388TIP3    H210236   5.349   5.306  10.267
14389TIP3   OH210237   5.423   5.565   9.048
14389TIP3    H110238   5.359   5.554   8.973
14389TIP3    H210239   5.455   5.473   9.053
14390TIP3   OH210240   4.922   5.394   8.867
14390TIP3    H110241   4.830   5.362   8.864
14390TIP3    H210242   4.957   5.347   8.945
14391TIP3   OH210243   4.312   5.301   9.015
14391TIP3    H110244   4.331   5.211   8.981
14391TIP3    H210245   4.222   5.313   8.977
14392TIP3   OH210246   5.432   4.908   8.959
14392TIP3    H110247   5.480   4.824   8.952
14392TIP3    H210248   5.474   4.949   9.039
14393TIP3   OH210249   4.752   4.905   9.059
14393TIP3    H110250   4.786   4.963   9.131
14393TIP3    H210251   4.760   4.812   9.093
14394TIP3   OH210252   4.186   4.901   9.265
14394TIP3    H110253   4.102   4.953   9.265
14394TIP3    H210254   4.245   4.977   9.254
14395TIP3   OH210255   5.287   4.605   9.007
14395TIP3    H110256   5.227   4.537   8.973
14395TIP3    H210257   5.271   4.677   8.942
14396TIP3   OH210258   4.935   4.526   9.298
14396TIP3    H110259   5.001   4.597   9.292
14396TIP3    H210260   4.874   4.565   9.364
14397TIP3   OH210261   4.394   4.810   8.933
14397TIP3    H110262   4.346   4.760   9.001
14397TIP3    H210263   4.425   4.740   8.872
14398TIP3   OH210264   3.774   4.821  10.748
14398TIP3    H110265   3.781   4.791  10.839
14398TIP3    H210266   3.869   4.833  10.729
14399TIP3   OH210267   4.811   4.297   9.196
14399TIP3    H110268   4.811   4.236   9.273
14399TIP3    H210269   4.833   4.381   9.239
14400TIP3   OH210270   4.816   4.110   9.415
14400TIP3    H110271   4.759   4.152   9.484
14400TIP3    H210272   4.904   4.120   9.458
14401TIP3   OH210273   4.719   4.674   9.417
14401TIP3    H110274   4.628   4.693   9.445
14401TIP3    H210275   4.766   4.753   9.452
14402TIP3   OH210276   4.288   4.448   8.884
14402TIP3    H110277   4.281   4.363   8.833
14402TIP3    H210278   4.195   4.469   8.902
14403TIP3   OH210279   4.104   4.751   9.049
14403TIP3    H110280   4.146   4.792   9.127
14403TIP3    H210281   4.012   4.739   9.081
14404TIP3   OH210282   5.022   4.371   8.991
14404TIP3    H110283   5.097   4.317   9.028
14404TIP3    H210284   4.966   4.381   9.070
14405TIP3   OH210285   4.743   3.856   9.397
14405TIP3    H110286   4.778   3.948   9.390
14405TIP3    H210287   4.822   3.809   9.425
14406TIP3   OH210288   4.632   4.266   8.978
14406TIP3    H110289   4.701   4.251   8.910
14406TIP3    H210290   4.689   4.264   9.058
14407TIP3   OH210291   4.373   4.218   9.092
14407TIP3    H110292   4.467   4.213   9.065
14407TIP3    H210293   4.336   4.160   9.021
14408TIP3   OH210294   4.268   4.043   8.925
14408TIP3    H110295   4.218   3.961   8.906
14408TIP3    H210296   4.251   4.100   8.847
14409TIP3   OH210297   5.228   4.194   9.005
14409TIP3    H110298   5.250   4.109   9.047
14409TIP3    H210299   5.236   4.171   8.909
14410TIP3   OH210300   4.780   3.808   9.134
14410TIP3    H110301   4.698   3.757   9.121
14410TIP3    H210302   4.776   3.821   9.231
14411TIP3   OH210303   4.762   3.908   8.857
14411TIP3    H110304   4.778   3.869   8.945
14411TIP3    H210305   4.764   4.003   8.880
14412TIP3   OH210306   4.735   5.678  10.614
14412TIP3    H110307   4.761   5.771  10.599
14412TIP3    H210308   4.814   5.636  10.647
14413TIP3   OH210309   5.440   5.080  10.637
14413TIP3    H110310   5.363   5.044  10.682
14413TIP3    H210311   5.513   5.055  10.697
14414TIP3   OH210312   5.544   5.613  10.143
14414TIP3    H110313   5.615   5.555  10.180
14414TIP3    H210314   5.500   5.551  10.082
14415TIP3   OH210315   5.446   5.443   9.949
14415TIP3    H110316   5.515   5.400   9.895
14415TIP3    H210317   5.384   5.468   9.878
14416TIP3   OH210318   3.691   5.534   9.676
14416TIP3    H110319   3.672   5.535   9.581
14416TIP3    H210320   3.627   5.600   9.707
14417TIP3   OH210321   3.743   5.474   9.374
14417TIP3    H110322   3.782   5.398   9.423
14417TIP3    H210323   3.712   5.427   9.295
14418TIP3   OH210324   3.861   5.051   8.883
14418TIP3    H110325   3.950   5.060   8.844
14418TIP3    H210326   3.824   5.139   8.858
14419TIP3   OH210327   3.747   4.892  10.353
14419TIP3    H110328   3.654   4.923  10.350
14419TIP3    H210329   3.751   4.827  10.278
14420TIP3   OH210330   3.714   4.697  10.157
14420TIP3    H110331   3.798   4.648  10.138
14420TIP3    H210332   3.679   4.710  10.066
14421TIP3   OH210333   3.760   4.972   9.691
14421TIP3    H110334   3.689   4.908   9.714
14421TIP3    H210335   3.718   5.058   9.707
14422TIP3   OH210336   3.885   5.254   9.447
14422TIP3    H110337   3.957   5.293   9.395
14422TIP3    H210338   3.933   5.226   9.529
14423TIP3   OH210339   3.713   4.660  10.492
14423TIP3    H110340   3.744   4.703  10.573
14423TIP3    H210341   3.702   4.739  10.436
14424TIP3   OH210342   3.841   4.375  10.646
14424TIP3    H110343   3.859   4.446  10.711
14424TIP3    H210344   3.917   4.319  10.668
14425TIP3   OH210345   3.931   4.562  10.095
14425TIP3    H110346   3.963   4.474  10.121
14425TIP3    H210347   3.957   4.564  10.000
14426TIP3   OH210348   5.457   4.775   9.700
14426TIP3    H110349   5.459   4.734   9.789
14426TIP3    H210350   5.362   4.763   9.678
14427TIP3   OH210351   3.829   4.737   9.125
14427TIP3    H110352   3.790   4.647   9.121
14427TIP3    H210353   3.756   4.790   9.162
14428TIP3   OH210354   3.724   4.489   9.089
14428TIP3    H110355   3.812   4.445   9.094
14428TIP3    H210356   3.663   4.412   9.078
14429TIP3   OH210357   3.994   4.337  10.252
14429TIP3    H110358   3.981   4.241  10.239
14429TIP3    H210359   3.914   4.355  10.304
14430TIP3   OH210360   3.885   4.371   9.713
14430TIP3    H110361   3.787   4.380   9.714
14430TIP3    H210362   3.902   4.381   9.617
14431TIP3   OH210363   3.891   4.446   9.452
14431TIP3    H110364   3.981   4.471   9.424
14431TIP3    H210365   3.850   4.532   9.476
14432TIP3   OH210366   5.448   4.279   9.113
14432TIP3    H110367   5.366   4.258   9.065
14432TIP3    H210368   5.504   4.200   9.093
14433TIP3   OH210369   3.685   3.872   8.930
14433TIP3    H110370   3.638   3.800   8.978
14433TIP3    H210371   3.688   3.942   8.999
14434TIP3   OH210372   3.922   4.061  10.246
14434TIP3    H110373   3.886   4.010  10.169
14434TIP3    H210374   3.981   3.997  10.289
14435TIP3   OH210375   5.351   4.104   9.735
14435TIP3    H110376   5.297   4.022   9.735
14435TIP3    H210377   5.283   4.174   9.737
14436TIP3   OH210378   5.511   4.416   9.682
14436TIP3    H110379   5.449   4.389   9.752
14436TIP3    H210380   5.470   4.499   9.655
14437TIP3   OH210381   3.739   4.088   9.076
14437TIP3    H110382   3.813   4.114   9.017
14437TIP3    H210383   3.788   4.055   9.154
14438TIP3   OH210384   5.481   4.045  10.263
14438TIP3    H110385   5.571   4.022  10.238
14438TIP3    H210386   5.491   4.070  10.355
14439TIP3   OH210387   4.003   5.550  10.067
14439TIP3    H110388   3.944   5.539  10.143
14439TIP3    H210389   3.961   5.617  10.011
14440TIP3   OH210390   5.494   3.897   9.456
14440TIP3    H110391   5.556   3.871   9.386
14440TIP3    H210392   5.542   3.964   9.507
14441TIP3   OH210393   5.271   5.216   9.052
14441TIP3    H110394   5.356   5.255   9.076
14441TIP3    H210395   5.290   5.174   8.967
14442TIP3   OH210396   4.988   5.362   9.387
14442TIP3    H110397   4.993   5.454   9.421
14442TIP3    H210398   4.891   5.348   9.395
14443TIP3   OH210399   4.577   5.475   9.130
14443TIP3    H110400   4.566   5.468   9.033
14443TIP3    H210401   4.492   5.517   9.154
14444TIP3   OH210402   4.357   5.634   9.169
14444TIP3    H110403   4.274   5.588   9.189
14444TIP3    H210404   4.332   5.689   9.092
14445TIP3   OH210405   3.827   3.835   9.275
14445TIP3    H110406   3.912   3.866   9.311
14445TIP3    H210407   3.817   3.746   9.315
14446TIP3   OH210408   5.253   5.669   9.421
14446TIP3    H110409   5.332   5.711   9.459
14446TIP3    H210410   5.259   5.702   9.330
14447TIP3   OH210411   5.010   5.616   9.519
14447TIP3    H110412   5.101   5.635   9.486
14447TIP3    H210413   5.000   5.685   9.588
14448TIP3   OH210414   4.550   5.584   9.574
14448TIP3    H110415   4.630   5.632   9.597
14448TIP3    H210416   4.503   5.653   9.522
14449TIP3   OH210417   4.327   5.454   9.450
14449TIP3    H110418   4.389   5.493   9.514
14449TIP3    H210419   4.250   5.512   9.465
14450TIP3   OH210420   4.062   5.615   9.474
14450TIP3    H110421   4.046   5.706   9.505
14450TIP3    H210422   4.035   5.567   9.555
14451TIP3   OH210423   5.290   5.506   9.723
14451TIP3    H110424   5.311   5.442   9.651
14451TIP3    H210425   5.199   5.478   9.747
14452TIP3   OH210426   5.068   5.418   9.846
14452TIP3    H110427   5.080   5.321   9.836
14452TIP3    H210428   4.979   5.425   9.804
14453TIP3   OH210429   4.838   5.405   9.711
14453TIP3    H110430   4.805   5.314   9.715
14453TIP3    H210431   4.825   5.428   9.618
14454TIP3   OH210432   4.539   3.947   9.848
14454TIP3    H110433   4.623   3.908   9.814
14454TIP3    H210434   4.501   3.869   9.890
14455TIP3   OH210435   3.957   3.793   9.858
14455TIP3    H110436   3.893   3.853   9.901
14455TIP3    H210437   4.041   3.827   9.896
14456TIP3   OH210438   3.799   3.936  10.033
14456TIP3    H110439   3.742   3.867  10.073
14456TIP3    H210440   3.733   4.006  10.010
14457TIP3   OH210441   5.233   3.859  10.057
14457TIP3    H110442   5.321   3.849  10.097
14457TIP3    H210443   5.193   3.771  10.075
14458TIP3   OH210444   4.805   3.828  10.076
14458TIP3    H110445   4.740   3.859  10.140
14458TIP3    H210446   4.758   3.840   9.992
14459TIP3   OH210447   4.208   3.861   9.956
14459TIP3    H110448   4.256   3.885  10.036
14459TIP3    H210449   4.268   3.795   9.915
14460TIP3   OH210450   4.109   3.861  10.388
14460TIP3    H110451   4.183   3.874  10.450
14460TIP3    H210452   4.140   3.784  10.335
14461TIP3   OH210453   5.404   5.431  10.394
14461TIP3    H110454   5.455   5.467  10.471
14461TIP3    H210455   5.409   5.508  10.336
14462TIP3   OH210456   4.660   4.097  10.393
14462TIP3    H110457   4.619   4.037  10.330
14462TIP3    H210458   4.645   4.184  10.351
14463TIP3   OH210459   3.837   5.494  10.271
14463TIP3    H110460   3.845   5.416  10.330
14463TIP3    H210461   3.846   5.567  10.337
14464TIP3   OH210462   5.280   3.927   9.137
14464TIP3    H110463   5.331   3.845   9.126
14464TIP3    H210464   5.205   3.911   9.074
14465TIP3   OH210465   5.080   3.867   8.946
14465TIP3    H110466   5.000   3.817   8.971
14465TIP3    H210467   5.126   3.801   8.891
14466TIP3   OH210468   4.223   3.780   8.891
14466TIP3    H110469   4.209   3.738   8.803
14466TIP3    H210470   4.136   3.763   8.934
14467TIP3   OH210471   3.892   5.388   9.077
14467TIP3    H110472   3.961   5.382   9.147
14467TIP3    H210473   3.914   5.473   9.036
14468TIP3   OH210474   2.435   4.797  10.107
14468TIP3    H110475   2.431   4.895  10.120
14468TIP3    H210476   2.528   4.786  10.088
14469TIP3   OH210477   2.537   4.664   9.760
14469TIP3    H110478   2.525   4.623   9.672
14469TIP3    H210479   2.618   4.621   9.794
14470TIP3   OH210480   3.352   4.666   9.592
14470TIP3    H110481   3.357   4.588   9.533
14470TIP3    H210482   3.268   4.705   9.560
14471TIP3   OH210483   2.226   4.997   9.887
14471TIP3    H110484   2.224   4.919   9.828
14471TIP3    H210485   2.215   5.069   9.824
14472TIP3   OH210486   3.241   5.134   9.770
14472TIP3    H110487   3.267   5.040   9.779
14472TIP3    H210488   3.146   5.123   9.785
14473TIP3   OH210489   3.554   4.457  10.201
14473TIP3    H110490   3.612   4.525  10.166
14473TIP3    H210491   3.595   4.444  10.289
14474TIP3   OH210492   3.529   4.683   9.936
14474TIP3    H110493   3.489   4.594   9.922
14474TIP3    H210494   3.461   4.731   9.987
14475TIP3   OH210495   2.476   5.538   9.918
14475TIP3    H110496   2.408   5.475   9.954
14475TIP3    H210497   2.501   5.488   9.840
14476TIP3   OH210498   2.753   4.939   9.636
14476TIP3    H110499   2.728   4.910   9.724
14476TIP3    H210500   2.665   4.958   9.596
14477TIP3   OH210501   1.870   4.084   9.642
14477TIP3    H110502   1.853   4.137   9.561
14477TIP3    H210503   1.795   4.111   9.696
14478TIP3   OH210504   2.363   4.393   9.652
14478TIP3    H110505   2.362   4.298   9.631
14478TIP3    H210506   2.363   4.386   9.750
14479TIP3   OH210507   3.093   4.168   9.955
14479TIP3    H110508   3.076   4.257   9.992
14479TIP3    H210509   3.149   4.133  10.027
14480TIP3   OH210510   2.335   4.203  10.086
14480TIP3    H110511   2.280   4.174  10.009
14480TIP3    H210512   2.280   4.275  10.122
14481TIP3   OH210513   3.439   4.435   9.865
14481TIP3    H110514   3.368   4.398   9.809
14481TIP3    H210515   3.411   4.400   9.952
14482TIP3   OH210516   2.957   4.586   9.905
14482TIP3    H110517   2.873   4.540   9.884
14482TIP3    H210518   3.011   4.511   9.939
14483TIP3   OH210519   1.856   4.229   9.409
14483TIP3    H110520   1.889   4.315   9.443
14483TIP3    H210521   1.829   4.255   9.320
14484TIP3   OH210522   3.174   4.097   9.527
14484TIP3    H110523   3.223   4.141   9.600
14484TIP3    H210524   3.235   4.114   9.453
14485TIP3   OH210525   2.497   5.069  10.171
14485TIP3    H110526   2.517   5.062  10.266
14485TIP3    H210527   2.500   5.165  10.159
14486TIP3   OH210528   2.986   4.851   9.532
14486TIP3    H110529   3.044   4.926   9.505
14486TIP3    H210530   2.907   4.897   9.568
14487TIP3   OH210531   2.144   4.167   9.898
14487TIP3    H110532   2.147   4.089   9.841
14487TIP3    H210533   2.063   4.210   9.865
14488TIP3   OH210534   3.238   4.277   9.734
14488TIP3    H110535   3.177   4.342   9.692
14488TIP3    H210536   3.185   4.245   9.810
14489TIP3   OH210537   3.115   5.065   9.452
14489TIP3    H110538   3.131   5.144   9.506
14489TIP3    H210539   3.200   5.061   9.403
14490TIP3   OH210540   3.505   5.007  10.368
14490TIP3    H110541   3.499   5.081  10.429
14490TIP3    H210542   3.495   5.060  10.286
14491TIP3   OH210543   2.131   5.185   9.659
14491TIP3    H110544   2.227   5.202   9.645
14491TIP3    H210545   2.111   5.263   9.713
14492TIP3   OH210546   2.150   4.016   9.556
14492TIP3    H110547   2.221   4.048   9.616
14492TIP3    H210548   2.068   4.045   9.599
14493TIP3   OH210549   2.859   3.815   9.791
14493TIP3    H110550   2.894   3.724   9.792
14493TIP3    H210551   2.942   3.865   9.769
14494TIP3   OH210552   2.295   5.367  10.014
14494TIP3    H110553   2.278   5.285  10.065
14494TIP3    H210554   2.222   5.424  10.047
14495TIP3   OH210555   2.202   5.150  10.176
14495TIP3    H110556   2.205   5.082  10.247
14495TIP3    H210557   2.221   5.096  10.099
14496TIP3   OH210558   2.049   5.014   9.300
14496TIP3    H110559   2.038   4.943   9.368
14496TIP3    H210560   2.031   5.092   9.355
14497TIP3   OH210561   2.590   4.712  10.371
14497TIP3    H110562   2.665   4.774  10.373
14497TIP3    H210563   2.513   4.771  10.365
14498TIP3   OH210564   1.828   4.669   9.518
14498TIP3    H110565   1.901   4.733   9.524
14498TIP3    H210566   1.767   4.703   9.587
14499TIP3   OH210567   2.238   4.655  10.240
14499TIP3    H110568   2.308   4.700  10.187
14499TIP3    H210569   2.169   4.635  10.174
14500TIP3   OH210570   2.250   4.558   9.317
14500TIP3    H110571   2.249   4.651   9.290
14500TIP3    H210572   2.315   4.564   9.389
14501TIP3   OH210573   3.064   4.772  10.052
14501TIP3    H110574   3.098   4.734  10.136
14501TIP3    H210575   3.008   4.699  10.017
14502TIP3   OH210576   2.947   5.105   9.773
14502TIP3    H110577   2.928   5.094   9.867
14502TIP3    H210578   2.879   5.053   9.728
14503TIP3   OH210579   3.070   4.644   9.668
14503TIP3    H110580   3.026   4.645   9.756
14503TIP3    H210581   3.027   4.719   9.622
14504TIP3   OH210582   2.385   5.231   9.606
14504TIP3    H110583   2.422   5.288   9.536
14504TIP3    H210584   2.408   5.142   9.574
14505TIP3   OH210585   2.955   5.101   9.242
14505TIP3    H110586   3.025   5.151   9.195
14505TIP3    H210587   3.001   5.085   9.328
14506TIP3   OH210588   3.242   4.726   9.335
14506TIP3    H110589   3.232   4.807   9.284
14506TIP3    H210590   3.322   4.691   9.294
14507TIP3   OH210591   2.568   5.397  10.156
14507TIP3    H110592   2.539   5.443  10.076
14507TIP3    H210593   2.631   5.459  10.195
14508TIP3   OH210594   3.130   5.275   9.127
14508TIP3    H110595   3.142   5.314   9.216
14508TIP3    H210596   3.223   5.252   9.106
14509TIP3   OH210597   1.977   3.809  10.407
14509TIP3    H110598   2.075   3.824  10.415
14509TIP3    H210599   1.945   3.856  10.486
14510TIP3   OH210600   3.193   4.672  10.273
14510TIP3    H110601   3.247   4.747  10.300
14510TIP3    H210602   3.253   4.597  10.283
14511TIP3   OH210603   3.553   4.939   9.394
14511TIP3    H110604   3.601   4.923   9.477
14511TIP3    H210605   3.511   4.852   9.382
14512TIP3   OH210606   3.579   5.209   9.726
14512TIP3    H110607   3.501   5.156   9.702
14512TIP3    H210608   3.569   5.286   9.669
14513TIP3   OH210609   1.785   5.280   9.141
14513TIP3    H110610   1.795   5.183   9.143
14513TIP3    H210611   1.869   5.304   9.095
14514TIP3   OH210612   2.697   5.217   9.240
14514TIP3    H110613   2.679   5.289   9.176
14514TIP3    H210614   2.792   5.196   9.228
14515TIP3   OH210615   2.659   5.622  10.336
14515TIP3    H110616   2.611   5.633  10.422
14515TIP3    H210617   2.624   5.695  10.283
14516TIP3   OH210618   3.267   5.471  10.084
14516TIP3    H110619   3.229   5.454   9.994
14516TIP3    H210620   3.360   5.453  10.067
14517TIP3   OH210621   2.352   5.518  10.291
14517TIP3    H110622   2.433   5.506  10.342
14517TIP3    H210623   2.347   5.433  10.244
14518TIP3   OH210624   2.078   4.405   9.106
14518TIP3    H110625   2.130   4.445   9.179
14518TIP3    H210626   2.072   4.311   9.133
14519TIP3   OH210627   3.333   5.065   9.308
14519TIP3    H110628   3.329   5.029   9.216
14519TIP3    H210629   3.421   5.033   9.337
14520TIP3   OH210630   3.073   3.931   9.706
14520TIP3    H110631   3.154   3.958   9.752
14520TIP3    H210632   3.086   3.977   9.621
14521TIP3   OH210633   2.572   3.893   9.389
14521TIP3    H110634   2.536   3.846   9.310
14521TIP3    H210635   2.667   3.896   9.367
14522TIP3   OH210636   2.310   4.287   9.288
14522TIP3    H110637   2.359   4.251   9.210
14522TIP3    H210638   2.316   4.382   9.270
14523TIP3   OH210639   2.198   4.757  10.630
14523TIP3    H110640   2.165   4.696  10.697
14523TIP3    H210641   2.120   4.817  10.620
14524TIP3   OH210642   3.052   4.399   9.577
14524TIP3    H110643   3.131   4.399   9.519
14524TIP3    H210644   3.058   4.491   9.612
14525TIP3   OH210645   3.084   4.406  10.061
14525TIP3    H110646   3.176   4.400  10.093
14525TIP3    H210647   3.034   4.385  10.144
14526TIP3   OH210648   2.535   4.492  10.217
14526TIP3    H110649   2.555   4.576  10.263
14526TIP3    H210650   2.452   4.467  10.264
14527TIP3   OH210651   2.620   4.508   9.054
14527TIP3    H110652   2.651   4.423   9.018
14527TIP3    H210653   2.535   4.515   9.008
14528TIP3   OH210654   2.375   4.445   9.935
14528TIP3    H110655   2.412   4.527   9.970
14528TIP3    H210656   2.413   4.379   9.995
14529TIP3   OH210657   3.307   4.413   9.449
14529TIP3    H110658   3.275   4.451   9.366
14529TIP3    H210659   3.339   4.326   9.416
14530TIP3   OH210660   3.615   4.131   9.985
14530TIP3    H110661   3.549   4.144   9.915
14530TIP3    H210662   3.577   4.174  10.062
14531TIP3   OH210663   3.516   4.214  10.470
14531TIP3    H110664   3.453   4.258  10.529
14531TIP3    H210665   3.584   4.284  10.461
14532TIP3   OH210666   2.501   4.578   9.494
14532TIP3    H110667   2.448   4.510   9.541
14532TIP3    H210668   2.557   4.524   9.434
14533TIP3   OH210669   2.781   4.163   9.987
14533TIP3    H110670   2.876   4.161   9.967
14533TIP3    H210671   2.742   4.113   9.913
14534TIP3   OH210672   3.349   4.331  10.094
14534TIP3    H110673   3.420   4.368  10.152
14534TIP3    H210674   3.331   4.245  10.137
14535TIP3   OH210675   2.989   4.356  10.302
14535TIP3    H110676   2.891   4.354  10.301
14535TIP3    H210677   3.009   4.389  10.390
14536TIP3   OH210678   2.374   4.100   9.684
14536TIP3    H110679   2.447   4.092   9.620
14536TIP3    H210680   2.394   4.032   9.751
14537TIP3   OH210681   3.113   4.472  10.589
14537TIP3    H110682   3.208   4.486  10.599
14537TIP3    H210683   3.086   4.466  10.682
14538TIP3   OH210684   2.074   5.668   9.010
14538TIP3    H110685   2.055   5.707   9.098
14538TIP3    H210686   1.991   5.691   8.964
14539TIP3   OH210687   3.299   4.914   9.077
14539TIP3    H110688   3.226   4.927   9.012
14539TIP3    H210689   3.376   4.897   9.018
14540TIP3   OH210690   2.725   4.470   9.841
14540TIP3    H110691   2.653   4.426   9.887
14540TIP3    H210692   2.721   4.430   9.753
14541TIP3   OH210693   3.253   4.081  10.156
14541TIP3    H110694   3.296   4.001  10.118
14541TIP3    H210695   3.185   4.041  10.212
14542TIP3   OH210696   2.808   4.268   9.570
14542TIP3    H110697   2.889   4.323   9.575
14542TIP3    H210698   2.748   4.320   9.514
14543TIP3   OH210699   2.781   4.916  10.363
14543TIP3    H110700   2.856   4.862  10.395
14543TIP3    H210701   2.813   4.947  10.275
14544TIP3   OH210702   2.025   4.864   9.516
14544TIP3    H110703   1.976   4.914   9.586
14544TIP3    H210704   2.112   4.859   9.559
14545TIP3   OH210705   2.650   4.950   9.272
14545TIP3    H110706   2.675   4.924   9.183
14545TIP3    H210707   2.670   5.045   9.269
14546TIP3   OH210708   2.332   4.443  10.400
14546TIP3    H110709   2.268   4.400  10.342
14546TIP3    H210710   2.281   4.519  10.432
14547TIP3   OH210711   3.241   4.858   9.814
14547TIP3    H110712   3.166   4.832   9.871
14547TIP3    H210713   3.248   4.782   9.754
14548TIP3   OH210714   2.563   5.050  10.444
14548TIP3    H110715   2.600   5.141  10.434
14548TIP3    H210716   2.642   4.995  10.427
14549TIP3   OH210717   3.555   4.684   9.279
14549TIP3    H110718   3.561   4.632   9.196
14549TIP3    H210719   3.615   4.633   9.337
14550TIP3   OH210720   2.848   4.648   9.112
14550TIP3    H110721   2.892   4.586   9.170
14550TIP3    H210722   2.756   4.611   9.112
14551TIP3   OH210723   2.364   5.178   9.246
14551TIP3    H110724   2.436   5.204   9.304
14551TIP3    H210725   2.394   5.222   9.164
14552TIP3   OH210726   1.802   4.383  10.427
14552TIP3    H110727   1.888   4.399  10.467
14552TIP3    H210728   1.781   4.466  10.380
14553TIP3   OH210729   1.801   4.998   9.183
14553TIP3    H110730   1.893   5.007   9.217
14553TIP3    H210731   1.752   4.987   9.267
14554TIP3   OH210732   1.969   5.244  10.404
14554TIP3    H110733   2.001   5.153  10.397
14554TIP3    H210734   1.930   5.247  10.493
14555TIP3   OH210735   2.267   4.781   9.700
14555TIP3    H110736   2.355   4.762   9.735
14555TIP3    H210737   2.214   4.712   9.744
14556TIP3   OH210738   3.015   5.211  10.083
14556TIP3    H110739   2.964   5.283  10.125
14556TIP3    H210740   3.103   5.225  10.120
14557TIP3   OH210741   2.881   4.971  10.110
14557TIP3    H110742   2.924   5.059  10.104
14557TIP3    H210743   2.949   4.910  10.075
14558TIP3   OH210744   2.830   5.393   9.434
14558TIP3    H110745   2.761   5.452   9.470
14558TIP3    H210746   2.779   5.345   9.365
14559TIP3   OH210747   2.993   5.477  10.181
14559TIP3    H110748   3.084   5.482  10.146
14559TIP3    H210749   2.959   5.567  10.162
14560TIP3   OH210750   2.512   4.977   9.512
14560TIP3    H110751   2.549   4.951   9.424
14560TIP3    H210752   2.444   4.909   9.528
14561TIP3   OH210753   2.277   5.101  10.600
14561TIP3    H110754   2.233   5.020  10.571
14561TIP3    H210755   2.350   5.106  10.537
14562TIP3   OH210756   2.188   5.448   9.271
14562TIP3    H110757   2.274   5.407   9.292
14562TIP3    H210758   2.177   5.510   9.347
14563TIP3   OH210759   1.789   5.546  10.585
14563TIP3    H110760   1.721   5.606  10.550
14563TIP3    H210761   1.869   5.588  10.548
14564TIP3   OH210762   3.357   4.181   9.323
14564TIP3    H110763   3.430   4.219   9.270
14564TIP3    H210764   3.364   4.088   9.294
14565TIP3   OH210765   2.181   4.936  10.368
14565TIP3    H110766   2.200   4.844  10.345
14565TIP3    H210767   2.103   4.927  10.427
14566TIP3   OH210768   3.427   5.339   9.503
14566TIP3    H110769   3.357   5.274   9.484
14566TIP3    H210770   3.435   5.383   9.418
14567TIP3   OH210771   2.986   5.148  10.509
14567TIP3    H110772   2.898   5.120  10.482
14567TIP3    H210773   2.982   5.243  10.482
14568TIP3   OH210774   2.521   4.162   9.430
14568TIP3    H110775   2.436   4.185   9.387
14568TIP3    H210776   2.542   4.074   9.393
14569TIP3   OH210777   2.465   4.108  10.303
14569TIP3    H110778   2.424   4.144  10.383
14569TIP3    H210779   2.391   4.105  10.240
14570TIP3   OH210780   2.639   5.317  10.441
14570TIP3    H110781   2.733   5.346  10.443
14570TIP3    H210782   2.595   5.402  10.455
14571TIP3   OH210783   2.727   4.312  10.284
14571TIP3    H110784   2.654   4.374  10.263
14571TIP3    H210785   2.734   4.262  10.201
14572TIP3   OH210786   2.638   4.412   9.317
14572TIP3    H110787   2.632   4.432   9.221
14572TIP3    H210788   2.598   4.323   9.327
14573TIP3   OH210789   2.661   3.973  10.188
14573TIP3    H110790   2.683   4.032  10.114
14573TIP3    H210791   2.578   4.017  10.221
14574TIP3   OH210792   2.922   5.386  10.423
14574TIP3    H110793   2.904   5.469  10.474
14574TIP3    H210794   2.964   5.425  10.344
14575TIP3   OH210795   2.059   4.161   9.233
14575TIP3    H110796   2.154   4.166   9.255
14575TIP3    H210797   2.017   4.171   9.320
14576TIP3   OH210798   2.148   4.556   9.839
14576TIP3    H110799   2.227   4.500   9.855
14576TIP3    H210800   2.094   4.498   9.781
14577TIP3   OH210801   3.405   4.396  10.688
14577TIP3    H110802   3.359   4.462  10.744
14577TIP3    H210803   3.497   4.416  10.711
14578TIP3   OH210804   2.100   5.459   9.689
14578TIP3    H110805   2.094   5.520   9.764
14578TIP3    H210806   2.006   5.453   9.664
14579TIP3   OH210807   3.334   3.878   9.770
14579TIP3    H110808   3.338   3.869   9.868
14579TIP3    H210809   3.358   3.786   9.744
14580TIP3   OH210810   3.502   5.248  10.251
14580TIP3    H110811   3.555   5.300  10.189
14580TIP3    H210812   3.441   5.317  10.282
14581TIP3   OH210813   3.536   5.569   9.043
14581TIP3    H110814   3.471   5.556   8.969
14581TIP3    H210815   3.567   5.477   9.053
14582TIP3   OH210816   3.020   5.401   8.864
14582TIP3    H110817   2.932   5.361   8.863
14582TIP3    H210818   3.062   5.354   8.938
14583TIP3   OH210819   2.429   5.299   9.012
14583TIP3    H110820   2.450   5.208   8.979
14583TIP3    H210821   2.338   5.306   8.975
14584TIP3   OH210822   2.131   5.314  10.767
14584TIP3    H110823   2.178   5.260  10.702
14584TIP3    H210824   2.172   5.403  10.761
14585TIP3   OH210825   3.551   4.909   8.956
14585TIP3    H110826   3.596   4.824   8.947
14585TIP3    H210827   3.593   4.945   9.038
14586TIP3   OH210828   2.864   4.908   9.061
14586TIP3    H110829   2.894   4.965   9.135
14586TIP3    H210830   2.854   4.817   9.101
14587TIP3   OH210831   2.295   4.899   9.259
14587TIP3    H110832   2.206   4.942   9.255
14587TIP3    H210833   2.350   4.979   9.246
14588TIP3   OH210834   3.430   4.615   9.009
14588TIP3    H110835   3.352   4.559   9.012
14588TIP3    H210836   3.411   4.670   8.930
14589TIP3   OH210837   2.978   4.761  10.478
14589TIP3    H110838   3.027   4.707  10.413
14589TIP3    H210839   3.026   4.740  10.559
14590TIP3   OH210840   3.063   4.530   9.325
14590TIP3    H110841   3.114   4.614   9.325
14590TIP3    H210842   2.986   4.562   9.376
14591TIP3   OH210843   2.517   4.809   8.937
14591TIP3    H110844   2.460   4.760   8.999
14591TIP3    H210845   2.544   4.739   8.874
14592TIP3   OH210846   2.946   4.313   9.196
14592TIP3    H110847   2.936   4.246   9.267
14592TIP3    H210848   2.970   4.392   9.249
14593TIP3   OH210849   2.935   4.106   9.412
14593TIP3    H110850   2.878   4.142   9.484
14593TIP3    H210851   3.023   4.114   9.455
14594TIP3   OH210852   2.830   4.675   9.418
14594TIP3    H110853   2.742   4.711   9.442
14594TIP3    H210854   2.888   4.750   9.442
14595TIP3   OH210855   2.424   4.449   8.883
14595TIP3    H110856   2.409   4.364   8.835
14595TIP3    H210857   2.334   4.473   8.908
14596TIP3   OH210858   2.232   4.756   9.038
14596TIP3    H110859   2.262   4.798   9.121
14596TIP3    H210860   2.139   4.735   9.062
14597TIP3   OH210861   3.135   4.373   8.984
14597TIP3    H110862   3.212   4.319   9.016
14597TIP3    H210863   3.081   4.378   9.064
14598TIP3   OH210864   2.857   3.855   9.392
14598TIP3    H110865   2.890   3.947   9.389
14598TIP3    H210866   2.935   3.809   9.427
14599TIP3   OH210867   2.753   4.275   8.976
14599TIP3    H110868   2.827   4.265   8.912
14599TIP3    H210869   2.805   4.267   9.059
14600TIP3   OH210870   2.477   4.216   9.095
14600TIP3    H110871   2.571   4.212   9.070
14600TIP3    H210872   2.441   4.160   9.023
14601TIP3   OH210873   2.390   4.039   8.920
14601TIP3    H110874   2.341   3.956   8.904
14601TIP3    H210875   2.370   4.095   8.841
14602TIP3   OH210876   3.343   4.197   9.000
14602TIP3    H110877   3.353   4.113   9.048
14602TIP3    H210878   3.354   4.167   8.906
14603TIP3   OH210879   2.894   3.799   9.131
14603TIP3    H110880   2.814   3.746   9.115
14603TIP3    H210881   2.888   3.808   9.228
14604TIP3   OH210882   2.876   3.911   8.851
14604TIP3    H110883   2.893   3.872   8.940
14604TIP3    H210884   2.884   4.006   8.873
14605TIP3   OH210885   2.883   5.608  10.557
14605TIP3    H110886   2.809   5.668  10.550
14605TIP3    H210887   2.948   5.663  10.601
14606TIP3   OH210888   3.647   5.617  10.113
14606TIP3    H110889   3.716   5.566  10.159
14606TIP3    H210890   3.610   5.552  10.051
14607TIP3   OH210891   3.539   5.433   9.937
14607TIP3    H110892   3.601   5.365   9.905
14607TIP3    H210893   3.493   5.456   9.854
14608TIP3   OH210894   1.824   5.526   9.684
14608TIP3    H110895   1.779   5.553   9.602
14608TIP3    H210896   1.755   5.535   9.752
14609TIP3   OH210897   1.848   5.465   9.352
14609TIP3    H110898   1.882   5.392   9.407
14609TIP3    H210899   1.827   5.417   9.269
14610TIP3   OH210900   1.974   5.052   8.873
14610TIP3    H110901   2.062   5.061   8.831
14610TIP3    H210902   1.936   5.140   8.849
14611TIP3   OH210903   1.828   4.674  10.165
14611TIP3    H110904   1.913   4.640  10.128
14611TIP3    H210905   1.786   4.716  10.088
14612TIP3   OH210906   1.874   4.974   9.696
14612TIP3    H110907   1.803   4.908   9.712
14612TIP3    H210908   1.828   5.059   9.704
14613TIP3   OH210909   1.996   5.254   9.437
14613TIP3    H110910   2.067   5.295   9.386
14613TIP3    H210911   2.042   5.232   9.522
14614TIP3   OH210912   2.039   4.536  10.084
14614TIP3    H110913   2.083   4.450  10.096
14614TIP3    H210914   2.065   4.558   9.991
14615TIP3   OH210915   3.560   4.782   9.691
14615TIP3    H110916   3.555   4.747   9.783
14615TIP3    H210917   3.471   4.754   9.658
14616TIP3   OH210918   1.952   4.742   9.128
14616TIP3    H110919   1.901   4.658   9.133
14616TIP3    H210920   1.886   4.807   9.159
14617TIP3   OH210921   1.834   4.494   9.090
14617TIP3    H110922   1.927   4.463   9.099
14617TIP3    H210923   1.783   4.411   9.080
14618TIP3   OH210924   2.130   4.313  10.233
14618TIP3    H110925   2.087   4.229  10.207
14618TIP3    H210926   2.059   4.344  10.290
14619TIP3   OH210927   2.003   4.383   9.700
14619TIP3    H110928   1.905   4.393   9.693
14619TIP3    H210929   2.028   4.380   9.606
14620TIP3   OH210930   1.996   4.451   9.430
14620TIP3    H110931   2.088   4.472   9.406
14620TIP3    H210932   1.959   4.538   9.458
14621TIP3   OH210933   3.565   4.279   9.103
14621TIP3    H110934   3.485   4.250   9.054
14621TIP3    H210935   3.627   4.204   9.087
14622TIP3   OH210936   1.805   3.877   8.926
14622TIP3    H110937   1.755   3.807   8.974
14622TIP3    H210938   1.807   3.949   8.993
14623TIP3   OH210939   1.983   4.099  10.230
14623TIP3    H110940   1.963   4.044  10.151
14623TIP3    H210941   2.042   4.040  10.278
14624TIP3   OH210942   3.468   4.108   9.711
14624TIP3    H110943   3.418   4.024   9.717
14624TIP3    H210944   3.398   4.176   9.719
14625TIP3   OH210945   3.626   4.418   9.680
14625TIP3    H110946   3.565   4.389   9.751
14625TIP3    H210947   3.593   4.507   9.665
14626TIP3   OH210948   1.860   4.093   9.070
14626TIP3    H110949   1.929   4.113   9.003
14626TIP3    H210950   1.916   4.066   9.146
14627TIP3   OH210951   1.827   4.025  10.588
14627TIP3    H110952   1.913   4.029  10.633
14627TIP3    H210953   1.797   4.117  10.589
14628TIP3   OH210954   3.634   4.029  10.306
14628TIP3    H110955   3.718   4.072  10.285
14628TIP3    H210956   3.592   4.093  10.366
14629TIP3   OH210957   2.116   5.551  10.081
14629TIP3    H110958   2.043   5.540  10.146
14629TIP3    H210959   2.075   5.601  10.008
14630TIP3   OH210960   3.617   3.899   9.456
14630TIP3    H110961   3.686   3.870   9.393
14630TIP3    H210962   3.661   3.972   9.503
14631TIP3   OH210963   3.388   5.213   9.052
14631TIP3    H110964   3.476   5.244   9.078
14631TIP3    H210965   3.405   5.164   8.971
14632TIP3   OH210966   3.097   5.362   9.386
14632TIP3    H110967   3.099   5.454   9.417
14632TIP3    H210968   3.000   5.347   9.389
14633TIP3   OH210969   2.687   5.477   9.132
14633TIP3    H110970   2.679   5.473   9.035
14633TIP3    H210971   2.600   5.513   9.158
14634TIP3   OH210972   2.465   5.642   9.174
14634TIP3    H110973   2.383   5.594   9.192
14634TIP3    H210974   2.441   5.694   9.094
14635TIP3   OH210975   1.943   3.836   9.265
14635TIP3    H110976   2.020   3.871   9.312
14635TIP3    H210977   1.937   3.745   9.301
14636TIP3   OH210978   3.359   5.676   9.419
14636TIP3    H110979   3.446   5.709   9.450
14636TIP3    H210980   3.364   5.707   9.327
14637TIP3   OH210981   3.118   5.623   9.523
14637TIP3    H110982   3.212   5.641   9.499
14637TIP3    H210983   3.099   5.696   9.585
14638TIP3   OH210984   2.653   5.575   9.585
14638TIP3    H110985   2.709   5.615   9.654
14638TIP3    H210986   2.626   5.655   9.534
14639TIP3   OH210987   2.439   5.458   9.448
14639TIP3    H110988   2.507   5.494   9.508
14639TIP3    H210989   2.364   5.517   9.471
14640TIP3   OH210990   2.179   5.614   9.480
14640TIP3    H110991   2.164   5.706   9.512
14640TIP3    H210992   2.145   5.564   9.558
14641TIP3   OH210993   3.395   5.503   9.718
14641TIP3    H110994   3.415   5.444   9.642
14641TIP3    H210995   3.304   5.476   9.741
14642TIP3   OH210996   3.172   5.417   9.838
14642TIP3    H110997   3.193   5.324   9.817
14642TIP3    H210998   3.084   5.424   9.794
14643TIP3   OH210999   2.943   5.410   9.706
14643TIP3    H111000   2.912   5.319   9.718
14643TIP3    H211001   2.927   5.423   9.611
14644TIP3   OH211002   2.652   3.966   9.833
14644TIP3    H111003   2.727   3.905   9.812
14644TIP3    H211004   2.595   3.913   9.890
14645TIP3   OH211005   2.072   3.807   9.851
14645TIP3    H111006   1.995   3.855   9.890
14645TIP3    H211007   2.145   3.851   9.899
14646TIP3   OH211008   1.905   3.937  10.018
14646TIP3    H111009   1.854   3.865  10.064
14646TIP3    H211010   1.838   4.007  10.005
14647TIP3   OH211011   3.371   3.857  10.041
14647TIP3    H111012   3.462   3.843  10.072
14647TIP3    H211013   3.328   3.771  10.064
14648TIP3   OH211014   3.516   3.835  10.472
14648TIP3    H111015   3.430   3.877  10.480
14648TIP3    H211016   3.556   3.880  10.394
14649TIP3   OH211017   2.921   3.800  10.086
14649TIP3    H111018   2.861   3.825  10.157
14649TIP3    H211019   2.873   3.829  10.008
14650TIP3   OH211020   2.343   3.867   9.940
14650TIP3    H111021   2.338   3.842  10.034
14650TIP3    H211022   2.393   3.790   9.904
14651TIP3   OH211023   2.244   3.831  10.416
14651TIP3    H111024   2.275   3.796  10.502
14651TIP3    H211025   2.277   3.762  10.355
14652TIP3   OH211026   3.476   5.480  10.392
14652TIP3    H111027   3.557   5.449  10.434
14652TIP3    H211028   3.472   5.573  10.421
14653TIP3   OH211029   2.793   4.072  10.404
14653TIP3    H111030   2.764   4.024  10.324
14653TIP3    H211031   2.770   4.163  10.377
14654TIP3   OH211032   2.532   5.561  10.553
14654TIP3    H111033   2.464   5.595  10.614
14654TIP3    H211034   2.595   5.529  10.620
14655TIP3   OH211035   1.943   5.473  10.268
14655TIP3    H111036   1.964   5.395  10.325
14655TIP3    H211037   1.937   5.546  10.333
14656TIP3   OH211038   3.395   3.923   9.135
14656TIP3    H111039   3.444   3.840   9.120
14656TIP3    H211040   3.316   3.910   9.077
14657TIP3   OH211041   3.193   3.864   8.945
14657TIP3    H111042   3.114   3.814   8.971
14657TIP3    H211043   3.241   3.796   8.894
14658TIP3   OH211044   2.340   3.773   8.898
14658TIP3    H111045   2.324   3.732   8.810
14658TIP3    H211046   2.255   3.753   8.944
14659TIP3   OH211047   2.013   5.397   9.070
14659TIP3    H111048   2.088   5.391   9.133
14659TIP3    H211049   2.018   5.490   9.043
14660TIP3   OH211050   0.586   4.773  10.084
14660TIP3    H111051   0.567   4.863  10.052
14660TIP3    H211052   0.647   4.793  10.158
14661TIP3   OH211053   0.678   4.668   9.748
14661TIP3    H111054   0.671   4.627   9.660
14661TIP3    H211055   0.759   4.629   9.788
14662TIP3   OH211056   1.466   4.668   9.601
14662TIP3    H111057   1.472   4.592   9.541
14662TIP3    H211058   1.384   4.709   9.568
14663TIP3   OH211059   0.315   5.010   9.898
14663TIP3    H111060   0.266   4.944   9.848
14663TIP3    H211061   0.314   5.088   9.838
14664TIP3   OH211062   1.369   5.137   9.762
14664TIP3    H111063   1.395   5.044   9.777
14664TIP3    H211064   1.273   5.124   9.774
14665TIP3   OH211065   1.677   4.449  10.195
14665TIP3    H111066   1.715   4.539  10.184
14665TIP3    H211067   1.753   4.394  10.173
14666TIP3   OH211068   1.600   4.697   9.957
14666TIP3    H111069   1.581   4.607   9.923
14666TIP3    H211070   1.551   4.700  10.040
14667TIP3   OH211071   0.595   5.537   9.892
14667TIP3    H111072   0.533   5.472   9.933
14667TIP3    H211073   0.613   5.491   9.808
14668TIP3   OH211074   0.863   4.950   9.658
14668TIP3    H111075   0.840   4.931   9.750
14668TIP3    H211076   0.774   4.973   9.622
14669TIP3   OH211077   0.002   4.139   9.582
14669TIP3    H111078  -0.012   4.234   9.570
14669TIP3    H211079  -0.074   4.121   9.641
14670TIP3   OH211080   0.520   4.395   9.637
14670TIP3    H111081   0.493   4.303   9.624
14670TIP3    H211082   0.548   4.394   9.730
14671TIP3   OH211083   1.219   4.178   9.961
14671TIP3    H111084   1.195   4.258  10.012
14671TIP3    H211085   1.263   4.128  10.033
14672TIP3   OH211086   0.433   4.193  10.101
14672TIP3    H111087   0.391   4.162  10.018
14672TIP3    H211088   0.370   4.261  10.128
14673TIP3   OH211089   1.557   4.451   9.864
14673TIP3    H111090   1.487   4.418   9.804
14673TIP3    H211091   1.533   4.403   9.946
14674TIP3   OH211092   1.070   4.598   9.917
14674TIP3    H111093   0.979   4.565   9.901
14674TIP3    H211094   1.099   4.531   9.981
14675TIP3   OH211095   1.312   4.093   9.531
14675TIP3    H111096   1.349   4.144   9.606
14675TIP3    H211097   1.374   4.117   9.459
14676TIP3   OH211098   0.635   5.054  10.169
14676TIP3    H111099   0.701   5.054  10.239
14676TIP3    H211100   0.650   5.141  10.128
14677TIP3   OH211101   1.090   4.852   9.559
14677TIP3    H111102   1.151   4.925   9.532
14677TIP3    H211103   1.012   4.903   9.590
14678TIP3   OH211104   0.263   4.181   9.850
14678TIP3    H111105   0.308   4.104   9.810
14678TIP3    H211106   0.240   4.236   9.771
14679TIP3   OH211107   1.352   4.284   9.731
14679TIP3    H111108   1.290   4.349   9.690
14679TIP3    H211109   1.301   4.252   9.808
14680TIP3   OH211110   1.226   5.064   9.453
14680TIP3    H111111   1.239   5.149   9.497
14680TIP3    H211112   1.309   5.059   9.400
14681TIP3   OH211113   0.284   5.214   9.725
14681TIP3    H111114   0.375   5.227   9.690
14681TIP3    H211115   0.248   5.304   9.716
14682TIP3   OH211116   0.222   3.985   9.564
14682TIP3    H111117   0.296   4.031   9.608
14682TIP3    H211118   0.148   4.049   9.578
14683TIP3   OH211119   0.960   3.836   9.793
14683TIP3    H111120   0.987   3.744   9.785
14683TIP3    H211121   1.043   3.881   9.761
14684TIP3   OH211122   0.442   5.353  10.029
14684TIP3    H111123   0.404   5.274  10.075
14684TIP3    H211124   0.372   5.419  10.051
14685TIP3   OH211125   0.328   5.149  10.159
14685TIP3    H111126   0.321   5.071  10.217
14685TIP3    H211127   0.313   5.108  10.071
14686TIP3   OH211128   0.186   5.010   9.290
14686TIP3    H111129   0.184   4.951   9.369
14686TIP3    H211130   0.150   5.092   9.328
14687TIP3   OH211131   0.697   4.747  10.337
14687TIP3    H111132   0.782   4.729  10.377
14687TIP3    H211133   0.632   4.726  10.406
14688TIP3   OH211134   0.675   4.592  10.655
14688TIP3    H111135   0.617   4.555  10.587
14688TIP3    H211136   0.754   4.533  10.654
14689TIP3   OH211137  -0.002   4.650   9.538
14689TIP3    H111138   0.060   4.725   9.524
14689TIP3    H211139  -0.065   4.695   9.599
14690TIP3   OH211140   0.366   4.749  10.247
14690TIP3    H111141   0.443   4.749  10.185
14690TIP3    H211142   0.303   4.695  10.196
14691TIP3   OH211143   0.368   4.537   9.329
14691TIP3    H111144   0.377   4.621   9.281
14691TIP3    H211145   0.433   4.559   9.399
14692TIP3   OH211146   1.208   4.769  10.067
14692TIP3    H111147   1.218   4.724  10.153
14692TIP3    H211148   1.147   4.711  10.016
14693TIP3   OH211149   1.059   5.126   9.763
14693TIP3    H111150   1.059   5.110   9.859
14693TIP3    H211151   0.990   5.067   9.730
14694TIP3   OH211152   1.187   4.645   9.679
14694TIP3    H111153   1.151   4.649   9.771
14694TIP3    H211154   1.142   4.722   9.636
14695TIP3   OH211155   0.515   5.225   9.595
14695TIP3    H111156   0.561   5.280   9.530
14695TIP3    H211157   0.532   5.135   9.558
14696TIP3   OH211158   1.066   5.112   9.243
14696TIP3    H111159   1.140   5.157   9.199
14696TIP3    H211160   1.108   5.090   9.329
14697TIP3   OH211161   0.453   4.658  10.481
14697TIP3    H111162   0.414   4.702  10.402
14697TIP3    H211163   0.388   4.688  10.550
14698TIP3   OH211164   1.361   4.732   9.337
14698TIP3    H111165   1.352   4.820   9.297
14698TIP3    H211166   1.437   4.698   9.286
14699TIP3   OH211167   0.697   5.336  10.156
14699TIP3    H111168   0.622   5.350  10.097
14699TIP3    H211169   0.755   5.410  10.131
14700TIP3   OH211170   1.240   5.280   9.122
14700TIP3    H111171   1.255   5.322   9.210
14700TIP3    H211172   1.332   5.254   9.102
14701TIP3   OH211173   1.282   4.654  10.308
14701TIP3    H111174   1.307   4.731  10.365
14701TIP3    H211175   1.344   4.587  10.340
14702TIP3   OH211176   9.345   5.235  10.646
14702TIP3    H111177   9.339   5.330  10.671
14702TIP3    H211178   9.252   5.206  10.656
14703TIP3   OH211179   1.651   4.941   9.395
14703TIP3    H111180   1.698   4.923   9.478
14703TIP3    H211181   1.624   4.850   9.373
14704TIP3   OH211182   1.688   5.214   9.730
14704TIP3    H111183   1.601   5.177   9.749
14704TIP3    H211184   1.669   5.273   9.656
14705TIP3   OH211185   0.809   5.231   9.228
14705TIP3    H111186   0.801   5.297   9.157
14705TIP3    H211187   0.900   5.195   9.220
14706TIP3   OH211188   0.760   5.591  10.287
14706TIP3    H111189   0.778   5.619  10.380
14706TIP3    H211190   0.759   5.678  10.242
14707TIP3   OH211191   1.380   5.491  10.086
14707TIP3    H111192   1.360   5.457   9.996
14707TIP3    H211193   1.462   5.441  10.111
14708TIP3   OH211194   0.490   5.517  10.603
14708TIP3    H111195   0.435   5.440  10.627
14708TIP3    H211196   0.482   5.514  10.505
14709TIP3   OH211197   0.505   5.524  10.326
14709TIP3    H111198   0.597   5.551  10.304
14709TIP3    H211199   0.503   5.435  10.287
14710TIP3   OH211200   0.205   4.438   9.103
14710TIP3    H111201   0.250   4.463   9.184
14710TIP3    H211202   0.154   4.360   9.128
14711TIP3   OH211203   1.438   5.070   9.295
14711TIP3    H111204   1.437   5.032   9.204
14711TIP3    H211205   1.527   5.043   9.329
14712TIP3   OH211206   1.189   3.937   9.713
14712TIP3    H111207   1.277   3.918   9.751
14712TIP3    H211208   1.214   3.984   9.630
14713TIP3   OH211209   0.691   3.877   9.388
14713TIP3    H111210   0.652   3.835   9.307
14713TIP3    H211211   0.787   3.866   9.374
14714TIP3   OH211212   0.384   4.241   9.329
14714TIP3    H111213   0.430   4.232   9.243
14714TIP3    H211214   0.369   4.338   9.335
14715TIP3   OH211215   0.270   4.749  10.657
14715TIP3    H111216   0.318   4.800  10.725
14715TIP3    H211217   0.181   4.785  10.671
14716TIP3   OH211218   0.800   4.141  10.622
14716TIP3    H111219   0.856   4.102  10.553
14716TIP3    H211220   0.712   4.115  10.591
14717TIP3   OH211221   1.168   4.406   9.573
14717TIP3    H111222   1.245   4.409   9.514
14717TIP3    H211223   1.173   4.496   9.612
14718TIP3   OH211224   1.187   4.409  10.108
14718TIP3    H111225   1.283   4.393  10.114
14718TIP3    H211226   1.164   4.420  10.202
14719TIP3   OH211227   0.604   4.482  10.230
14719TIP3    H111228   0.616   4.574  10.257
14719TIP3    H211229   0.549   4.443  10.301
14720TIP3   OH211230   0.743   4.512   9.092
14720TIP3    H111231   0.776   4.425   9.059
14720TIP3    H211232   0.656   4.516   9.050
14721TIP3   OH211233   0.561   4.465   9.925
14721TIP3    H111234   0.569   4.555   9.964
14721TIP3    H211235   0.539   4.416  10.005
14722TIP3   OH211236   1.423   4.425   9.453
14722TIP3    H111237   1.389   4.459   9.369
14722TIP3    H211238   1.457   4.337   9.424
14723TIP3   OH211239   1.725   4.149   9.996
14723TIP3    H111240   1.651   4.130   9.935
14723TIP3    H211241   1.686   4.145  10.085
14724TIP3   OH211242   1.613   4.200  10.477
14724TIP3    H111243   1.540   4.253  10.514
14724TIP3    H211244   1.675   4.270  10.447
14725TIP3   OH211245   0.602   4.616   9.500
14725TIP3    H111246   0.557   4.542   9.548
14725TIP3    H211247   0.658   4.564   9.439
14726TIP3   OH211248   0.921   4.172   9.983
14726TIP3    H111249   1.017   4.164   9.962
14726TIP3    H211250   0.879   4.137   9.903
14727TIP3   OH211251   1.454   4.324  10.094
14727TIP3    H111252   1.524   4.358  10.154
14727TIP3    H211253   1.441   4.233  10.127
14728TIP3   OH211254   1.111   4.338  10.378
14728TIP3    H111255   1.017   4.336  10.357
14728TIP3    H211256   1.114   4.401  10.452
14729TIP3   OH211257   0.449   4.071   9.699
14729TIP3    H111258   0.523   4.082   9.637
14729TIP3    H211259   0.496   4.024   9.773
14730TIP3   OH211260   0.209   5.646   8.999
14730TIP3    H111261   0.182   5.689   9.084
14730TIP3    H211262   0.136   5.676   8.943
14731TIP3   OH211263   1.408   4.898   9.068
14731TIP3    H111264   1.344   4.918   8.996
14731TIP3    H211265   1.492   4.891   9.018
14732TIP3   OH211266   0.839   4.469   9.860
14732TIP3    H111267   0.744   4.447   9.865
14732TIP3    H211268   0.872   4.390   9.815
14733TIP3   OH211269   1.355   4.057  10.164
14733TIP3    H111270   1.415   3.989  10.128
14733TIP3    H211271   1.299   4.004  10.222
14734TIP3   OH211272   0.941   4.259   9.579
14734TIP3    H111273   1.015   4.324   9.580
14734TIP3    H211274   0.874   4.309   9.529
14735TIP3   OH211275   0.161   4.860   9.499
14735TIP3    H111276   0.119   4.921   9.564
14735TIP3    H211277   0.239   4.826   9.548
14736TIP3   OH211278   0.755   4.962   9.272
14736TIP3    H111279   0.781   4.933   9.183
14736TIP3    H211280   0.769   5.058   9.265
14737TIP3   OH211281   0.419   4.385  10.413
14737TIP3    H111282   0.348   4.381  10.346
14737TIP3    H211283   0.395   4.462  10.467
14738TIP3   OH211284   1.348   4.867   9.818
14738TIP3    H111285   1.303   4.843   9.901
14738TIP3    H211286   1.353   4.782   9.772
14739TIP3   OH211287   1.690   4.688   9.266
14739TIP3    H111288   1.694   4.620   9.196
14739TIP3    H211289   1.732   4.643   9.341
14740TIP3   OH211290   0.976   4.639   9.110
14740TIP3    H111291   1.024   4.590   9.177
14740TIP3    H211292   0.885   4.599   9.114
14741TIP3   OH211293   0.479   5.173   9.254
14741TIP3    H111294   0.567   5.197   9.287
14741TIP3    H211295   0.489   5.197   9.160
14742TIP3   OH211296   0.066   5.248  10.391
14742TIP3    H111297   0.157   5.222  10.369
14742TIP3    H211298   0.062   5.232  10.489
14743TIP3   OH211299   0.344   4.745   9.652
14743TIP3    H111300   0.441   4.744   9.652
14743TIP3    H211301   0.326   4.696   9.734
14744TIP3   OH211302   1.159   5.196  10.034
14744TIP3    H111303   1.098   5.271  10.043
14744TIP3    H211304   1.235   5.231  10.083
14745TIP3   OH211305   1.003   4.991  10.136
14745TIP3    H111306   1.070   5.057  10.109
14745TIP3    H211307   1.040   4.909  10.102
14746TIP3   OH211308   0.952   5.394   9.428
14746TIP3    H111309   0.885   5.458   9.457
14746TIP3    H211310   0.900   5.347   9.360
14747TIP3   OH211311   1.120   5.456  10.146
14747TIP3    H111312   1.216   5.472  10.139
14747TIP3    H211313   1.088   5.548  10.138
14748TIP3   OH211314   0.632   4.974   9.521
14748TIP3    H111315   0.668   4.955   9.431
14748TIP3    H211316   0.598   4.887   9.549
14749TIP3   OH211317   0.323   5.428   9.286
14749TIP3    H111318   0.407   5.383   9.308
14749TIP3    H211319   0.309   5.490   9.360
14750TIP3   OH211320   1.473   4.185   9.320
14750TIP3    H111321   1.543   4.222   9.262
14750TIP3    H211322   1.477   4.092   9.291
14751TIP3   OH211323   0.294   4.968  10.407
14751TIP3    H111324   0.334   4.895  10.357
14751TIP3    H211325   0.202   4.962  10.373
14752TIP3   OH211326   1.550   5.325   9.486
14752TIP3    H111327   1.473   5.268   9.470
14752TIP3    H211328   1.546   5.382   9.408
14753TIP3   OH211329   1.102   5.154  10.514
14753TIP3    H111330   1.102   5.072  10.462
14753TIP3    H211331   1.016   5.193  10.488
14754TIP3   OH211332   1.401   4.861  10.480
14754TIP3    H111333   1.498   4.853  10.479
14754TIP3    H211334   1.392   4.957  10.469
14755TIP3   OH211335   0.642   4.153   9.395
14755TIP3    H111336   0.549   4.167   9.369
14755TIP3    H211337   0.650   4.055   9.383
14756TIP3   OH211338   0.567   4.086  10.343
14756TIP3    H111339   0.523   4.125  10.418
14756TIP3    H211340   0.519   4.128  10.269
14757TIP3   OH211341   0.851   5.316  10.430
14757TIP3    H111342   0.822   5.341  10.340
14757TIP3    H211343   0.788   5.364  10.485
14758TIP3   OH211344   0.818   4.254  10.231
14758TIP3    H111345   0.764   4.333  10.218
14758TIP3    H211346   0.851   4.233  10.141
14759TIP3   OH211347   0.742   4.409   9.353
14759TIP3    H111348   0.738   4.433   9.258
14759TIP3    H211349   0.714   4.314   9.354
14760TIP3   OH211350   0.759   3.961  10.147
14760TIP3    H111351   0.817   4.020  10.095
14760TIP3    H211352   0.696   4.024  10.189
14761TIP3   OH211353   1.180   4.067  10.477
14761TIP3    H111354   1.202   4.155  10.440
14761TIP3    H211355   1.087   4.060  10.449
14762TIP3   OH211356   0.136   4.150   9.246
14762TIP3    H111357   0.228   4.163   9.276
14762TIP3    H211358   0.089   4.161   9.330
14763TIP3   OH211359   0.308   4.532   9.846
14763TIP3    H111360   0.397   4.493   9.843
14763TIP3    H211361   0.258   4.474   9.786
14764TIP3   OH211362   1.400   5.144  10.576
14764TIP3    H111363   1.307   5.160  10.556
14764TIP3    H211364   1.397   5.069  10.637
14765TIP3   OH211365   1.491   4.396  10.640
14765TIP3    H111366   1.425   4.462  10.668
14765TIP3    H211367   1.567   4.454  10.628
14766TIP3   OH211368   0.150   5.452   9.684
14766TIP3    H111369   0.172   5.516   9.756
14766TIP3    H211370   0.058   5.477   9.667
14767TIP3   OH211371   1.445   3.874   9.775
14767TIP3    H111372   1.459   3.864   9.872
14767TIP3    H211373   1.474   3.785   9.746
14768TIP3   OH211374   1.567   5.331  10.178
14768TIP3    H111375   1.663   5.329  10.180
14768TIP3    H211376   1.550   5.344  10.274
14769TIP3   OH211377   1.651   5.567   9.037
14769TIP3    H111378   1.588   5.554   8.962
14769TIP3    H211379   1.686   5.477   9.046
14770TIP3   OH211380   1.148   5.398   8.860
14770TIP3    H111381   1.056   5.367   8.861
14770TIP3    H211382   1.184   5.352   8.938
14771TIP3   OH211383   0.549   5.305   9.005
14771TIP3    H111384   0.561   5.218   8.961
14771TIP3    H211385   0.456   5.319   8.979
14772TIP3   OH211386   0.300   5.311  10.668
14772TIP3    H111387   0.246   5.232  10.689
14772TIP3    H211388   0.233   5.381  10.675
14773TIP3   OH211389   1.666   4.909   8.960
14773TIP3    H111390   1.696   4.816   8.964
14773TIP3    H211391   1.709   4.946   9.040
14774TIP3   OH211392   0.993   4.907   9.064
14774TIP3    H111393   1.021   4.968   9.136
14774TIP3    H211394   0.983   4.819   9.107
14775TIP3   OH211395   0.424   4.894   9.252
14775TIP3    H111396   0.337   4.941   9.250
14775TIP3    H211397   0.480   4.971   9.274
14776TIP3   OH211398   1.521   4.615   9.005
14776TIP3    H111399   1.438   4.567   8.995
14776TIP3    H211400   1.511   4.678   8.930
14777TIP3   OH211401   1.169   4.535   9.326
14777TIP3    H111402   1.225   4.615   9.320
14777TIP3    H211403   1.096   4.570   9.381
14778TIP3   OH211404   0.644   4.803   8.932
14778TIP3    H111405   0.577   4.770   8.993
14778TIP3    H211406   0.674   4.721   8.889
14779TIP3   OH211407  -0.011   4.881  10.760
14779TIP3    H111408  -0.010   4.788  10.789
14779TIP3    H211409   0.070   4.918  10.801
14780TIP3   OH211410   1.055   4.315   9.211
14780TIP3    H111411   1.056   4.245   9.279
14780TIP3    H211412   1.080   4.393   9.265
14781TIP3   OH211413   1.076   4.100   9.407
14781TIP3    H111414   1.036   4.144   9.486
14781TIP3    H211415   1.171   4.099   9.432
14782TIP3   OH211416   0.944   4.684   9.414
14782TIP3    H111417   0.859   4.720   9.444
14782TIP3    H211418   1.005   4.750   9.454
14783TIP3   OH211419   0.466   4.423   8.904
14783TIP3    H111420   0.485   4.331   8.877
14783TIP3    H211421   0.386   4.413   8.958
14784TIP3   OH211422   0.335   4.747   9.051
14784TIP3    H111423   0.369   4.799   9.127
14784TIP3    H211424   0.240   4.738   9.077
14785TIP3   OH211425   1.248   4.389   8.975
14785TIP3    H111426   1.327   4.341   9.008
14785TIP3    H211427   1.190   4.395   9.053
14786TIP3   OH211428   0.971   3.853   9.407
14786TIP3    H111429   1.001   3.946   9.393
14786TIP3    H211430   1.055   3.813   9.432
14787TIP3   OH211431   0.863   4.268   8.988
14787TIP3    H111432   0.930   4.257   8.918
14787TIP3    H211433   0.919   4.264   9.068
14788TIP3   OH211434   0.569   4.198   9.112
14788TIP3    H111435   0.657   4.168   9.086
14788TIP3    H211436   0.512   4.139   9.057
14789TIP3   OH211437   0.411   4.050   8.936
14789TIP3    H111438   0.436   3.955   8.924
14789TIP3    H211439   0.449   4.093   8.856
14790TIP3   OH211440   1.457   4.209   8.991
14790TIP3    H111441   1.454   4.126   9.041
14790TIP3    H211442   1.473   4.173   8.900
14791TIP3   OH211443   1.025   3.795   9.136
14791TIP3    H111444   0.940   3.747   9.122
14791TIP3    H211445   1.021   3.800   9.234
14792TIP3   OH211446   0.998   3.911   8.850
14792TIP3    H111447   1.014   3.874   8.939
14792TIP3    H211448   1.038   4.000   8.861
14793TIP3   OH211449   1.762   5.620  10.131
14793TIP3    H111450   1.824   5.552  10.166
14793TIP3    H211451   1.726   5.573  10.053
14794TIP3   OH211452   1.678   5.472   9.924
14794TIP3    H111453   1.741   5.402   9.904
14794TIP3    H211454   1.605   5.456   9.860
14795TIP3   OH211455  -0.028   5.479   9.353
14795TIP3    H111456   0.022   5.417   9.410
14795TIP3    H211457  -0.038   5.423   9.275
14796TIP3   OH211458   0.115   5.053   8.871
14796TIP3    H111459   0.199   5.076   8.826
14796TIP3    H211460   0.070   5.141   8.870
14797TIP3   OH211461   0.051   4.902  10.308
14797TIP3    H111462  -0.028   4.953  10.333
14797TIP3    H211463   0.043   4.823  10.361
14798TIP3   OH211464   9.329   4.993   9.647
14798TIP3    H111465   9.273   4.919   9.679
14798TIP3    H211466   9.307   5.065   9.711
14799TIP3   OH211467   0.126   5.264   9.433
14799TIP3    H111468   0.212   5.308   9.414
14799TIP3    H211469   0.138   5.238   9.526
14800TIP3   OH211470   0.148   4.390  10.676
14800TIP3    H111471   0.135   4.486  10.694
14800TIP3    H211472   0.060   4.357  10.699
14801TIP3   OH211473   0.186   4.547  10.099
14801TIP3    H111474   0.184   4.457  10.136
14801TIP3    H211475   0.227   4.534  10.011
14802TIP3   OH211476   1.673   4.788   9.706
14802TIP3    H111477   1.662   4.757   9.799
14802TIP3    H211478   1.581   4.769   9.674
14803TIP3   OH211479   0.074   4.746   9.108
14803TIP3    H111480   0.048   4.654   9.125
14803TIP3    H211481   0.048   4.793   9.189
14804TIP3   OH211482   0.208   4.326  10.254
14804TIP3    H111483   0.193   4.230  10.237
14804TIP3    H211484   0.159   4.333  10.337
14805TIP3   OH211485   0.170   4.354   9.672
14805TIP3    H111486   0.077   4.360   9.702
14805TIP3    H211487   0.157   4.375   9.578
14806TIP3   OH211488   0.115   4.438   9.419
14806TIP3    H111489   0.199   4.482   9.398
14806TIP3    H211490   0.060   4.514   9.452
14807TIP3   OH211491   1.680   4.282   9.102
14807TIP3    H111492   1.598   4.263   9.050
14807TIP3    H211493   1.734   4.201   9.085
14808TIP3   OH211494   0.171   4.067  10.241
14808TIP3    H111495   0.146   4.018  10.160
14808TIP3    H211496   0.225   3.999  10.286
14809TIP3   OH211497   1.571   4.122   9.746
14809TIP3    H111498   1.532   4.032   9.747
14809TIP3    H211499   1.494   4.182   9.744
14810TIP3   OH211500   1.744   4.421   9.679
14810TIP3    H111501   1.685   4.388   9.750
14810TIP3    H211502   1.702   4.506   9.662
14811TIP3   OH211503   1.712   4.048  10.282
14811TIP3    H111504   1.808   4.067  10.276
14811TIP3    H211505   1.693   4.075  10.374
14812TIP3   OH211506   0.247   5.533  10.083
14812TIP3    H111507   0.186   5.521  10.159
14812TIP3    H211508   0.190   5.575  10.017
14813TIP3   OH211509   1.722   3.906   9.446
14813TIP3    H111510   1.794   3.871   9.392
14813TIP3    H211511   1.763   3.977   9.498
14814TIP3   OH211512   1.505   5.218   9.053
14814TIP3    H111513   1.592   5.253   9.079
14814TIP3    H211514   1.524   5.180   8.967
14815TIP3   OH211515   1.219   5.361   9.387
14815TIP3    H111516   1.227   5.456   9.411
14815TIP3    H211517   1.122   5.351   9.390
14816TIP3   OH211518   0.797   5.522   9.137
14816TIP3    H111519   0.786   5.521   9.040
14816TIP3    H211520   0.704   5.533   9.165
14817TIP3   OH211521   0.569   5.658   9.182
14817TIP3    H111522   0.489   5.626   9.226
14817TIP3    H211523   0.537   5.690   9.095
14818TIP3   OH211524   0.105   3.857   9.255
14818TIP3    H111525   0.167   3.913   9.304
14818TIP3    H211526   0.093   3.779   9.313
14819TIP3   OH211527   1.486   5.684   9.408
14819TIP3    H111528   1.566   5.729   9.444
14819TIP3    H211529   1.495   5.713   9.316
14820TIP3   OH211530   1.256   5.617   9.513
14820TIP3    H111531   1.345   5.637   9.474
14820TIP3    H211532   1.263   5.670   9.594
14821TIP3   OH211533   0.739   5.583   9.607
14821TIP3    H111534   0.820   5.617   9.648
14821TIP3    H211535   0.722   5.656   9.543
14822TIP3   OH211536   0.561   5.450   9.448
14822TIP3    H111537   0.628   5.487   9.510
14822TIP3    H211538   0.486   5.508   9.472
14823TIP3   OH211539   0.272   5.590   9.491
14823TIP3    H111540   0.244   5.682   9.514
14823TIP3    H211541   0.230   5.543   9.566
14824TIP3   OH211542   1.518   5.504   9.700
14824TIP3    H111543   1.540   5.441   9.629
14824TIP3    H211544   1.428   5.475   9.726
14825TIP3   OH211545   1.301   5.418   9.836
14825TIP3    H111546   1.316   5.324   9.815
14825TIP3    H211547   1.209   5.428   9.801
14826TIP3   OH211548   1.073   5.399   9.701
14826TIP3    H111549   1.042   5.307   9.712
14826TIP3    H211550   1.064   5.410   9.605
14827TIP3   OH211551   0.694   3.990   9.825
14827TIP3    H111552   0.775   3.964   9.780
14827TIP3    H211553   0.683   3.920   9.891
14828TIP3   OH211554   0.211   3.782   9.852
14828TIP3    H111555   0.157   3.849   9.900
14828TIP3    H211556   0.301   3.818   9.870
14829TIP3   OH211557   0.069   3.929  10.034
14829TIP3    H111558   0.004   3.881  10.091
14829TIP3    H211559   0.013   4.006  10.006
14830TIP3   OH211560   1.493   3.826  10.033
14830TIP3    H111561   1.565   3.818  10.098
14830TIP3    H211562   1.436   3.749  10.059
14831TIP3   OH211563   1.618   3.819  10.484
14831TIP3    H111564   1.599   3.914  10.489
14831TIP3    H211565   1.688   3.821  10.416
14832TIP3   OH211566   1.036   3.826  10.074
14832TIP3    H111567   0.950   3.832  10.115
14832TIP3    H211568   1.014   3.838   9.980
14833TIP3   OH211569   0.453   3.877   9.938
14833TIP3    H111570   0.480   3.890  10.031
14833TIP3    H211571   0.506   3.797   9.914
14834TIP3   OH211572   0.320   3.836  10.338
14834TIP3    H111573   0.335   3.859  10.432
14834TIP3    H211574   0.392   3.772  10.321
14835TIP3   OH211575   1.597   5.475  10.405
14835TIP3    H111576   1.682   5.460  10.449
14835TIP3    H211577   1.583   5.570  10.422
14836TIP3   OH211578   0.914   4.043  10.382
14836TIP3    H111579   0.863   3.990  10.318
14836TIP3    H211580   0.882   4.132  10.356
14837TIP3   OH211581   0.731   5.630  10.554
14837TIP3    H111582   0.644   5.599  10.588
14837TIP3    H211583   0.779   5.648  10.636
14838TIP3   OH211584   0.062   5.487  10.277
14838TIP3    H111585   0.059   5.401  10.324
14838TIP3    H211586   0.068   5.550  10.351
14839TIP3   OH211587   1.513   3.929   9.140
14839TIP3    H111588   1.571   3.850   9.126
14839TIP3    H211589   1.440   3.912   9.078
14840TIP3   OH211590   1.305   3.862   8.944
14840TIP3    H111591   1.224   3.817   8.972
14840TIP3    H211592   1.348   3.789   8.895
14841TIP3   OH211593   0.457   3.784   8.918
14841TIP3    H111594   0.442   3.742   8.830
14841TIP3    H211595   0.368   3.765   8.958
14842TIP3   OH211596   0.142   5.392   9.086
14842TIP3    H111597   0.195   5.370   9.166
14842TIP3    H211598   0.165   5.486   9.074
14843TIP3   OH211599   8.101   6.666  10.083
14843TIP3    H111600   8.114   6.762  10.074
14843TIP3    H211601   8.165   6.648  10.155
14844TIP3   OH211602   8.212   6.561   9.734
14844TIP3    H111603   8.203   6.510   9.650
14844TIP3    H211604   8.285   6.515   9.780
14845TIP3   OH211605   8.965   6.568   9.608
14845TIP3    H111606   8.979   6.486   9.558
14845TIP3    H211607   8.903   6.615   9.549
14846TIP3   OH211608   7.877   6.865   9.895
14846TIP3    H111609   7.881   6.805   9.818
14846TIP3    H211610   7.887   6.951   9.853
14847TIP3   OH211611   8.951   6.989   9.745
14847TIP3    H111612   8.958   6.894   9.772
14847TIP3    H211613   8.855   6.989   9.736
14848TIP3   OH211614   9.222   6.360  10.220
14848TIP3    H111615   9.214   6.450  10.182
14848TIP3    H211616   9.272   6.317  10.150
14849TIP3   OH211617   9.116   6.557  10.041
14849TIP3    H111618   9.097   6.492   9.970
14849TIP3    H211619   9.067   6.635  10.012
14850TIP3   OH211620   8.116   7.405   9.894
14850TIP3    H111621   8.048   7.348   9.937
14850TIP3    H211622   8.158   7.336   9.840
14851TIP3   OH211623   8.384   6.845   9.673
14851TIP3    H111624   8.347   6.776   9.730
14851TIP3    H211625   8.303   6.871   9.624
14852TIP3   OH211626   7.535   5.982   9.663
14852TIP3    H111627   7.524   6.028   9.577
14852TIP3    H211628   7.449   6.001   9.706
14853TIP3   OH211629   8.039   6.279   9.639
14853TIP3    H111630   8.018   6.184   9.627
14853TIP3    H211631   8.076   6.275   9.729
14854TIP3   OH211632   8.762   6.066   9.953
14854TIP3    H111633   8.733   6.140  10.010
14854TIP3    H211634   8.775   5.996  10.020
14855TIP3   OH211635   7.994   6.080  10.094
14855TIP3    H111636   7.935   6.076  10.016
14855TIP3    H211637   7.965   6.158  10.143
14856TIP3   OH211638   9.070   6.334   9.864
14856TIP3    H111639   9.003   6.281   9.815
14856TIP3    H211640   9.063   6.291   9.951
14857TIP3   OH211641   8.589   6.485   9.919
14857TIP3    H111642   8.509   6.443   9.880
14857TIP3    H211643   8.618   6.411   9.977
14858TIP3   OH211644   7.515   6.112   9.413
14858TIP3    H111645   7.549   6.195   9.455
14858TIP3    H211646   7.490   6.146   9.326
14859TIP3   OH211647   8.850   5.996   9.521
14859TIP3    H111648   8.894   6.036   9.599
14859TIP3    H211649   8.915   6.017   9.451
14860TIP3   OH211650   8.168   6.931  10.186
14860TIP3    H111651   8.185   6.923  10.281
14860TIP3    H211652   8.195   7.024  10.169
14861TIP3   OH211653   8.616   6.748   9.556
14861TIP3    H111654   8.679   6.823   9.541
14861TIP3    H211655   8.542   6.798   9.596
14862TIP3   OH211656   7.787   6.083   9.856
14862TIP3    H111657   7.722   6.010   9.858
14862TIP3    H211658   7.737   6.149   9.804
14863TIP3   OH211659   8.890   6.170   9.738
14863TIP3    H111660   8.825   6.226   9.689
14863TIP3    H211661   8.834   6.133   9.811
14864TIP3   OH211662   8.762   6.964   9.457
14864TIP3    H111663   8.760   7.055   9.491
14864TIP3    H211664   8.853   6.957   9.424
14865TIP3   OH211665   7.795   7.081   9.636
14865TIP3    H111666   7.890   7.101   9.636
14865TIP3    H211667   7.767   7.151   9.697
14866TIP3   OH211668   7.813   5.894   9.553
14866TIP3    H111669   7.890   5.913   9.611
14866TIP3    H211670   7.739   5.925   9.607
14867TIP3   OH211671   8.528   5.704   9.767
14867TIP3    H111672   8.576   5.619   9.764
14867TIP3    H211673   8.606   5.763   9.747
14868TIP3   OH211674   7.947   7.240  10.023
14868TIP3    H111675   7.924   7.163  10.079
14868TIP3    H211676   7.875   7.303  10.046
14869TIP3   OH211677   7.837   7.034  10.178
14869TIP3    H111678   7.865   6.977  10.253
14869TIP3    H211679   7.854   6.972  10.104
14870TIP3   OH211680   7.705   6.901   9.303
14870TIP3    H111681   7.697   6.831   9.372
14870TIP3    H211682   7.680   6.979   9.356
14871TIP3   OH211683   8.238   6.615  10.320
14871TIP3    H111684   8.304   6.677  10.358
14871TIP3    H211685   8.170   6.607  10.390
14872TIP3   OH211686   7.493   6.552   9.508
14872TIP3    H111687   7.559   6.624   9.507
14872TIP3    H211688   7.433   6.587   9.577
14873TIP3   OH211689   7.869   6.618  10.220
14873TIP3    H111690   7.947   6.637  10.163
14873TIP3    H211691   7.813   6.563  10.160
14874TIP3   OH211692   7.886   6.467   9.319
14874TIP3    H111693   7.895   6.558   9.286
14874TIP3    H211694   7.963   6.464   9.378
14875TIP3   OH211695   8.731   6.660  10.048
14875TIP3    H111696   8.753   6.620  10.135
14875TIP3    H211697   8.663   6.597  10.015
14876TIP3   OH211698   8.593   7.007   9.778
14876TIP3    H111699   8.591   6.985   9.873
14876TIP3    H211700   8.516   6.957   9.744
14877TIP3   OH211701   8.704   6.529   9.685
14877TIP3    H111702   8.665   6.533   9.775
14877TIP3    H211703   8.656   6.601   9.638
14878TIP3   OH211704   8.064   7.131   9.623
14878TIP3    H111705   8.105   7.187   9.554
14878TIP3    H211706   8.070   7.043   9.582
14879TIP3   OH211707   8.625   6.983   9.225
14879TIP3    H111708   8.693   7.032   9.174
14879TIP3    H211709   8.669   6.973   9.312
14880TIP3   OH211710   8.007   6.566  10.449
14880TIP3    H111711   7.952   6.575  10.368
14880TIP3    H211712   7.946   6.598  10.516
14881TIP3   OH211713   8.910   6.615   9.312
14881TIP3    H111714   8.899   6.664   9.229
14881TIP3    H211715   9.005   6.592   9.305
14882TIP3   OH211716   8.264   7.205  10.188
14882TIP3    H111717   8.276   7.223  10.094
14882TIP3    H211718   8.276   7.294  10.227
14883TIP3   OH211719   8.791   7.169   9.117
14883TIP3    H111720   8.810   7.189   9.211
14883TIP3    H211721   8.881   7.154   9.084
14884TIP3   OH211722   8.835   6.566  10.294
14884TIP3    H111723   8.900   6.637  10.293
14884TIP3    H211724   8.889   6.486  10.291
14885TIP3   OH211725   9.208   6.819   9.351
14885TIP3    H111726   9.248   6.829   9.439
14885TIP3    H211727   9.210   6.722   9.338
14886TIP3   OH211728   9.213   7.093   9.760
14886TIP3    H111729   9.128   7.046   9.771
14886TIP3    H211730   9.187   7.156   9.689
14887TIP3   OH211731   7.443   7.163   9.144
14887TIP3    H111732   7.458   7.068   9.163
14887TIP3    H211733   7.527   7.185   9.098
14888TIP3   OH211734   8.372   7.100   9.225
14888TIP3    H111735   8.356   7.171   9.160
14888TIP3    H211736   8.466   7.076   9.211
14889TIP3   OH211737   8.278   7.481  10.291
14889TIP3    H111738   8.277   7.505  10.386
14889TIP3    H211739   8.285   7.570  10.249
14890TIP3   OH211740   8.915   7.374  10.090
14890TIP3    H111741   8.910   7.325  10.005
14890TIP3    H211742   8.994   7.331  10.128
14891TIP3   OH211743   7.933   7.445  10.601
14891TIP3    H111744   7.906   7.377  10.538
14891TIP3    H211745   7.954   7.518  10.541
14892TIP3   OH211746   8.009   7.421  10.310
14892TIP3    H111747   8.103   7.438  10.290
14892TIP3    H211748   7.996   7.337  10.263
14893TIP3   OH211749   7.737   6.282   9.102
14893TIP3    H111750   7.789   6.327   9.172
14893TIP3    H211751   7.738   6.190   9.136
14894TIP3   OH211752   9.004   6.977   9.275
14894TIP3    H111753   8.973   6.913   9.208
14894TIP3    H211754   9.088   6.931   9.302
14895TIP3   OH211755   8.740   5.838   9.694
14895TIP3    H111756   8.828   5.814   9.730
14895TIP3    H211757   8.766   5.893   9.617
14896TIP3   OH211758   8.235   5.768   9.391
14896TIP3    H111759   8.197   5.714   9.318
14896TIP3    H211760   8.331   5.768   9.372
14897TIP3   OH211761   7.970   6.187   9.295
14897TIP3    H111762   8.011   6.153   9.211
14897TIP3    H211763   8.028   6.262   9.314
14898TIP3   OH211764   8.720   6.289   9.575
14898TIP3    H111765   8.777   6.316   9.500
14898TIP3    H211766   8.708   6.377   9.620
14899TIP3   OH211767   8.711   6.295  10.082
14899TIP3    H111768   8.807   6.289  10.101
14899TIP3    H211769   8.670   6.280  10.171
14900TIP3   OH211770   8.156   6.364  10.220
14900TIP3    H111771   8.181   6.453  10.254
14900TIP3    H211772   8.097   6.330  10.291
14901TIP3   OH211773   8.266   6.407   9.078
14901TIP3    H111774   8.312   6.329   9.042
14901TIP3    H211775   8.184   6.404   9.024
14902TIP3   OH211776   8.077   6.326   9.917
14902TIP3    H111777   8.074   6.415   9.957
14902TIP3    H211778   8.084   6.270   9.996
14903TIP3   OH211779   8.996   6.309   9.442
14903TIP3    H111780   8.947   6.333   9.362
14903TIP3    H211781   9.021   6.216   9.425
14904TIP3   OH211782   9.242   6.030   9.991
14904TIP3    H111783   9.162   6.030   9.935
14904TIP3    H211784   9.210   6.035  10.082
14905TIP3   OH211785   9.193   6.123  10.483
14905TIP3    H111786   9.129   6.119  10.556
14905TIP3    H211787   9.223   6.214  10.496
14906TIP3   OH211788   8.152   6.468   9.491
14906TIP3    H111789   8.099   6.397   9.535
14906TIP3    H211790   8.210   6.414   9.431
14907TIP3   OH211791   8.448   6.058   9.960
14907TIP3    H111792   8.536   6.062   9.919
14907TIP3    H211793   8.400   5.995   9.902
14908TIP3   OH211794   8.986   6.208  10.107
14908TIP3    H111795   9.050   6.232  10.176
14908TIP3    H211796   8.946   6.125  10.141
14909TIP3   OH211797   8.627   6.243  10.326
14909TIP3    H111798   8.535   6.211  10.335
14909TIP3    H211799   8.638   6.297  10.406
14910TIP3   OH211800   8.044   5.988   9.672
14910TIP3    H111801   8.120   5.965   9.617
14910TIP3    H211802   8.061   5.937   9.752
14911TIP3   OH211803   8.733   6.351  10.563
14911TIP3    H111804   8.817   6.306  10.548
14911TIP3    H211805   8.690   6.294  10.629
14912TIP3   OH211806   7.735   7.550   9.010
14912TIP3    H111807   7.713   7.601   9.089
14912TIP3    H211808   7.652   7.561   8.959
14913TIP3   OH211809   8.931   6.790   9.087
14913TIP3    H111810   8.879   6.789   9.004
14913TIP3    H211811   9.023   6.790   9.052
14914TIP3   OH211812   8.389   6.346   9.826
14914TIP3    H111813   8.302   6.320   9.861
14914TIP3    H211814   8.431   6.262   9.804
14915TIP3   OH211815   8.859   5.936  10.174
14915TIP3    H111816   8.923   5.875  10.131
14915TIP3    H211817   8.802   5.874  10.219
14916TIP3   OH211818   8.501   6.149   9.569
14916TIP3    H111819   8.585   6.198   9.584
14916TIP3    H211820   8.445   6.217   9.529
14917TIP3   OH211821   8.420   6.811  10.377
14917TIP3    H111822   8.493   6.751  10.398
14917TIP3    H211823   8.446   6.838  10.285
14918TIP3   OH211824   7.684   6.745   9.514
14918TIP3    H111825   7.635   6.803   9.578
14918TIP3    H211826   7.769   6.739   9.559
14919TIP3   OH211827   8.315   6.839   9.273
14919TIP3    H111828   8.324   6.808   9.182
14919TIP3    H211829   8.343   6.932   9.264
14920TIP3   OH211830   7.959   6.255  10.383
14920TIP3    H111831   7.866   6.266  10.357
14920TIP3    H211832   7.962   6.279  10.477
14921TIP3   OH211833   8.888   6.738   9.824
14921TIP3    H111834   8.832   6.722   9.902
14921TIP3    H211835   8.867   6.661   9.768
14922TIP3   OH211836   8.229   6.958  10.483
14922TIP3    H111837   8.267   7.049  10.473
14922TIP3    H211838   8.300   6.903  10.444
14923TIP3   OH211839   9.184   6.561   9.300
14923TIP3    H111840   9.181   6.504   9.220
14923TIP3    H211841   9.229   6.507   9.368
14924TIP3   OH211842   8.550   6.538   9.113
14924TIP3    H111843   8.579   6.481   9.185
14924TIP3    H211844   8.455   6.514   9.106
14925TIP3   OH211845   8.025   7.066   9.250
14925TIP3    H111846   8.107   7.083   9.298
14925TIP3    H211847   8.048   7.109   9.165
14926TIP3   OH211848   7.490   6.270  10.412
14926TIP3    H111849   7.539   6.249  10.495
14926TIP3    H211850   7.480   6.366  10.424
14927TIP3   OH211851   7.457   6.883   9.180
14927TIP3    H111852   7.553   6.885   9.203
14927TIP3    H211853   7.415   6.875   9.268
14928TIP3   OH211854   7.667   7.147  10.385
14928TIP3    H111855   7.724   7.125  10.309
14928TIP3    H211856   7.627   7.061  10.400
14929TIP3   OH211857   7.922   6.667   9.694
14929TIP3    H111858   8.015   6.643   9.710
14929TIP3    H211859   7.877   6.594   9.742
14930TIP3   OH211860   8.695   7.065  10.058
14930TIP3    H111861   8.669   7.159  10.066
14930TIP3    H211862   8.790   7.074  10.073
14931TIP3   OH211863   8.544   6.854  10.139
14931TIP3    H111864   8.588   6.941  10.126
14931TIP3    H211865   8.594   6.798  10.077
14932TIP3   OH211866   8.497   7.260   9.440
14932TIP3    H111867   8.428   7.320   9.474
14932TIP3    H211868   8.453   7.226   9.360
14933TIP3   OH211869   8.652   7.315  10.154
14933TIP3    H111870   8.745   7.341  10.143
14933TIP3    H211871   8.608   7.400  10.145
14934TIP3   OH211872   8.161   6.868   9.520
14934TIP3    H111873   8.204   6.841   9.436
14934TIP3    H211874   8.105   6.791   9.542
14935TIP3   OH211875   7.852   7.327   9.270
14935TIP3    H111876   7.936   7.284   9.293
14935TIP3    H211877   7.839   7.389   9.346
14936TIP3   OH211878   7.473   7.423  10.581
14936TIP3    H111879   7.400   7.486  10.584
14936TIP3    H211880   7.539   7.472  10.527
14937TIP3   OH211881   9.045   6.044   9.339
14937TIP3    H111882   9.076   6.079   9.254
14937TIP3    H211883   9.071   5.950   9.333
14938TIP3   OH211884   7.821   6.839  10.374
14938TIP3    H111885   7.844   6.766  10.313
14938TIP3    H211886   7.726   6.825  10.386
14939TIP3   OH211887   9.092   7.226   9.528
14939TIP3    H111888   9.012   7.187   9.489
14939TIP3    H211889   9.133   7.274   9.454
14940TIP3   OH211890   8.184   6.036   9.402
14940TIP3    H111891   8.094   6.054   9.371
14940TIP3    H211892   8.198   5.942   9.379
14941TIP3   OH211893   8.123   5.941  10.378
14941TIP3    H111894   8.177   6.006  10.426
14941TIP3    H211895   8.067   6.000  10.325
14942TIP3   OH211896   8.316   7.220  10.490
14942TIP3    H111897   8.397   7.244  10.440
14942TIP3    H211898   8.282   7.311  10.510
14943TIP3   OH211899   8.363   6.147  10.207
14943TIP3    H111900   8.306   6.225  10.203
14943TIP3    H211901   8.398   6.134  10.117
14944TIP3   OH211902   8.283   6.296   9.335
14944TIP3    H111903   8.283   6.320   9.241
14944TIP3    H211904   8.259   6.201   9.339
14945TIP3   OH211905   8.272   5.846  10.136
14945TIP3    H111906   8.324   5.927  10.153
14945TIP3    H211907   8.191   5.872  10.185
14946TIP3   OH211908   8.575   7.305  10.468
14946TIP3    H111909   8.553   7.396  10.499
14946TIP3    H211910   8.627   7.321  10.389
14947TIP3   OH211911   8.701   6.036  10.509
14947TIP3    H111912   8.708   6.086  10.425
14947TIP3    H211913   8.609   6.007  10.510
14948TIP3   OH211914   7.730   6.058   9.250
14948TIP3    H111915   7.819   6.092   9.271
14948TIP3    H211916   7.687   6.063   9.336
14949TIP3   OH211917   7.825   6.429   9.828
14949TIP3    H111918   7.899   6.366   9.820
14949TIP3    H211919   7.752   6.380   9.786
14950TIP3   OH211920   9.085   6.271  10.697
14950TIP3    H111921   9.042   6.347  10.741
14950TIP3    H211922   9.141   6.242  10.771
14951TIP3   OH211923   7.745   7.356   9.683
14951TIP3    H111924   7.736   7.427   9.751
14951TIP3    H211925   7.650   7.342   9.666
14952TIP3   OH211926   8.975   5.765   9.778
14952TIP3    H111927   8.984   5.755   9.875
14952TIP3    H211928   9.018   5.682   9.745
14953TIP3   OH211929   9.083   7.168  10.177
14953TIP3    H111930   9.176   7.191  10.186
14953TIP3    H211931   9.052   7.198  10.263
14954TIP3   OH211932   9.176   7.462   9.015
14954TIP3    H111933   9.121   7.440   8.937
14954TIP3    H211934   9.197   7.372   9.046
14955TIP3   OH211935   8.663   7.290   8.865
14955TIP3    H111936   8.570   7.261   8.867
14955TIP3    H211937   8.695   7.256   8.950
14956TIP3   OH211938   8.084   7.182   9.015
14956TIP3    H111939   8.112   7.097   8.974
14956TIP3    H211940   7.992   7.188   8.979
14957TIP3   OH211941   9.194   6.829   8.999
14957TIP3    H111942   9.199   6.739   8.963
14957TIP3    H211943   9.289   6.849   9.007
14958TIP3   OH211944   8.525   6.797   9.058
14958TIP3    H111945   8.553   6.857   9.131
14958TIP3    H211946   8.542   6.707   9.095
14959TIP3   OH211947   8.206   6.915  10.763
14959TIP3    H111948   8.210   6.935  10.667
14959TIP3    H211949   8.222   6.820  10.765
14960TIP3   OH211950   7.951   6.790   9.261
14960TIP3    H111951   7.865   6.839   9.264
14960TIP3    H211952   8.011   6.867   9.259
14961TIP3   OH211953   9.077   6.492   9.023
14961TIP3    H111954   9.047   6.413   8.975
14961TIP3    H211955   9.068   6.559   8.953
14962TIP3   OH211956   8.602   6.621  10.503
14962TIP3    H111957   8.679   6.584  10.457
14962TIP3    H211958   8.554   6.540  10.528
14963TIP3   OH211959   8.731   6.423   9.338
14963TIP3    H111960   8.787   6.504   9.331
14963TIP3    H211961   8.654   6.459   9.387
14964TIP3   OH211962   8.166   6.699   8.938
14964TIP3    H111963   8.106   6.648   8.995
14964TIP3    H211964   8.192   6.633   8.871
14965TIP3   OH211965   8.605   6.204   9.210
14965TIP3    H111966   8.605   6.129   9.272
14965TIP3    H211967   8.625   6.279   9.269
14966TIP3   OH211968   8.606   5.991   9.389
14966TIP3    H111969   8.553   6.031   9.462
14966TIP3    H211970   8.695   5.999   9.428
14967TIP3   OH211971   8.478   6.554   9.427
14967TIP3    H111972   8.386   6.583   9.427
14967TIP3    H211973   8.525   6.633   9.461
14968TIP3   OH211974   8.067   6.334   8.883
14968TIP3    H111975   8.058   6.244   8.844
14968TIP3    H211976   7.975   6.359   8.896
14969TIP3   OH211977   7.885   6.638   9.043
14969TIP3    H111978   7.913   6.687   9.124
14969TIP3    H211979   7.792   6.616   9.064
14970TIP3   OH211980   8.771   6.252   8.979
14970TIP3    H111981   8.863   6.220   8.992
14970TIP3    H211982   8.742   6.268   9.070
14971TIP3   OH211983   8.514   5.744   9.388
14971TIP3    H111984   8.553   5.834   9.378
14971TIP3    H211985   8.589   5.696   9.424
14972TIP3   OH211986   8.413   6.188   8.993
14972TIP3    H111987   8.477   6.171   8.920
14972TIP3    H211988   8.471   6.163   9.068
14973TIP3   OH211989   8.139   6.109   9.093
14973TIP3    H111990   8.234   6.107   9.073
14973TIP3    H211991   8.109   6.046   9.024
14974TIP3   OH211992   8.052   5.926   8.923
14974TIP3    H111993   7.998   5.846   8.907
14974TIP3    H211994   8.030   5.985   8.847
14975TIP3   OH211995   9.001   6.076   9.008
14975TIP3    H111996   9.003   5.988   9.050
14975TIP3    H211997   9.014   6.053   8.913
14976TIP3   OH211998   8.548   5.668   9.125
14976TIP3    H111999   8.464   5.619   9.113
14976TIP3    H212000   8.542   5.685   9.222
14977TIP3   OH212001   8.540   5.789   8.837
14977TIP3    H112002   8.549   5.748   8.925
14977TIP3    H212003   8.567   5.881   8.858
14978TIP3   OH212004   8.521   7.559  10.589
14978TIP3    H112005   8.475   7.644  10.599
14978TIP3    H212006   8.560   7.542  10.677
14979TIP3   OH212007   9.262   7.527  10.149
14979TIP3    H112008   9.311   7.461  10.202
14979TIP3    H212009   9.253   7.476  10.066
14980TIP3   OH212010   9.214   7.345   9.948
14980TIP3    H112011   9.255   7.260   9.925
14980TIP3    H212012   9.160   7.362   9.868
14981TIP3   OH212013   7.468   7.408   9.676
14981TIP3    H112014   7.437   7.400   9.584
14981TIP3    H212015   7.436   7.497   9.696
14982TIP3   OH212016   7.513   7.360   9.357
14982TIP3    H112017   7.544   7.281   9.406
14982TIP3    H212018   7.487   7.320   9.272
14983TIP3   OH212019   7.629   6.935   8.874
14983TIP3    H112020   7.715   6.951   8.828
14983TIP3    H212021   7.589   7.024   8.863
14984TIP3   OH212022   7.509   6.780  10.362
14984TIP3    H112023   7.419   6.817  10.344
14984TIP3    H212024   7.518   6.720  10.285
14985TIP3   OH212025   7.502   6.600  10.155
14985TIP3    H112026   7.578   6.548  10.119
14985TIP3    H212027   7.444   6.607  10.077
14986TIP3   OH212028   7.532   6.862   9.690
14986TIP3    H112029   7.464   6.794   9.708
14986TIP3    H212030   7.492   6.942   9.730
14987TIP3   OH212031   7.640   7.141   9.435
14987TIP3    H112032   7.711   7.185   9.384
14987TIP3    H212033   7.687   7.114   9.518
14988TIP3   OH212034   7.478   6.573  10.550
14988TIP3    H112035   7.527   6.624  10.619
14988TIP3    H212036   7.480   6.640  10.480
14989TIP3   OH212037   7.624   6.288  10.667
14989TIP3    H112038   7.674   6.357  10.716
14989TIP3    H212039   7.662   6.205  10.697
14990TIP3   OH212040   7.706   6.444  10.085
14990TIP3    H112041   7.719   6.353  10.118
14990TIP3    H212042   7.739   6.439   9.993
14991TIP3   OH212043   9.185   6.665   9.718
14991TIP3    H112044   9.194   6.628   9.807
14991TIP3    H212045   9.092   6.639   9.692
14992TIP3   OH212046   7.597   6.621   9.120
14992TIP3    H112047   7.563   6.528   9.120
14992TIP3    H212048   7.526   6.667   9.166
14993TIP3   OH212049   7.496   6.370   9.092
14993TIP3    H112050   7.585   6.328   9.091
14993TIP3    H212051   7.435   6.292   9.081
14994TIP3   OH212052   7.721   6.214  10.235
14994TIP3    H112053   7.717   6.116  10.226
14994TIP3    H212054   7.638   6.224  10.285
14995TIP3   OH212055   7.645   6.265   9.705
14995TIP3    H112056   7.546   6.267   9.701
14995TIP3    H212057   7.662   6.279   9.610
14996TIP3   OH212058   7.658   6.333   9.445
14996TIP3    H112059   7.746   6.357   9.409
14996TIP3    H212060   7.616   6.421   9.456
14997TIP3   OH212061   9.234   6.197   9.029
14997TIP3    H112062   9.143   6.161   9.025
14997TIP3    H212063   9.287   6.117   9.039
14998TIP3   OH212064   7.450   5.758   8.929
14998TIP3    H112065   7.405   5.684   8.975
14998TIP3    H212066   7.448   5.826   9.000
14999TIP3   OH212067   7.645   5.959  10.248
14999TIP3    H112068   7.638   5.907  10.165
14999TIP3    H212069   7.713   5.907  10.296
15000TIP3   OH212070   9.095   6.007   9.734
15000TIP3    H112071   9.066   5.916   9.753
15000TIP3    H212072   9.013   6.060   9.748
15001TIP3   OH212073   9.253   6.284   9.672
15001TIP3    H112074   9.187   6.270   9.743
15001TIP3    H212075   9.242   6.379   9.656
15002TIP3   OH212076   7.507   5.966   9.084
15002TIP3    H112077   7.577   5.989   9.019
15002TIP3    H212078   7.559   5.935   9.159
15003TIP3   OH212079   9.249   5.951  10.285
15003TIP3    H112080   9.346   5.951  10.300
15003TIP3    H212081   9.222   5.993  10.369
15004TIP3   OH212082   7.787   7.442  10.071
15004TIP3    H112083   7.716   7.441  10.139
15004TIP3    H212084   7.744   7.487   9.995
15005TIP3   OH212085   9.267   5.795   9.460
15005TIP3    H112086   9.310   5.790   9.373
15005TIP3    H212087   9.314   5.868   9.504
15006TIP3   OH212088   9.047   7.088   9.029
15006TIP3    H112089   9.057   7.062   9.123
15006TIP3    H212090   9.072   7.002   8.989
15007TIP3   OH212091   8.757   7.249   9.395
15007TIP3    H112092   8.761   7.342   9.423
15007TIP3    H212093   8.660   7.236   9.400
15008TIP3   OH212094   8.338   7.365   9.142
15008TIP3    H112095   8.328   7.356   9.046
15008TIP3    H212096   8.249   7.399   9.167
15009TIP3   OH212097   8.116   7.525   9.173
15009TIP3    H112098   8.036   7.474   9.193
15009TIP3    H212099   8.087   7.577   9.095
15010TIP3   OH212100   7.610   5.721   9.273
15010TIP3    H112101   7.689   5.757   9.317
15010TIP3    H212102   7.599   5.634   9.316
15011TIP3   OH212103   9.029   7.553   9.423
15011TIP3    H112104   9.113   7.590   9.460
15011TIP3    H212105   9.054   7.537   9.331
15012TIP3   OH212106   8.765   7.511   9.527
15012TIP3    H112107   8.856   7.529   9.493
15012TIP3    H212108   8.755   7.582   9.593
15013TIP3   OH212109   8.319   7.471   9.582
15013TIP3    H112110   8.394   7.524   9.610
15013TIP3    H212111   8.278   7.534   9.519
15014TIP3   OH212112   8.105   7.345   9.452
15014TIP3    H112113   8.163   7.385   9.520
15014TIP3    H212114   8.024   7.395   9.472
15015TIP3   OH212115   7.835   7.495   9.475
15015TIP3    H112116   7.816   7.584   9.510
15015TIP3    H212117   7.807   7.442   9.553
15016TIP3   OH212118   9.066   7.403   9.729
15016TIP3    H112119   9.089   7.349   9.651
15016TIP3    H212120   8.982   7.359   9.758
15017TIP3   OH212121   8.880   7.246   9.842
15017TIP3    H112122   8.890   7.156   9.806
15017TIP3    H212123   8.791   7.270   9.808
15018TIP3   OH212124   8.636   7.281   9.727
15018TIP3    H112125   8.592   7.193   9.736
15018TIP3    H212126   8.603   7.310   9.641
15019TIP3   OH212127   8.305   5.824   9.836
15019TIP3    H112128   8.382   5.769   9.812
15019TIP3    H212129   8.286   5.803   9.929
15020TIP3   OH212130   7.724   5.672   9.861
15020TIP3    H112131   7.676   5.745   9.905
15020TIP3    H212132   7.816   5.687   9.890
15021TIP3   OH212133   7.575   5.824  10.021
15021TIP3    H112134   7.508   5.762  10.060
15021TIP3    H212135   7.515   5.901  10.001
15022TIP3   OH212136   8.996   5.749  10.056
15022TIP3    H112137   9.084   5.740  10.100
15022TIP3    H212138   8.958   5.659  10.064
15023TIP3   OH212139   9.116   5.712  10.484
15023TIP3    H112140   9.113   5.774  10.558
15023TIP3    H212141   9.182   5.751  10.425
15024TIP3   OH212142   8.574   5.712  10.058
15024TIP3    H112143   8.498   5.737  10.111
15024TIP3    H212144   8.541   5.722   9.967
15025TIP3   OH212145   7.987   5.733   9.936
15025TIP3    H112146   8.032   5.756  10.018
15025TIP3    H212147   8.052   5.672   9.895
15026TIP3   OH212148   7.898   5.779  10.346
15026TIP3    H112149   7.981   5.819  10.377
15026TIP3    H212150   7.927   5.692  10.314
15027TIP3   OH212151   9.176   7.354  10.436
15027TIP3    H112152   9.190   7.358  10.532
15027TIP3    H212153   9.146   7.445  10.422
15028TIP3   OH212154   8.938   5.917  10.629
15028TIP3    H112155   8.911   5.851  10.563
15028TIP3    H212156   8.866   5.983  10.626
15029TIP3   OH212157   8.243   7.463  10.569
15029TIP3    H112158   8.162   7.491  10.614
15029TIP3    H212159   8.306   7.468  10.643
15030TIP3   OH212160   7.615   7.390  10.268
15030TIP3    H112161   7.625   7.310  10.325
15030TIP3    H212162   7.627   7.462  10.333
15031TIP3   OH212163   9.053   5.798   9.132
15031TIP3    H112164   9.116   5.731   9.098
15031TIP3    H212165   8.972   5.771   9.084
15032TIP3   OH212166   8.838   5.754   8.947
15032TIP3    H112167   8.771   5.693   8.982
15032TIP3    H212168   8.882   5.695   8.884
15033TIP3   OH212169   8.965   7.361  10.665
15033TIP3    H112170   8.991   7.432  10.604
15033TIP3    H212171   8.911   7.405  10.732
15034TIP3   OH212172   7.990   5.661   8.904
15034TIP3    H112173   7.975   5.620   8.816
15034TIP3    H212174   7.901   5.650   8.944
15035TIP3   OH212175   7.673   7.288   9.075
15035TIP3    H112176   7.752   7.280   9.134
15035TIP3    H212177   7.683   7.380   9.046
15036TIP3   OH212178   6.220   6.647  10.083
15036TIP3    H112179   6.218   6.738  10.047
15036TIP3    H212180   6.287   6.657  10.154
15037TIP3   OH212181   6.326   6.567   9.722
15037TIP3    H112182   6.312   6.526   9.634
15037TIP3    H212183   6.399   6.513   9.755
15038TIP3   OH212184   7.119   6.557   9.597
15038TIP3    H112185   7.120   6.466   9.562
15038TIP3    H212186   7.055   6.599   9.538
15039TIP3   OH212187   5.986   6.834   9.913
15039TIP3    H112188   6.000   6.769   9.842
15039TIP3    H212189   5.970   6.914   9.859
15040TIP3   OH212190   7.012   7.013   9.779
15040TIP3    H112191   7.040   6.920   9.791
15040TIP3    H212192   6.916   6.998   9.773
15041TIP3   OH212193   7.342   6.333  10.186
15041TIP3    H112194   7.370   6.425  10.177
15041TIP3    H212195   7.405   6.300  10.252
15042TIP3   OH212196   7.297   6.594   9.948
15042TIP3    H112197   7.257   6.506   9.929
15042TIP3    H212198   7.221   6.652   9.958
15043TIP3   OH212199   6.252   7.400   9.894
15043TIP3    H112200   6.180   7.349   9.937
15043TIP3    H212201   6.275   7.335   9.827
15044TIP3   OH212202   6.513   6.871   9.656
15044TIP3    H112203   6.499   6.803   9.723
15044TIP3    H212204   6.421   6.882   9.622
15045TIP3   OH212205   5.648   5.976   9.657
15045TIP3    H112206   5.629   6.023   9.573
15045TIP3    H212207   5.570   5.999   9.710
15046TIP3   OH212208   6.135   6.286   9.636
15046TIP3    H112209   6.118   6.191   9.621
15046TIP3    H212210   6.186   6.279   9.719
15047TIP3   OH212211   6.860   6.049   9.966
15047TIP3    H112212   6.850   6.137  10.009
15047TIP3    H212213   6.921   6.007  10.030
15048TIP3   OH212214   6.085   6.063  10.092
15048TIP3    H112215   6.038   6.047  10.006
15048TIP3    H212216   6.057   6.152  10.117
15049TIP3   OH212217   7.196   6.359   9.859
15049TIP3    H112218   7.133   6.318   9.798
15049TIP3    H212219   7.173   6.312   9.943
15050TIP3   OH212220   6.707   6.482   9.922
15050TIP3    H112221   6.626   6.440   9.887
15050TIP3    H212222   6.741   6.411   9.979
15051TIP3   OH212223   5.628   6.117   9.409
15051TIP3    H112224   5.663   6.197   9.454
15051TIP3    H212225   5.613   6.152   9.320
15052TIP3   OH212226   6.977   5.979   9.522
15052TIP3    H112227   7.008   6.026   9.602
15052TIP3    H212228   7.042   6.010   9.455
15053TIP3   OH212229   6.286   6.946  10.190
15053TIP3    H112230   6.348   6.923  10.262
15053TIP3    H212231   6.314   7.037  10.168
15054TIP3   OH212232   6.747   6.737   9.559
15054TIP3    H112233   6.813   6.807   9.536
15054TIP3    H212234   6.673   6.793   9.588
15055TIP3   OH212235   5.935   6.032   9.864
15055TIP3    H112236   5.861   5.970   9.858
15055TIP3    H212237   5.903   6.102   9.804
15056TIP3   OH212238   7.011   6.166   9.738
15056TIP3    H112239   6.948   6.225   9.690
15056TIP3    H212240   6.956   6.137   9.813
15057TIP3   OH212241   6.885   6.947   9.459
15057TIP3    H112242   6.898   7.034   9.498
15057TIP3    H212243   6.967   6.939   9.404
15058TIP3   OH212244   7.271   6.906  10.354
15058TIP3    H112245   7.289   6.961  10.433
15058TIP3    H212246   7.268   6.974  10.283
15059TIP3   OH212247   5.912   7.069   9.684
15059TIP3    H112248   6.003   7.095   9.657
15059TIP3    H212249   5.889   7.150   9.733
15060TIP3   OH212250   5.931   5.897   9.559
15060TIP3    H112251   6.003   5.926   9.618
15060TIP3    H212252   5.852   5.930   9.605
15061TIP3   OH212253   6.621   5.715   9.794
15061TIP3    H112254   6.652   5.623   9.781
15061TIP3    H212255   6.697   5.766   9.755
15062TIP3   OH212256   6.076   7.226  10.000
15062TIP3    H112257   6.067   7.160  10.071
15062TIP3    H212258   5.997   7.283  10.020
15063TIP3   OH212259   5.969   7.033  10.168
15063TIP3    H112260   5.991   6.970  10.238
15063TIP3    H212261   5.981   6.975  10.091
15064TIP3   OH212262   5.819   6.904   9.298
15064TIP3    H112263   5.797   6.840   9.369
15064TIP3    H212264   5.800   6.987   9.346
15065TIP3   OH212265   6.362   6.609  10.329
15065TIP3    H112266   6.419   6.681  10.364
15065TIP3    H212267   6.315   6.581  10.408
15066TIP3   OH212268   5.613   6.552   9.510
15066TIP3    H112269   5.682   6.621   9.516
15066TIP3    H212270   5.551   6.585   9.579
15067TIP3   OH212271   5.975   6.639  10.208
15067TIP3    H112272   6.059   6.640  10.156
15067TIP3    H212273   5.919   6.585  10.148
15068TIP3   OH212274   6.031   6.457   9.322
15068TIP3    H112275   6.020   6.548   9.293
15068TIP3    H212276   6.102   6.471   9.387
15069TIP3   OH212277   6.861   6.663  10.037
15069TIP3    H112278   6.890   6.622  10.121
15069TIP3    H212279   6.793   6.600  10.006
15070TIP3   OH212280   6.717   7.000   9.777
15070TIP3    H112281   6.703   6.987   9.872
15070TIP3    H212282   6.638   6.957   9.737
15071TIP3   OH212283   6.832   6.520   9.682
15071TIP3    H112284   6.790   6.524   9.770
15071TIP3    H212285   6.794   6.600   9.638
15072TIP3   OH212286   6.157   7.128   9.606
15072TIP3    H112287   6.196   7.182   9.535
15072TIP3    H212288   6.176   7.038   9.576
15073TIP3   OH212289   6.729   6.975   9.240
15073TIP3    H112290   6.798   7.031   9.197
15073TIP3    H212291   6.771   6.957   9.327
15074TIP3   OH212292   6.118   6.520  10.442
15074TIP3    H112293   6.055   6.563  10.380
15074TIP3    H212294   6.102   6.565  10.527
15075TIP3   OH212295   7.015   6.611   9.335
15075TIP3    H112296   6.999   6.684   9.274
15075TIP3    H212297   7.092   6.573   9.290
15076TIP3   OH212298   6.352   7.215  10.168
15076TIP3    H112299   6.347   7.266  10.085
15076TIP3    H212300   6.419   7.262  10.219
15077TIP3   OH212301   6.893   7.160   9.125
15077TIP3    H112302   6.906   7.200   9.213
15077TIP3    H212303   6.986   7.133   9.106
15078TIP3   OH212304   5.793   5.689  10.459
15078TIP3    H112305   5.876   5.715  10.412
15078TIP3    H212306   5.772   5.774  10.500
15079TIP3   OH212307   6.974   6.558  10.263
15079TIP3    H112308   6.999   6.640  10.310
15079TIP3    H212309   7.023   6.491  10.312
15080TIP3   OH212310   7.309   6.821   9.393
15080TIP3    H112311   7.347   6.801   9.480
15080TIP3    H212312   7.282   6.730   9.368
15081TIP3   OH212313   7.350   7.094   9.735
15081TIP3    H112314   7.262   7.056   9.738
15081TIP3    H212315   7.339   7.160   9.665
15082TIP3   OH212316   5.551   7.162   9.143
15082TIP3    H112317   5.562   7.066   9.150
15082TIP3    H212318   5.637   7.187   9.101
15083TIP3   OH212319   6.469   7.097   9.239
15083TIP3    H112320   6.450   7.170   9.176
15083TIP3    H212321   6.563   7.076   9.224
15084TIP3   OH212322   6.427   7.514  10.323
15084TIP3    H112323   6.373   7.573  10.377
15084TIP3    H212324   6.419   7.562  10.238
15085TIP3   OH212325   7.044   7.352  10.082
15085TIP3    H112326   7.003   7.333   9.995
15085TIP3    H212327   7.131   7.311  10.067
15086TIP3   OH212328   6.016   7.465  10.536
15086TIP3    H112329   5.999   7.411  10.614
15086TIP3    H212330   6.092   7.419  10.495
15087TIP3   OH212331   6.167   7.387  10.299
15087TIP3    H112332   6.258   7.415  10.280
15087TIP3    H212333   6.165   7.299  10.259
15088TIP3   OH212334   5.853   6.284   9.105
15088TIP3    H112335   5.906   6.329   9.174
15088TIP3    H212336   5.853   6.192   9.140
15089TIP3   OH212337   7.092   6.946   9.292
15089TIP3    H112338   7.094   6.904   9.204
15089TIP3    H212339   7.178   6.917   9.331
15090TIP3   OH212340   6.832   5.835   9.691
15090TIP3    H112341   6.917   5.830   9.739
15090TIP3    H212342   6.864   5.878   9.609
15091TIP3   OH212343   6.329   5.767   9.387
15091TIP3    H112344   6.290   5.722   9.310
15091TIP3    H212345   6.422   5.775   9.359
15092TIP3   OH212346   6.076   6.188   9.306
15092TIP3    H112347   6.122   6.160   9.223
15092TIP3    H212348   6.098   6.283   9.311
15093TIP3   OH212349   6.396   5.966  10.619
15093TIP3    H112350   6.445   5.944  10.537
15093TIP3    H212351   6.382   5.878  10.657
15094TIP3   OH212352   6.832   6.282   9.575
15094TIP3    H112353   6.912   6.291   9.520
15094TIP3    H212354   6.824   6.375   9.608
15095TIP3   OH212355   6.853   6.278  10.094
15095TIP3    H112356   6.945   6.287  10.121
15095TIP3    H212357   6.807   6.281  10.182
15096TIP3   OH212358   6.267   6.347  10.230
15096TIP3    H112359   6.263   6.442  10.256
15096TIP3    H212360   6.205   6.306  10.293
15097TIP3   OH212361   6.393   6.399   9.059
15097TIP3    H112362   6.425   6.314   9.022
15097TIP3    H212363   6.304   6.402   9.019
15098TIP3   OH212364   6.195   6.327   9.921
15098TIP3    H112365   6.204   6.417   9.958
15098TIP3    H212366   6.210   6.276  10.001
15099TIP3   OH212367   7.084   6.305   9.455
15099TIP3    H112368   7.047   6.338   9.372
15099TIP3    H212369   7.115   6.217   9.423
15100TIP3   OH212370   7.404   6.033   9.988
15100TIP3    H112371   7.324   6.028   9.934
15100TIP3    H212372   7.374   6.082  10.066
15101TIP3   OH212373   7.281   6.094  10.471
15101TIP3    H112374   7.224   6.160  10.514
15101TIP3    H212375   7.350   6.153  10.434
15102TIP3   OH212376   6.269   6.462   9.485
15102TIP3    H112377   6.216   6.392   9.530
15102TIP3    H212378   6.331   6.408   9.429
15103TIP3   OH212379   6.547   6.079   9.997
15103TIP3    H112380   6.639   6.057   9.974
15103TIP3    H212381   6.496   6.013   9.946
15104TIP3   OH212382   7.123   6.212  10.088
15104TIP3    H112383   7.197   6.232  10.148
15104TIP3    H212384   7.086   6.128  10.124
15105TIP3   OH212385   6.750   6.283  10.341
15105TIP3    H112386   6.667   6.233  10.328
15105TIP3    H212387   6.737   6.323  10.428
15106TIP3   OH212388   6.154   5.988   9.679
15106TIP3    H112389   6.228   5.965   9.621
15106TIP3    H212390   6.162   5.928   9.756
15107TIP3   OH212391   5.839   7.545   9.008
15107TIP3    H112392   5.818   7.589   9.092
15107TIP3    H212393   5.758   7.568   8.959
15108TIP3   OH212394   7.058   6.771   9.071
15108TIP3    H112395   7.002   6.787   8.992
15108TIP3    H212396   7.147   6.775   9.031
15109TIP3   OH212397   6.490   6.355   9.806
15109TIP3    H112398   6.434   6.325   9.879
15109TIP3    H212399   6.506   6.273   9.757
15110TIP3   OH212400   7.033   5.962  10.156
15110TIP3    H112401   7.089   5.889  10.122
15110TIP3    H212402   6.972   5.911  10.210
15111TIP3   OH212403   6.593   6.153   9.566
15111TIP3    H112404   6.668   6.214   9.581
15111TIP3    H212405   6.531   6.205   9.513
15112TIP3   OH212406   6.517   6.844  10.367
15112TIP3    H112407   6.576   6.785  10.418
15112TIP3    H212408   6.571   6.849  10.285
15113TIP3   OH212409   5.793   6.754   9.511
15113TIP3    H112410   5.743   6.815   9.572
15113TIP3    H212411   5.877   6.744   9.558
15114TIP3   OH212412   6.419   6.829   9.284
15114TIP3    H112413   6.437   6.801   9.194
15114TIP3    H212414   6.444   6.923   9.281
15115TIP3   OH212415   6.055   6.237  10.406
15115TIP3    H112416   5.981   6.266  10.350
15115TIP3    H212417   6.074   6.317  10.457
15116TIP3   OH212418   7.021   6.744   9.826
15116TIP3    H112419   6.963   6.725   9.903
15116TIP3    H212420   7.012   6.665   9.772
15117TIP3   OH212421   7.345   6.573   9.264
15117TIP3    H112422   7.343   6.505   9.194
15117TIP3    H212423   7.388   6.524   9.337
15118TIP3   OH212424   6.647   6.529   9.102
15118TIP3    H112425   6.693   6.465   9.157
15118TIP3    H212426   6.556   6.491   9.102
15119TIP3   OH212427   6.134   7.058   9.240
15119TIP3    H112428   6.216   7.062   9.291
15119TIP3    H212429   6.161   7.114   9.163
15120TIP3   OH212430   5.590   6.247  10.438
15120TIP3    H112431   5.638   6.283  10.516
15120TIP3    H212432   5.524   6.315  10.419
15121TIP3   OH212433   5.570   6.884   9.176
15121TIP3    H112434   5.663   6.884   9.209
15121TIP3    H212435   5.521   6.869   9.261
15122TIP3   OH212436   5.765   7.129  10.424
15122TIP3    H112437   5.847   7.118  10.374
15122TIP3    H212438   5.796   7.162  10.511
15123TIP3   OH212439   6.038   6.658   9.704
15123TIP3    H112440   6.132   6.633   9.705
15123TIP3    H212441   5.996   6.580   9.744
15124TIP3   OH212442   6.799   7.088  10.042
15124TIP3    H112443   6.761   7.178  10.046
15124TIP3    H212444   6.890   7.102  10.070
15125TIP3   OH212445   6.664   6.847  10.135
15125TIP3    H112446   6.703   6.936  10.125
15125TIP3    H212447   6.725   6.791  10.084
15126TIP3   OH212448   6.608   7.273   9.428
15126TIP3    H112449   6.542   7.337   9.463
15126TIP3    H212450   6.553   7.230   9.359
15127TIP3   OH212451   6.780   7.351  10.173
15127TIP3    H112452   6.877   7.355  10.163
15127TIP3    H212453   6.755   7.436  10.131
15128TIP3   OH212454   6.276   6.869   9.522
15128TIP3    H112455   6.316   6.836   9.437
15128TIP3    H212456   6.236   6.789   9.558
15129TIP3   OH212457   5.999   6.962  10.621
15129TIP3    H112458   6.018   6.936  10.528
15129TIP3    H212459   5.996   6.874  10.663
15130TIP3   OH212460   5.958   7.332   9.269
15130TIP3    H112461   6.044   7.290   9.289
15130TIP3    H212462   5.947   7.392   9.347
15131TIP3   OH212463   5.608   7.378  10.525
15131TIP3    H112464   5.539   7.404  10.588
15131TIP3    H212465   5.686   7.375  10.582
15132TIP3   OH212466   7.133   6.069   9.320
15132TIP3    H112467   7.205   6.107   9.265
15132TIP3    H212468   7.143   5.975   9.298
15133TIP3   OH212469   5.945   6.827  10.388
15133TIP3    H112470   5.959   6.758  10.319
15133TIP3    H212471   5.849   6.842  10.383
15134TIP3   OH212472   7.200   7.221   9.508
15134TIP3    H112473   7.124   7.164   9.486
15134TIP3    H212474   7.202   7.279   9.431
15135TIP3   OH212475   6.743   7.040  10.500
15135TIP3    H112476   6.656   7.016  10.464
15135TIP3    H212477   6.742   7.138  10.491
15136TIP3   OH212478   7.057   6.782  10.464
15136TIP3    H112479   7.139   6.812  10.420
15136TIP3    H212480   7.017   6.866  10.488
15137TIP3   OH212481   6.308   6.055   9.410
15137TIP3    H112482   6.216   6.074   9.388
15137TIP3    H212483   6.316   5.959   9.394
15138TIP3   OH212484   6.208   5.937  10.286
15138TIP3    H112485   6.186   5.997  10.358
15138TIP3    H212486   6.163   5.981  10.211
15139TIP3   OH212487   6.448   7.228  10.488
15139TIP3    H112488   6.521   7.283  10.456
15139TIP3    H212489   6.396   7.289  10.545
15140TIP3   OH212490   6.528   6.151  10.266
15140TIP3    H112491   6.453   6.212  10.255
15140TIP3    H212492   6.545   6.127  10.173
15141TIP3   OH212493   6.407   6.299   9.321
15141TIP3    H112494   6.405   6.319   9.225
15141TIP3    H212495   6.372   6.208   9.330
15142TIP3   OH212496   6.446   5.844  10.174
15142TIP3    H112497   6.458   5.894  10.091
15142TIP3    H212498   6.362   5.886  10.204
15143TIP3   OH212499   6.747   7.310  10.440
15143TIP3    H112500   6.702   7.384  10.485
15143TIP3    H212501   6.764   7.345  10.350
15144TIP3   OH212502   5.840   6.059   9.243
15144TIP3    H112503   5.929   6.086   9.274
15144TIP3    H212504   5.791   6.056   9.328
15145TIP3   OH212505   5.945   6.423   9.847
15145TIP3    H112506   6.023   6.365   9.844
15145TIP3    H212507   5.877   6.372   9.797
15146TIP3   OH212508   7.006   7.048  10.609
15146TIP3    H112509   6.917   7.040  10.569
15146TIP3    H212510   6.993   7.110  10.683
15147TIP3   OH212511   7.194   6.338  10.597
15147TIP3    H112512   7.149   6.417  10.630
15147TIP3    H212513   7.283   6.344  10.633
15148TIP3   OH212514   5.865   7.361   9.683
15148TIP3    H112515   5.860   7.429   9.755
15148TIP3    H212516   5.770   7.361   9.659
15149TIP3   OH212517   7.082   5.769   9.768
15149TIP3    H112518   7.090   5.747   9.863
15149TIP3    H212519   7.115   5.684   9.729
15150TIP3   OH212520   7.247   7.142  10.187
15150TIP3    H112521   7.317   7.205  10.167
15150TIP3    H212522   7.204   7.191  10.260
15151TIP3   OH212523   7.311   7.454   9.043
15151TIP3    H112524   7.246   7.444   8.969
15151TIP3    H212525   7.337   7.361   9.053
15152TIP3   OH212526   6.802   7.279   8.860
15152TIP3    H112527   6.710   7.248   8.864
15152TIP3    H212528   6.839   7.237   8.939
15153TIP3   OH212529   6.201   7.181   9.010
15153TIP3    H112530   6.223   7.090   8.981
15153TIP3    H212531   6.110   7.189   8.973
15154TIP3   OH212532   5.875   7.217  10.666
15154TIP3    H112533   5.924   7.131  10.669
15154TIP3    H212534   5.888   7.250  10.756
15155TIP3   OH212535   7.318   6.798   8.961
15155TIP3    H112536   7.363   6.712   8.957
15155TIP3    H212537   7.360   6.838   9.041
15156TIP3   OH212538   6.646   6.791   9.058
15156TIP3    H112539   6.669   6.850   9.134
15156TIP3    H212540   6.651   6.699   9.097
15157TIP3   OH212541   6.067   6.788   9.263
15157TIP3    H112542   5.979   6.834   9.261
15157TIP3    H212543   6.122   6.869   9.261
15158TIP3   OH212544   7.176   6.500   9.003
15158TIP3    H112545   7.093   6.452   8.990
15158TIP3    H212546   7.166   6.569   8.934
15159TIP3   OH212547   6.705   6.661  10.495
15159TIP3    H112548   6.791   6.623  10.470
15159TIP3    H212549   6.680   6.606  10.574
15160TIP3   OH212550   6.835   6.406   9.320
15160TIP3    H112551   6.890   6.487   9.318
15160TIP3    H212552   6.757   6.439   9.370
15161TIP3   OH212553   6.275   6.700   8.940
15161TIP3    H112554   6.221   6.651   9.004
15161TIP3    H212555   6.306   6.630   8.880
15162TIP3   OH212556   6.695   6.200   9.197
15162TIP3    H112557   6.693   6.135   9.269
15162TIP3    H212558   6.726   6.279   9.246
15163TIP3   OH212559   6.727   5.975   9.415
15163TIP3    H112560   6.682   6.031   9.483
15163TIP3    H212561   6.821   5.987   9.440
15164TIP3   OH212562   6.606   6.563   9.413
15164TIP3    H112563   6.519   6.594   9.442
15164TIP3    H212564   6.664   6.634   9.447
15165TIP3   OH212565   6.177   6.337   8.882
15165TIP3    H112566   6.170   6.251   8.834
15165TIP3    H212567   6.084   6.357   8.900
15166TIP3   OH212568   5.994   6.636   9.047
15166TIP3    H112569   6.035   6.682   9.123
15166TIP3    H212570   5.905   6.619   9.082
15167TIP3   OH212571   6.905   6.256   8.989
15167TIP3    H112572   6.983   6.205   9.022
15167TIP3    H212573   6.850   6.261   9.068
15168TIP3   OH212574   6.614   5.738   9.383
15168TIP3    H112575   6.648   5.830   9.389
15168TIP3    H212576   6.690   5.690   9.419
15169TIP3   OH212577   6.518   6.159   8.976
15169TIP3    H112578   6.590   6.146   8.910
15169TIP3    H212579   6.572   6.152   9.057
15170TIP3   OH212580   6.246   6.112   9.096
15170TIP3    H112581   6.340   6.105   9.072
15170TIP3    H212582   6.211   6.050   9.027
15171TIP3   OH212583   6.159   5.930   8.923
15171TIP3    H112584   6.109   5.848   8.905
15171TIP3    H212585   6.141   5.987   8.844
15172TIP3   OH212586   7.111   6.083   9.005
15172TIP3    H112587   7.116   5.997   9.050
15172TIP3    H212588   7.126   6.057   8.911
15173TIP3   OH212589   6.667   5.676   9.114
15173TIP3    H112590   6.610   5.598   9.100
15173TIP3    H212591   6.651   5.691   9.210
15174TIP3   OH212592   6.653   5.793   8.849
15174TIP3    H112593   6.660   5.755   8.939
15174TIP3    H212594   6.658   5.887   8.870
15175TIP3   OH212595   6.637   7.524  10.583
15175TIP3    H112596   6.562   7.554  10.529
15175TIP3    H212597   6.621   7.576  10.663
15176TIP3   OH212598   7.298   7.024  10.602
15176TIP3    H112599   7.204   7.031  10.627
15176TIP3    H212600   7.337   6.961  10.663
15177TIP3   OH212601   7.399   7.495  10.136
15177TIP3    H112602   7.476   7.443  10.169
15177TIP3    H212603   7.372   7.439  10.060
15178TIP3   OH212604   7.339   7.326   9.931
15178TIP3    H112605   7.392   7.247   9.912
15178TIP3    H212606   7.328   7.360   9.840
15179TIP3   OH212607   5.602   7.426   9.681
15179TIP3    H112608   5.562   7.425   9.592
15179TIP3    H212609   5.538   7.477   9.731
15180TIP3   OH212610   5.626   7.352   9.370
15180TIP3    H112611   5.660   7.277   9.423
15180TIP3    H212612   5.604   7.307   9.286
15181TIP3   OH212613   5.743   6.932   8.880
15181TIP3    H112614   5.834   6.944   8.844
15181TIP3    H212615   5.706   7.020   8.856
15182TIP3   OH212616   5.605   6.798  10.373
15182TIP3    H112617   5.618   6.882  10.328
15182TIP3    H212618   5.610   6.734  10.299
15183TIP3   OH212619   5.602   6.602  10.146
15183TIP3    H112620   5.690   6.570  10.115
15183TIP3    H212621   5.546   6.591  10.066
15184TIP3   OH212622   5.639   6.865   9.692
15184TIP3    H112623   5.571   6.797   9.707
15184TIP3    H212624   5.602   6.946   9.732
15185TIP3   OH212625   5.769   7.137   9.445
15185TIP3    H112626   5.843   7.179   9.398
15185TIP3    H212627   5.810   7.109   9.530
15186TIP3   OH212628   5.733   6.301  10.679
15186TIP3    H112629   5.786   6.383  10.682
15186TIP3    H212630   5.783   6.248  10.742
15187TIP3   OH212631   5.827   6.459  10.088
15187TIP3    H112632   5.843   6.372  10.130
15187TIP3    H212633   5.854   6.443   9.995
15188TIP3   OH212634   7.337   6.666   9.686
15188TIP3    H112635   7.334   6.635   9.779
15188TIP3    H212636   7.246   6.639   9.657
15189TIP3   OH212637   5.708   6.627   9.122
15189TIP3    H112638   5.672   6.535   9.121
15189TIP3    H212639   5.634   6.678   9.159
15190TIP3   OH212640   5.608   6.369   9.090
15190TIP3    H112641   5.695   6.322   9.088
15190TIP3    H212642   5.544   6.295   9.082
15191TIP3   OH212643   5.833   6.217  10.240
15191TIP3    H112644   5.847   6.125  10.212
15191TIP3    H212645   5.761   6.202  10.303
15192TIP3   OH212646   5.779   6.255   9.717
15192TIP3    H112647   5.681   6.270   9.713
15192TIP3    H212648   5.798   6.260   9.622
15193TIP3   OH212649   5.776   6.329   9.461
15193TIP3    H112650   5.868   6.353   9.436
15193TIP3    H212651   5.733   6.416   9.474
15194TIP3   OH212652   7.338   6.162   9.103
15194TIP3    H112653   7.254   6.142   9.056
15194TIP3    H212654   7.387   6.078   9.092
15195TIP3   OH212655   5.563   5.756   8.928
15195TIP3    H112656   5.523   5.682   8.977
15195TIP3    H212657   5.563   5.826   8.997
15196TIP3   OH212658   5.789   5.949  10.245
15196TIP3    H112659   5.758   5.902  10.164
15196TIP3    H212660   5.864   5.892  10.271
15197TIP3   OH212661   7.237   5.994   9.730
15197TIP3    H112662   7.192   5.908   9.739
15197TIP3    H212663   7.167   6.058   9.751
15198TIP3   OH212664   7.386   6.292   9.683
15198TIP3    H112665   7.324   6.266   9.753
15198TIP3    H212666   7.352   6.381   9.663
15199TIP3   OH212667   5.626   5.970   9.074
15199TIP3    H112668   5.695   5.993   9.009
15199TIP3    H212669   5.678   5.942   9.152
15200TIP3   OH212670   7.372   5.949  10.261
15200TIP3    H112671   7.469   5.960  10.267
15200TIP3    H212672   7.346   5.966  10.354
15201TIP3   OH212673   5.894   7.408  10.066
15201TIP3    H112674   5.841   7.402  10.148
15201TIP3    H212675   5.838   7.466  10.012
15202TIP3   OH212676   7.381   5.785   9.454
15202TIP3    H112677   7.450   5.757   9.391
15202TIP3    H212678   7.420   5.861   9.500
15203TIP3   OH212679   7.158   7.102   9.052
15203TIP3    H112680   7.242   7.141   9.081
15203TIP3    H212681   7.185   7.060   8.970
15204TIP3   OH212682   6.879   7.244   9.394
15204TIP3    H112683   6.876   7.339   9.418
15204TIP3    H212684   6.783   7.225   9.395
15205TIP3   OH212685   6.463   7.359   9.125
15205TIP3    H112686   6.451   7.348   9.029
15205TIP3    H212687   6.377   7.395   9.151
15206TIP3   OH212688   6.241   7.543   9.179
15206TIP3    H112689   6.161   7.494   9.203
15206TIP3    H212690   6.214   7.589   9.098
15207TIP3   OH212691   5.719   5.722   9.275
15207TIP3    H112692   5.803   5.754   9.311
15207TIP3    H212693   5.711   5.633   9.317
15208TIP3   OH212694   7.136   7.557   9.418
15208TIP3    H112695   7.217   7.591   9.461
15208TIP3    H212696   7.149   7.591   9.327
15209TIP3   OH212697   6.896   7.498   9.516
15209TIP3    H112698   6.988   7.521   9.487
15209TIP3    H212699   6.880   7.566   9.584
15210TIP3   OH212700   6.424   7.455   9.567
15210TIP3    H112701   6.483   7.500   9.629
15210TIP3    H212702   6.388   7.535   9.520
15211TIP3   OH212703   6.207   7.346   9.439
15211TIP3    H112704   6.280   7.376   9.499
15211TIP3    H212705   6.136   7.406   9.468
15212TIP3   OH212706   5.953   7.502   9.476
15212TIP3    H112707   5.937   7.594   9.508
15212TIP3    H212708   5.927   7.453   9.557
15213TIP3   OH212709   7.157   7.401   9.711
15213TIP3    H112710   7.183   7.332   9.647
15213TIP3    H212711   7.072   7.366   9.745
15214TIP3   OH212712   6.936   7.289   9.841
15214TIP3    H112713   6.950   7.195   9.818
15214TIP3    H212714   6.850   7.304   9.795
15215TIP3   OH212715   6.705   7.287   9.703
15215TIP3    H112716   6.675   7.195   9.715
15215TIP3    H212717   6.705   7.296   9.606
15216TIP3   OH212718   6.417   5.861   9.909
15216TIP3    H112719   6.499   5.822   9.873
15216TIP3    H212720   6.362   5.782   9.913
15217TIP3   OH212721   5.847   5.677   9.862
15217TIP3    H112722   5.782   5.736   9.904
15217TIP3    H212723   5.932   5.714   9.896
15218TIP3   OH212724   5.679   5.819  10.028
15218TIP3    H112725   5.624   5.749  10.070
15218TIP3    H212726   5.611   5.879   9.989
15219TIP3   OH212727   7.129   5.729  10.036
15219TIP3    H112728   7.222   5.721  10.066
15219TIP3    H212729   7.091   5.643  10.064
15220TIP3   OH212730   6.718   5.727  10.093
15220TIP3    H112731   6.624   5.744  10.115
15220TIP3    H212732   6.720   5.741   9.997
15221TIP3   OH212733   6.093   5.748   9.940
15221TIP3    H112734   6.122   5.761  10.030
15221TIP3    H212735   6.146   5.671   9.910
15222TIP3   OH212736   6.005   5.766  10.326
15222TIP3    H112737   6.083   5.820  10.303
15222TIP3    H212738   6.041   5.675  10.307
15223TIP3   OH212739   7.258   7.325  10.386
15223TIP3    H112740   7.315   7.275  10.446
15223TIP3    H212741   7.261   7.413  10.424
15224TIP3   OH212742   6.572   5.919  10.413
15224TIP3    H112743   6.556   5.873  10.328
15224TIP3    H212744   6.567   6.012  10.381
15225TIP3   OH212745   5.736   7.377  10.277
15225TIP3    H112746   5.722   7.293  10.325
15225TIP3    H212747   5.769   7.434  10.348
15226TIP3   OH212748   7.163   5.809   9.129
15226TIP3    H112749   7.215   5.727   9.117
15226TIP3    H212750   7.087   5.793   9.069
15227TIP3   OH212751   6.962   5.751   8.945
15227TIP3    H112752   6.885   5.700   8.979
15227TIP3    H212753   7.007   5.682   8.892
15228TIP3   OH212754   6.109   5.665   8.892
15228TIP3    H112755   6.094   5.625   8.803
15228TIP3    H212756   6.024   5.645   8.936
15229TIP3   OH212757   5.776   7.280   9.077
15229TIP3    H112758   5.851   7.273   9.141
15229TIP3    H212759   5.791   7.369   9.041
15230TIP3   OH212760   4.340   6.668  10.089
15230TIP3    H112761   4.347   6.762  10.067
15230TIP3    H212762   4.410   6.659  10.155
15231TIP3   OH212763   4.439   6.557   9.738
15231TIP3    H112764   4.434   6.516   9.649
15231TIP3    H212765   4.507   6.504   9.784
15232TIP3   OH212766   5.234   6.555   9.600
15232TIP3    H112767   5.245   6.474   9.547
15232TIP3    H212768   5.158   6.594   9.555
15233TIP3   OH212769   4.117   6.862   9.880
15233TIP3    H112770   4.141   6.790   9.819
15233TIP3    H212771   4.085   6.930   9.820
15234TIP3   OH212772   5.123   7.008   9.771
15234TIP3    H112773   5.146   6.913   9.775
15234TIP3    H212774   5.027   7.000   9.783
15235TIP3   OH212775   5.452   6.345  10.206
15235TIP3    H112776   5.495   6.421  10.166
15235TIP3    H212777   5.528   6.293  10.236
15236TIP3   OH212778   5.402   6.590   9.959
15236TIP3    H112779   5.352   6.510   9.930
15236TIP3    H212780   5.332   6.655   9.969
15237TIP3   OH212781   4.365   7.407   9.921
15237TIP3    H112782   4.307   7.335   9.955
15237TIP3    H212783   4.388   7.370   9.835
15238TIP3   OH212784   4.643   6.823   9.638
15238TIP3    H112785   4.617   6.789   9.725
15238TIP3    H212786   4.554   6.845   9.600
15239TIP3   OH212787   3.755   5.979   9.650
15239TIP3    H112788   3.739   6.027   9.566
15239TIP3    H212789   3.676   6.003   9.701
15240TIP3   OH212790   4.267   6.280   9.638
15240TIP3    H112791   4.245   6.185   9.630
15240TIP3    H212792   4.304   6.279   9.728
15241TIP3   OH212793   4.983   6.050   9.955
15241TIP3    H112794   4.962   6.133  10.003
15241TIP3    H212795   5.030   6.001  10.024
15242TIP3   OH212796   4.225   6.098  10.089
15242TIP3    H112797   4.167   6.067  10.015
15242TIP3    H212798   4.170   6.166  10.131
15243TIP3   OH212799   5.302   6.361   9.849
15243TIP3    H112800   5.240   6.314   9.792
15243TIP3    H212801   5.289   6.315   9.934
15244TIP3   OH212802   4.832   6.485   9.906
15244TIP3    H112803   4.746   6.448   9.877
15244TIP3    H212804   4.862   6.411   9.962
15245TIP3   OH212805   3.742   6.111   9.409
15245TIP3    H112806   3.779   6.194   9.450
15245TIP3    H212807   3.720   6.146   9.322
15246TIP3   OH212808   5.056   5.987   9.532
15246TIP3    H112809   5.107   6.030   9.605
15246TIP3    H212810   5.114   6.006   9.456
15247TIP3   OH212811   4.389   6.946  10.186
15247TIP3    H112812   4.406   6.922  10.279
15247TIP3    H212813   4.406   7.042  10.186
15248TIP3   OH212814   4.875   6.729   9.536
15248TIP3    H112815   4.937   6.801   9.509
15248TIP3    H212816   4.798   6.782   9.569
15249TIP3   OH212817   4.037   6.052   9.889
15249TIP3    H112818   4.020   5.987   9.820
15249TIP3    H212819   3.951   6.098   9.892
15250TIP3   OH212820   5.130   6.162   9.739
15250TIP3    H112821   5.064   6.222   9.698
15250TIP3    H212822   5.079   6.127   9.816
15251TIP3   OH212823   5.003   6.955   9.451
15251TIP3    H112824   5.017   7.037   9.502
15251TIP3    H212825   5.087   6.951   9.399
15252TIP3   OH212826   4.013   7.076   9.669
15252TIP3    H112827   4.109   7.094   9.659
15252TIP3    H212828   3.990   7.155   9.720
15253TIP3   OH212829   4.040   5.903   9.559
15253TIP3    H112830   4.118   5.940   9.604
15253TIP3    H212831   3.966   5.937   9.613
15254TIP3   OH212832   4.738   5.713   9.795
15254TIP3    H112833   4.761   5.619   9.794
15254TIP3    H212834   4.823   5.753   9.761
15255TIP3   OH212835   4.173   7.228  10.018
15255TIP3    H112836   4.147   7.158  10.081
15255TIP3    H212837   4.097   7.289  10.024
15256TIP3   OH212838   4.039   7.028  10.184
15256TIP3    H112839   4.076   6.970  10.254
15256TIP3    H212840   4.058   6.971  10.107
15257TIP3   OH212841   3.936   6.899   9.303
15257TIP3    H112842   3.929   6.827   9.370
15257TIP3    H212843   3.909   6.976   9.358
15258TIP3   OH212844   4.467   6.605  10.348
15258TIP3    H112845   4.527   6.595  10.426
15258TIP3    H212846   4.382   6.604  10.395
15259TIP3   OH212847   3.730   6.557   9.499
15259TIP3    H112848   3.802   6.623   9.508
15259TIP3    H212849   3.669   6.591   9.568
15260TIP3   OH212850   4.110   6.599  10.230
15260TIP3    H112851   4.189   6.619  10.173
15260TIP3    H212852   4.048   6.556  10.167
15261TIP3   OH212853   4.111   6.455   9.330
15261TIP3    H112854   4.127   6.542   9.291
15261TIP3    H212855   4.187   6.451   9.391
15262TIP3   OH212856   4.964   6.653  10.055
15262TIP3    H112857   4.971   6.615  10.145
15262TIP3    H212858   4.901   6.592  10.012
15263TIP3   OH212859   4.827   7.009   9.775
15263TIP3    H112860   4.812   6.986   9.867
15263TIP3    H212861   4.765   6.953   9.725
15264TIP3   OH212862   4.953   6.517   9.669
15264TIP3    H112863   4.911   6.521   9.758
15264TIP3    H212864   4.913   6.594   9.623
15265TIP3   OH212865   4.270   7.122   9.625
15265TIP3    H112866   4.313   7.177   9.557
15265TIP3    H212867   4.288   7.032   9.591
15266TIP3   OH212868   4.839   6.980   9.239
15266TIP3    H112869   4.909   7.033   9.195
15266TIP3    H212870   4.883   6.963   9.326
15267TIP3   OH212871   4.224   6.547  10.473
15267TIP3    H112872   4.170   6.571  10.394
15267TIP3    H212873   4.194   6.611  10.539
15268TIP3   OH212874   5.130   6.606   9.333
15268TIP3    H112875   5.113   6.689   9.284
15268TIP3    H212876   5.206   6.576   9.282
15269TIP3   OH212877   4.496   7.241  10.211
15269TIP3    H112878   4.492   7.230  10.115
15269TIP3    H212879   4.529   7.333  10.220
15270TIP3   OH212880   5.013   7.156   9.125
15270TIP3    H112881   5.022   7.195   9.215
15270TIP3    H212882   5.107   7.133   9.107
15271TIP3   OH212883   3.893   5.690  10.445
15271TIP3    H112884   3.987   5.718  10.436
15271TIP3    H212885   3.853   5.762  10.496
15272TIP3   OH212886   5.075   6.549  10.295
15272TIP3    H112887   5.116   6.635  10.283
15272TIP3    H212888   5.151   6.489  10.291
15273TIP3   OH212889   5.436   6.818   9.391
15273TIP3    H112890   5.485   6.799   9.473
15273TIP3    H212891   5.398   6.730   9.374
15274TIP3   OH212892   5.472   7.099   9.729
15274TIP3    H112893   5.394   7.058   9.768
15274TIP3    H212894   5.433   7.141   9.649
15275TIP3   OH212895   3.669   7.158   9.154
15275TIP3    H112896   3.682   7.062   9.163
15275TIP3    H212897   3.755   7.182   9.109
15276TIP3   OH212898   4.581   7.100   9.235
15276TIP3    H112899   4.564   7.173   9.172
15276TIP3    H212900   4.674   7.076   9.220
15277TIP3   OH212901   4.529   7.518  10.321
15277TIP3    H112902   4.485   7.564  10.393
15277TIP3    H212903   4.526   7.590  10.253
15278TIP3   OH212904   5.167   7.379  10.091
15278TIP3    H112905   5.132   7.351  10.003
15278TIP3    H212906   5.249   7.328  10.096
15279TIP3   OH212907   4.253   7.348  10.612
15279TIP3    H112908   4.251   7.438  10.646
15279TIP3    H212909   4.249   7.360  10.514
15280TIP3   OH212910   4.250   7.423  10.339
15280TIP3    H112911   4.334   7.435  10.291
15280TIP3    H212912   4.194   7.379  10.274
15281TIP3   OH212913   3.957   6.292   9.111
15281TIP3    H112914   4.018   6.325   9.179
15281TIP3    H212915   3.948   6.198   9.135
15282TIP3   OH212916   5.219   6.949   9.295
15282TIP3    H112917   5.218   6.919   9.202
15282TIP3    H212918   5.307   6.918   9.326
15283TIP3   OH212919   4.956   5.816   9.702
15283TIP3    H112920   5.043   5.811   9.745
15283TIP3    H212921   4.977   5.873   9.625
15284TIP3   OH212922   4.451   5.760   9.390
15284TIP3    H112923   4.418   5.717   9.308
15284TIP3    H212924   4.548   5.759   9.375
15285TIP3   OH212925   4.189   6.177   9.305
15285TIP3    H112926   4.234   6.147   9.223
15285TIP3    H212927   4.246   6.251   9.332
15286TIP3   OH212928   4.942   6.273   9.582
15286TIP3    H112929   5.020   6.282   9.524
15286TIP3    H212930   4.936   6.365   9.615
15287TIP3   OH212931   4.957   6.284  10.073
15287TIP3    H112932   5.055   6.288  10.084
15287TIP3    H212933   4.931   6.257  10.164
15288TIP3   OH212934   4.407   6.350  10.244
15288TIP3    H112935   4.415   6.446  10.260
15288TIP3    H212936   4.333   6.323  10.302
15289TIP3   OH212937   4.513   6.399   9.049
15289TIP3    H112938   4.545   6.313   9.014
15289TIP3    H212939   4.424   6.400   9.007
15290TIP3   OH212940   4.327   6.338   9.921
15290TIP3    H112941   4.319   6.426   9.961
15290TIP3    H212942   4.327   6.282  10.001
15291TIP3   OH212943   5.208   6.305   9.464
15291TIP3    H112944   5.167   6.352   9.390
15291TIP3    H212945   5.234   6.220   9.422
15292TIP3   OH212946   5.500   6.036   9.962
15292TIP3    H112947   5.422   6.027   9.904
15292TIP3    H212948   5.467   6.066  10.048
15293TIP3   OH212949   4.384   6.474   9.490
15293TIP3    H112950   4.333   6.406   9.540
15293TIP3    H212951   4.441   6.418   9.432
15294TIP3   OH212952   4.667   6.063   9.990
15294TIP3    H112953   4.755   6.041   9.957
15294TIP3    H212954   4.608   6.000   9.941
15295TIP3   OH212955   5.225   6.225  10.103
15295TIP3    H112956   5.300   6.245  10.163
15295TIP3    H212957   5.194   6.137  10.134
15296TIP3   OH212958   4.917   6.209  10.333
15296TIP3    H112959   4.820   6.202  10.326
15296TIP3    H212960   4.929   6.278  10.400
15297TIP3   OH212961   4.263   5.987   9.684
15297TIP3    H112962   4.337   5.955   9.631
15297TIP3    H212963   4.265   5.931   9.764
15298TIP3   OH212964   4.964   6.357  10.573
15298TIP3    H112965   5.003   6.284  10.622
15298TIP3    H212966   4.877   6.361  10.614
15299TIP3   OH212967   3.966   7.541   9.008
15299TIP3    H112968   3.932   7.590   9.085
15299TIP3    H212969   3.890   7.549   8.947
15300TIP3   OH212970   5.175   6.772   9.075
15300TIP3    H112971   5.111   6.803   9.007
15300TIP3    H212972   5.261   6.774   9.026
15301TIP3   OH212973   4.618   6.348   9.837
15301TIP3    H112974   4.534   6.315   9.875
15301TIP3    H212975   4.657   6.266   9.804
15302TIP3   OH212976   5.139   5.967  10.159
15302TIP3    H112977   5.180   5.884  10.124
15302TIP3    H212978   5.079   5.934  10.227
15303TIP3   OH212979   4.699   6.154   9.565
15303TIP3    H112980   4.777   6.208   9.587
15303TIP3    H212981   4.644   6.215   9.515
15304TIP3   OH212982   4.676   6.855  10.377
15304TIP3    H112983   4.722   6.772  10.403
15304TIP3    H212984   4.692   6.857  10.281
15305TIP3   OH212985   3.915   6.748   9.515
15305TIP3    H112986   3.866   6.807   9.577
15305TIP3    H212987   3.999   6.736   9.562
15306TIP3   OH212988   4.370   6.116  10.554
15306TIP3    H112989   4.353   6.141  10.646
15306TIP3    H212990   4.317   6.185  10.511
15307TIP3   OH212991   4.566   6.824   9.268
15307TIP3    H112992   4.579   6.805   9.174
15307TIP3    H212993   4.567   6.922   9.268
15308TIP3   OH212994   4.199   6.286  10.422
15308TIP3    H112995   4.115   6.303  10.376
15308TIP3    H212996   4.207   6.369  10.474
15309TIP3   OH212997   5.118   6.734   9.805
15309TIP3    H112998   5.059   6.717   9.881
15309TIP3    H212999   5.115   6.649   9.757
15310TIP3   OH213000   4.455   6.955  10.473
15310TIP3    H113001   4.517   7.027  10.451
15310TIP3    H213002   4.512   6.878  10.456
15311TIP3   OH213003   5.445   6.560   9.276
15311TIP3    H113004   5.459   6.498   9.202
15311TIP3    H213005   5.502   6.522   9.345
15312TIP3   OH213006   4.758   6.530   9.103
15312TIP3    H113007   4.791   6.471   9.170
15312TIP3    H213008   4.665   6.500   9.095
15313TIP3   OH213009   4.253   7.066   9.255
15313TIP3    H113010   4.328   7.095   9.309
15313TIP3    H213011   4.277   7.108   9.170
15314TIP3   OH213012   3.687   6.884   9.178
15314TIP3    H113013   3.783   6.884   9.201
15314TIP3    H213014   3.644   6.867   9.265
15315TIP3   OH213015   3.891   7.138  10.404
15315TIP3    H113016   3.944   7.126  10.322
15315TIP3    H213017   3.854   7.049  10.409
15316TIP3   OH213018   4.162   6.665   9.693
15316TIP3    H113019   4.253   6.636   9.709
15316TIP3    H213020   4.111   6.595   9.737
15317TIP3   OH213021   4.926   7.098  10.074
15317TIP3    H113022   4.908   7.191  10.102
15317TIP3    H213023   5.021   7.095  10.089
15318TIP3   OH213024   4.773   6.866  10.116
15318TIP3    H113025   4.823   6.950  10.109
15318TIP3    H213026   4.835   6.799  10.084
15319TIP3   OH213027   4.726   7.272   9.428
15319TIP3    H113028   4.656   7.328   9.465
15319TIP3    H213029   4.676   7.226   9.359
15320TIP3   OH213030   4.902   7.349  10.182
15320TIP3    H113031   4.996   7.368  10.162
15320TIP3    H213032   4.862   7.436  10.161
15321TIP3   OH213033   4.402   6.855   9.519
15321TIP3    H113034   4.433   6.822   9.431
15321TIP3    H213035   4.353   6.779   9.554
15322TIP3   OH213036   4.069   7.337   9.271
15322TIP3    H113037   4.156   7.298   9.294
15322TIP3    H213038   4.054   7.397   9.348
15323TIP3   OH213039   5.244   6.065   9.325
15323TIP3    H113040   5.318   6.101   9.271
15323TIP3    H213041   5.240   5.974   9.292
15324TIP3   OH213042   4.076   6.833  10.360
15324TIP3    H113043   4.101   6.749  10.315
15324TIP3    H213044   3.982   6.819  10.377
15325TIP3   OH213045   5.318   7.215   9.508
15325TIP3    H113046   5.242   7.159   9.485
15325TIP3    H213047   5.325   7.272   9.430
15326TIP3   OH213048   4.872   7.060  10.502
15326TIP3    H113049   4.824   6.990  10.455
15326TIP3    H213050   4.879   7.131  10.437
15327TIP3   OH213051   4.404   6.032   9.412
15327TIP3    H113052   4.310   6.042   9.390
15327TIP3    H213053   4.423   5.939   9.387
15328TIP3   OH213054   4.315   5.953  10.286
15328TIP3    H113055   4.305   6.021  10.355
15328TIP3    H213056   4.277   5.999  10.207
15329TIP3   OH213057   4.514   7.238  10.487
15329TIP3    H113058   4.506   7.243  10.389
15329TIP3    H213059   4.422   7.225  10.514
15330TIP3   OH213060   4.628   6.150  10.252
15330TIP3    H113061   4.556   6.217  10.246
15330TIP3    H213062   4.646   6.127  10.158
15331TIP3   OH213063   4.519   6.298   9.320
15331TIP3    H113064   4.523   6.312   9.222
15331TIP3    H213065   4.486   6.207   9.330
15332TIP3   OH213066   4.551   5.852  10.192
15332TIP3    H113067   4.573   5.906  10.114
15332TIP3    H213068   4.467   5.895  10.222
15333TIP3   OH213069   4.966   5.960  10.440
15333TIP3    H113070   4.970   6.052  10.410
15333TIP3    H213071   4.871   5.940  10.429
15334TIP3   OH213072   3.949   6.048   9.238
15334TIP3    H113073   4.042   6.066   9.260
15334TIP3    H213074   3.908   6.045   9.326
15335TIP3   OH213075   4.055   6.424   9.858
15335TIP3    H113076   4.130   6.363   9.847
15335TIP3    H213077   3.984   6.379   9.807
15336TIP3   OH213078   3.972   7.355   9.691
15336TIP3    H113079   3.967   7.420   9.764
15336TIP3    H213080   3.876   7.346   9.673
15337TIP3   OH213081   5.211   5.768   9.769
15337TIP3    H113082   5.218   5.755   9.866
15337TIP3    H213083   5.240   5.681   9.737
15338TIP3   OH213084   5.349   7.163  10.154
15338TIP3    H113085   5.429   7.205  10.119
15338TIP3    H213086   5.341   7.207  10.240
15339TIP3   OH213087   5.417   7.456   9.040
15339TIP3    H113088   5.350   7.445   8.968
15339TIP3    H213089   5.447   7.363   9.046
15340TIP3   OH213090   4.919   7.278   8.860
15340TIP3    H113091   4.827   7.247   8.861
15340TIP3    H213092   4.956   7.235   8.939
15341TIP3   OH213093   4.309   7.184   9.024
15341TIP3    H113094   4.335   7.095   8.991
15341TIP3    H213095   4.220   7.190   8.981
15342TIP3   OH213096   5.431   6.792   8.961
15342TIP3    H113097   5.475   6.706   8.959
15342TIP3    H213098   5.476   6.835   9.038
15343TIP3   OH213099   4.759   6.789   9.054
15343TIP3    H113100   4.778   6.850   9.129
15343TIP3    H213101   4.762   6.699   9.095
15344TIP3   OH213102   4.180   6.787   9.258
15344TIP3    H113103   4.096   6.839   9.261
15344TIP3    H213104   4.243   6.861   9.261
15345TIP3   OH213105   5.294   6.500   9.005
15345TIP3    H113106   5.204   6.466   9.019
15345TIP3    H213107   5.279   6.565   8.934
15346TIP3   OH213108   4.830   6.653  10.466
15346TIP3    H113109   4.891   6.586  10.433
15346TIP3    H213110   4.759   6.600  10.509
15347TIP3   OH213111   4.950   6.412   9.328
15347TIP3    H113112   5.004   6.494   9.327
15347TIP3    H213113   4.873   6.445   9.377
15348TIP3   OH213114   4.390   6.695   8.931
15348TIP3    H113115   4.332   6.650   8.994
15348TIP3    H213116   4.421   6.622   8.875
15349TIP3   OH213117   4.822   6.189   9.201
15349TIP3    H113118   4.825   6.119   9.270
15349TIP3    H213119   4.842   6.268   9.255
15350TIP3   OH213120   4.822   5.993   9.399
15350TIP3    H113121   4.770   6.031   9.474
15350TIP3    H213122   4.912   6.007   9.434
15351TIP3   OH213123   4.706   6.554   9.417
15351TIP3    H113124   4.623   6.602   9.435
15351TIP3    H213125   4.769   6.626   9.438
15352TIP3   OH213126   4.295   6.334   8.885
15352TIP3    H113127   4.284   6.249   8.835
15352TIP3    H213128   4.202   6.355   8.902
15353TIP3   OH213129   4.112   6.638   9.042
15353TIP3    H113130   4.147   6.685   9.121
15353TIP3    H213131   4.024   6.610   9.075
15354TIP3   OH213132   5.019   6.252   8.989
15354TIP3    H113133   5.096   6.203   9.026
15354TIP3    H213134   4.962   6.261   9.068
15355TIP3   OH213135   4.738   5.739   9.400
15355TIP3    H113136   4.773   5.832   9.392
15355TIP3    H213137   4.819   5.692   9.427
15356TIP3   OH213138   4.635   6.151   8.977
15356TIP3    H113139   4.705   6.140   8.910
15356TIP3    H213140   4.690   6.146   9.058
15357TIP3   OH213141   4.367   6.104   9.099
15357TIP3    H113142   4.462   6.100   9.076
15357TIP3    H213143   4.335   6.045   9.028
15358TIP3   OH213144   4.282   5.927   8.921
15358TIP3    H113145   4.228   5.846   8.904
15358TIP3    H213146   4.262   5.986   8.845
15359TIP3   OH213147   5.229   6.074   9.007
15359TIP3    H113148   5.240   5.987   9.049
15359TIP3    H213149   5.244   6.051   8.911
15360TIP3   OH213150   4.786   5.691   9.144
15360TIP3    H113151   4.702   5.646   9.123
15360TIP3    H213152   4.773   5.700   9.241
15361TIP3   OH213153   4.763   5.792   8.853
15361TIP3    H113154   4.782   5.758   8.943
15361TIP3    H213155   4.769   5.888   8.869
15362TIP3   OH213156   5.547   7.523  10.148
15362TIP3    H113157   5.617   7.466  10.189
15362TIP3    H213158   5.503   7.459  10.089
15363TIP3   OH213159   5.451   7.355   9.944
15363TIP3    H113160   5.526   7.316   9.893
15363TIP3    H213161   5.385   7.363   9.872
15364TIP3   OH213162   3.701   7.407   9.676
15364TIP3    H113163   3.679   7.413   9.582
15364TIP3    H213164   3.634   7.464   9.715
15365TIP3   OH213165   3.741   7.351   9.382
15365TIP3    H113166   3.775   7.274   9.431
15365TIP3    H213167   3.719   7.307   9.298
15366TIP3   OH213168   3.859   6.934   8.881
15366TIP3    H113169   3.947   6.948   8.840
15366TIP3    H213170   3.821   7.025   8.870
15367TIP3   OH213171   3.762   6.825  10.357
15367TIP3    H113172   3.678   6.850  10.317
15367TIP3    H213173   3.780   6.746  10.302
15368TIP3   OH213174   3.728   6.628  10.143
15368TIP3    H113175   3.797   6.561  10.126
15368TIP3    H213176   3.666   6.609  10.070
15369TIP3   OH213177   3.754   6.861   9.690
15369TIP3    H113178   3.685   6.792   9.703
15369TIP3    H213179   3.715   6.937   9.736
15370TIP3   OH213180   3.881   7.134   9.443
15370TIP3    H113181   3.955   7.176   9.396
15370TIP3    H213182   3.925   7.104   9.527
15371TIP3   OH213183   3.916   6.446  10.094
15371TIP3    H113184   3.933   6.355  10.125
15371TIP3    H213185   3.955   6.445  10.003
15372TIP3   OH213186   5.450   6.662   9.696
15372TIP3    H113187   5.447   6.633   9.789
15372TIP3    H213188   5.358   6.636   9.669
15373TIP3   OH213189   3.827   6.624   9.124
15373TIP3    H113190   3.786   6.534   9.122
15373TIP3    H213191   3.755   6.676   9.165
15374TIP3   OH213192   3.718   6.381   9.086
15374TIP3    H113193   3.810   6.349   9.100
15374TIP3    H213194   3.667   6.296   9.082
15375TIP3   OH213195   3.927   6.071  10.733
15375TIP3    H113196   3.886   6.152  10.696
15375TIP3    H213197   4.019   6.098  10.740
15376TIP3   OH213198   3.979   6.214  10.246
15376TIP3    H113199   3.976   6.123  10.208
15376TIP3    H213200   3.950   6.194  10.336
15377TIP3   OH213201   3.881   6.276   9.709
15377TIP3    H113202   3.783   6.284   9.708
15377TIP3    H213203   3.899   6.278   9.613
15378TIP3   OH213204   3.882   6.330   9.443
15378TIP3    H113205   3.970   6.354   9.407
15378TIP3    H213206   3.842   6.419   9.461
15379TIP3   OH213207   5.449   6.162   9.116
15379TIP3    H113208   5.368   6.144   9.063
15379TIP3    H213209   5.502   6.081   9.099
15380TIP3   OH213210   3.682   5.758   8.923
15380TIP3    H113211   3.638   5.685   8.970
15380TIP3    H213212   3.681   5.828   8.992
15381TIP3   OH213213   3.960   5.941  10.200
15381TIP3    H113214   3.903   5.904  10.130
15381TIP3    H213215   3.969   5.867  10.262
15382TIP3   OH213216   5.354   5.993   9.729
15382TIP3    H113217   5.302   5.910   9.736
15382TIP3    H213218   5.284   6.060   9.735
15383TIP3   OH213219   5.514   6.304   9.693
15383TIP3    H113220   5.448   6.275   9.760
15383TIP3    H213221   5.467   6.381   9.657
15384TIP3   OH213222   3.739   5.968   9.069
15384TIP3    H113223   3.810   5.992   9.006
15384TIP3    H213224   3.789   5.938   9.148
15385TIP3   OH213225   5.507   5.992  10.241
15385TIP3    H113226   5.603   6.004  10.246
15385TIP3    H213227   5.493   5.918  10.300
15386TIP3   OH213228   4.000   7.418  10.072
15386TIP3    H113229   3.936   7.401  10.145
15386TIP3    H213230   3.950   7.477  10.012
15387TIP3   OH213231   5.499   5.781   9.457
15387TIP3    H113232   5.563   5.755   9.389
15387TIP3    H213233   5.540   5.856   9.503
15388TIP3   OH213234   5.273   7.099   9.053
15388TIP3    H113235   5.356   7.141   9.080
15388TIP3    H213236   5.295   7.061   8.968
15389TIP3   OH213237   4.988   7.244   9.385
15389TIP3    H113238   4.997   7.335   9.419
15389TIP3    H213239   4.890   7.236   9.389
15390TIP3   OH213240   4.576   7.366   9.131
15390TIP3    H113241   4.560   7.360   9.035
15390TIP3    H213242   4.489   7.398   9.162
15391TIP3   OH213243   4.351   7.531   9.172
15391TIP3    H113244   4.270   7.482   9.193
15391TIP3    H213245   4.326   7.582   9.092
15392TIP3   OH213246   3.834   5.725   9.265
15392TIP3    H113247   3.913   5.758   9.310
15392TIP3    H213248   3.824   5.636   9.305
15393TIP3   OH213249   5.252   7.571   9.416
15393TIP3    H113250   5.332   7.612   9.453
15393TIP3    H213251   5.261   7.596   9.322
15394TIP3   OH213252   5.024   7.485   9.519
15394TIP3    H113253   5.114   7.513   9.492
15394TIP3    H213254   5.004   7.552   9.588
15395TIP3   OH213255   4.538   7.466   9.598
15395TIP3    H113256   4.618   7.514   9.624
15395TIP3    H213257   4.504   7.527   9.528
15396TIP3   OH213258   4.320   7.336   9.448
15396TIP3    H113259   4.376   7.378   9.517
15396TIP3    H213260   4.238   7.386   9.463
15397TIP3   OH213261   4.065   7.501   9.483
15397TIP3    H113262   4.048   7.593   9.511
15397TIP3    H213263   4.037   7.453   9.564
15398TIP3   OH213264   5.287   7.393   9.722
15398TIP3    H113265   5.304   7.328   9.650
15398TIP3    H213266   5.197   7.367   9.752
15399TIP3   OH213267   5.066   7.313   9.847
15399TIP3    H113268   5.082   7.217   9.839
15399TIP3    H213269   4.978   7.315   9.801
15400TIP3   OH213270   4.834   7.291   9.707
15400TIP3    H113271   4.805   7.199   9.723
15400TIP3    H213272   4.826   7.297   9.611
15401TIP3   OH213273   4.536   5.853   9.893
15401TIP3    H113274   4.612   5.817   9.842
15401TIP3    H213275   4.484   5.773   9.905
15402TIP3   OH213276   3.955   5.698   9.850
15402TIP3    H113277   3.885   5.750   9.897
15402TIP3    H213278   4.037   5.734   9.890
15403TIP3   OH213279   3.793   5.827  10.020
15403TIP3    H113280   3.727   5.765  10.058
15403TIP3    H213281   3.735   5.904  10.000
15404TIP3   OH213282   5.258   5.753  10.044
15404TIP3    H113283   5.348   5.736  10.074
15404TIP3    H213284   5.215   5.666  10.063
15405TIP3   OH213285   4.808   5.691  10.066
15405TIP3    H113286   4.748   5.740  10.124
15405TIP3    H213287   4.774   5.710   9.978
15406TIP3   OH213288   4.212   5.752   9.940
15406TIP3    H113289   4.235   5.763  10.033
15406TIP3    H213290   4.263   5.672   9.916
15407TIP3   OH213291   4.151   5.757  10.399
15407TIP3    H113292   4.217   5.817  10.357
15407TIP3    H213293   4.169   5.673  10.350
15408TIP3   OH213294   5.378   7.354  10.365
15408TIP3    H113295   5.471   7.350  10.397
15408TIP3    H213296   5.353   7.443  10.396
15409TIP3   OH213297   4.674   5.921  10.446
15409TIP3    H113298   4.647   5.884  10.360
15409TIP3    H213299   4.627   6.006  10.444
15410TIP3   OH213300   3.845   7.372  10.278
15410TIP3    H113301   3.852   7.299  10.344
15410TIP3    H213302   3.859   7.451  10.337
15411TIP3   OH213303   5.282   5.809   9.135
15411TIP3    H113304   5.333   5.726   9.123
15411TIP3    H213305   5.205   5.794   9.075
15412TIP3   OH213306   5.081   5.751   8.943
15412TIP3    H113307   5.003   5.698   8.967
15412TIP3    H213308   5.134   5.687   8.892
15413TIP3   OH213309   5.153   7.398  10.659
15413TIP3    H113310   5.231   7.454  10.648
15413TIP3    H213311   5.190   7.310  10.670
15414TIP3   OH213312   4.228   5.665   8.898
15414TIP3    H113313   4.213   5.623   8.810
15414TIP3    H213314   4.143   5.646   8.943
15415TIP3   OH213315   3.892   7.280   9.072
15415TIP3    H113316   3.964   7.269   9.137
15415TIP3    H213317   3.912   7.370   9.040
15416TIP3   OH213318   2.429   6.678  10.085
15416TIP3    H113319   2.422   6.773  10.062
15416TIP3    H213320   2.506   6.683  10.145
15417TIP3   OH213321   2.552   6.552   9.737
15417TIP3    H113322   2.539   6.515   9.647
15417TIP3    H213323   2.611   6.483   9.775
15418TIP3   OH213324   3.346   6.546   9.601
15418TIP3    H113325   3.363   6.467   9.547
15418TIP3    H213326   3.269   6.582   9.553
15419TIP3   OH213327   2.227   6.863   9.897
15419TIP3    H113328   2.236   6.793   9.830
15419TIP3    H213329   2.225   6.943   9.844
15420TIP3   OH213330   3.246   7.011   9.757
15420TIP3    H113331   3.272   6.918   9.773
15420TIP3    H213332   3.150   6.999   9.771
15421TIP3   OH213333   3.566   6.350  10.205
15421TIP3    H113334   3.552   6.421  10.269
15421TIP3    H213335   3.662   6.340  10.209
15422TIP3   OH213336   3.530   6.584   9.940
15422TIP3    H113337   3.487   6.497   9.923
15422TIP3    H213338   3.455   6.641   9.963
15423TIP3   OH213339   2.467   7.412   9.906
15423TIP3    H113340   2.401   7.353   9.950
15423TIP3    H213341   2.496   7.352   9.836
15424TIP3   OH213342   2.729   6.792   9.649
15424TIP3    H113343   2.693   6.752   9.730
15424TIP3    H213344   2.651   6.838   9.613
15425TIP3   OH213345   1.878   5.970   9.658
15425TIP3    H113346   1.861   6.031   9.584
15425TIP3    H213347   1.796   5.979   9.710
15426TIP3   OH213348   2.386   6.279   9.642
15426TIP3    H113349   2.360   6.186   9.626
15426TIP3    H213350   2.411   6.272   9.737
15427TIP3   OH213351   3.101   6.060   9.958
15427TIP3    H113352   3.085   6.142  10.009
15427TIP3    H213353   3.151   6.009  10.025
15428TIP3   OH213354   2.327   6.083  10.105
15428TIP3    H113355   2.288   6.061  10.018
15428TIP3    H213356   2.290   6.171  10.122
15429TIP3   OH213357   3.431   6.338   9.871
15429TIP3    H113358   3.365   6.304   9.808
15429TIP3    H213359   3.402   6.295   9.954
15430TIP3   OH213360   2.952   6.473   9.919
15430TIP3    H113361   2.877   6.429   9.878
15430TIP3    H213362   2.988   6.402   9.977
15431TIP3   OH213363   1.858   6.117   9.411
15431TIP3    H113364   1.895   6.199   9.449
15431TIP3    H213365   1.836   6.147   9.321
15432TIP3   OH213366   3.197   5.970   9.526
15432TIP3    H113367   3.237   6.017   9.602
15432TIP3    H213368   3.256   5.998   9.453
15433TIP3   OH213369   2.504   6.942  10.183
15433TIP3    H113370   2.513   6.944  10.280
15433TIP3    H213371   2.535   7.033  10.163
15434TIP3   OH213372   2.978   6.742   9.560
15434TIP3    H113373   3.032   6.815   9.524
15434TIP3    H213374   2.895   6.788   9.588
15435TIP3   OH213375   2.135   6.073   9.874
15435TIP3    H113376   2.135   5.978   9.855
15435TIP3    H213377   2.058   6.104   9.822
15436TIP3   OH213378   3.243   6.168   9.741
15436TIP3    H113379   3.180   6.228   9.694
15436TIP3    H213380   3.188   6.135   9.815
15437TIP3   OH213381   3.107   6.956   9.453
15437TIP3    H113382   3.134   7.021   9.519
15437TIP3    H213383   3.192   6.947   9.401
15438TIP3   OH213384   3.485   6.942  10.414
15438TIP3    H113385   3.572   6.946  10.459
15438TIP3    H213386   3.495   6.999  10.337
15439TIP3   OH213387   2.147   7.067   9.681
15439TIP3    H113388   2.237   7.093   9.654
15439TIP3    H213389   2.128   7.145   9.736
15440TIP3   OH213390   2.153   5.897   9.561
15440TIP3    H113391   2.231   5.917   9.616
15440TIP3    H213392   2.079   5.930   9.614
15441TIP3   OH213393   2.868   5.702   9.786
15441TIP3    H113394   2.910   5.614   9.778
15441TIP3    H213395   2.946   5.758   9.762
15442TIP3   OH213396   2.287   7.224   9.986
15442TIP3    H113397   2.282   7.153  10.054
15442TIP3    H213398   2.226   7.290  10.029
15443TIP3   OH213399   2.194   7.037  10.167
15443TIP3    H113400   2.213   6.982  10.246
15443TIP3    H213401   2.214   6.974  10.096
15444TIP3   OH213402   2.049   6.896   9.301
15444TIP3    H113403   2.036   6.823   9.366
15444TIP3    H213404   2.025   6.973   9.357
15445TIP3   OH213405   2.594   6.623  10.330
15445TIP3    H113406   2.648   6.705  10.339
15445TIP3    H213407   2.538   6.628  10.408
15446TIP3   OH213408   2.539   6.404  10.610
15446TIP3    H113409   2.473   6.470  10.580
15446TIP3    H213410   2.495   6.319  10.592
15447TIP3   OH213411   1.843   6.548   9.504
15447TIP3    H113412   1.903   6.624   9.506
15447TIP3    H213413   1.781   6.575   9.575
15448TIP3   OH213414   2.199   6.594  10.219
15448TIP3    H113415   2.281   6.629  10.177
15448TIP3    H213416   2.148   6.566  10.141
15449TIP3   OH213417   2.251   6.450   9.326
15449TIP3    H113418   2.245   6.539   9.290
15449TIP3    H213419   2.325   6.462   9.389
15450TIP3   OH213420   3.089   6.671  10.032
15450TIP3    H113421   3.124   6.646  10.120
15450TIP3    H213422   3.025   6.598  10.017
15451TIP3   OH213423   2.951   6.998   9.788
15451TIP3    H113424   2.951   6.995   9.885
15451TIP3    H213425   2.870   6.951   9.764
15452TIP3   OH213426   3.066   6.526   9.670
15452TIP3    H113427   3.039   6.537   9.764
15452TIP3    H213428   3.025   6.606   9.629
15453TIP3   OH213429   2.398   7.118   9.605
15453TIP3    H113430   2.424   7.170   9.528
15453TIP3    H213431   2.417   7.027   9.574
15454TIP3   OH213432   2.953   6.993   9.234
15454TIP3    H113433   3.021   7.045   9.185
15454TIP3    H213434   2.998   6.983   9.321
15455TIP3   OH213435   2.342   6.560  10.480
15455TIP3    H113436   2.285   6.609  10.417
15455TIP3    H213437   2.340   6.618  10.560
15456TIP3   OH213438   3.248   6.613   9.335
15456TIP3    H113439   3.229   6.693   9.283
15456TIP3    H213440   3.314   6.572   9.276
15457TIP3   OH213441   2.596   7.217  10.179
15457TIP3    H113442   2.616   7.248  10.090
15457TIP3    H213443   2.632   7.288  10.236
15458TIP3   OH213444   3.129   7.165   9.128
15458TIP3    H113445   3.141   7.200   9.219
15458TIP3    H213446   3.221   7.138   9.108
15459TIP3   OH213447   1.969   5.684  10.436
15459TIP3    H113448   2.060   5.692  10.402
15459TIP3    H213449   1.977   5.739  10.515
15460TIP3   OH213450   3.189   6.575  10.262
15460TIP3    H113451   3.244   6.633  10.318
15460TIP3    H213452   3.206   6.489  10.304
15461TIP3   OH213453   1.815   7.176  10.610
15461TIP3    H113454   1.796   7.256  10.664
15461TIP3    H213455   1.766   7.108  10.658
15462TIP3   OH213456   3.544   6.824   9.394
15462TIP3    H113457   3.580   6.810   9.482
15462TIP3    H213458   3.512   6.733   9.374
15463TIP3   OH213459   3.572   7.082   9.744
15463TIP3    H113460   3.475   7.074   9.752
15463TIP3    H213461   3.578   7.151   9.677
15464TIP3   OH213462   1.786   7.161   9.143
15464TIP3    H113463   1.796   7.065   9.150
15464TIP3    H213464   1.871   7.185   9.096
15465TIP3   OH213465   2.696   7.105   9.235
15465TIP3    H113466   2.685   7.178   9.170
15465TIP3    H213467   2.790   7.076   9.225
15466TIP3   OH213468   2.643   7.490  10.246
15466TIP3    H113469   2.622   7.486  10.340
15466TIP3    H213470   2.645   7.587  10.228
15467TIP3   OH213471   3.281   7.393  10.076
15467TIP3    H113472   3.232   7.373   9.992
15467TIP3    H213473   3.346   7.321  10.074
15468TIP3   OH213474   2.374   7.415  10.311
15468TIP3    H113475   2.452   7.430  10.255
15468TIP3    H213476   2.353   7.323  10.291
15469TIP3   OH213477   2.081   6.284   9.107
15469TIP3    H113478   2.127   6.324   9.182
15469TIP3    H213479   2.075   6.190   9.135
15470TIP3   OH213480   3.327   6.957   9.299
15470TIP3    H113481   3.326   6.924   9.207
15470TIP3    H213482   3.414   6.923   9.330
15471TIP3   OH213483   3.078   5.824   9.704
15471TIP3    H113484   3.169   5.812   9.740
15471TIP3    H213485   3.099   5.879   9.626
15472TIP3   OH213486   2.569   5.763   9.397
15472TIP3    H113487   2.525   5.725   9.318
15472TIP3    H213488   2.663   5.763   9.369
15473TIP3   OH213489   2.306   6.185   9.309
15473TIP3    H113490   2.360   6.169   9.227
15473TIP3    H213491   2.295   6.282   9.307
15474TIP3   OH213492   3.059   6.276   9.581
15474TIP3    H113493   3.132   6.291   9.518
15474TIP3    H213494   3.048   6.368   9.615
15475TIP3   OH213495   3.075   6.290  10.080
15475TIP3    H113496   3.169   6.293  10.105
15475TIP3    H213497   3.029   6.279  10.168
15476TIP3   OH213498   2.526   6.397  10.193
15476TIP3    H113499   2.556   6.482  10.233
15476TIP3    H213500   2.460   6.370  10.260
15477TIP3   OH213501   2.612   6.403   9.061
15477TIP3    H113502   2.650   6.320   9.027
15477TIP3    H213503   2.526   6.401   9.015
15478TIP3   OH213504   2.403   6.349   9.921
15478TIP3    H113505   2.427   6.437   9.958
15478TIP3    H213506   2.429   6.292   9.994
15479TIP3   OH213507   3.317   6.306   9.453
15479TIP3    H113508   3.274   6.353   9.380
15479TIP3    H213509   3.341   6.220   9.410
15480TIP3   OH213510   3.615   6.038   9.988
15480TIP3    H113511   3.554   6.033   9.912
15480TIP3    H213512   3.571   6.101  10.046
15481TIP3   OH213513   3.525   6.149  10.442
15481TIP3    H113514   3.543   6.093  10.519
15481TIP3    H213515   3.549   6.237  10.475
15482TIP3   OH213516   2.497   6.466   9.488
15482TIP3    H113517   2.447   6.394   9.536
15482TIP3    H213518   2.556   6.412   9.429
15483TIP3   OH213519   2.822   6.070   9.974
15483TIP3    H113520   2.918   6.068   9.951
15483TIP3    H213521   2.782   6.013   9.906
15484TIP3   OH213522   3.351   6.222  10.102
15484TIP3    H113523   3.413   6.256  10.170
15484TIP3    H213524   3.325   6.133  10.137
15485TIP3   OH213525   2.956   6.272  10.325
15485TIP3    H113526   2.888   6.226  10.375
15485TIP3    H213527   3.016   6.301  10.396
15486TIP3   OH213528   2.375   5.981   9.684
15486TIP3    H113529   2.454   5.969   9.628
15486TIP3    H213530   2.393   5.920   9.757
15487TIP3   OH213531   3.106   6.397  10.545
15487TIP3    H113532   3.176   6.332  10.569
15487TIP3    H213533   3.040   6.376  10.614
15488TIP3   OH213534   2.072   7.558   9.013
15488TIP3    H113535   2.049   7.602   9.096
15488TIP3    H213536   1.989   7.575   8.964
15489TIP3   OH213537   3.286   6.780   9.071
15489TIP3    H113538   3.233   6.785   8.989
15489TIP3    H213539   3.377   6.778   9.033
15490TIP3   OH213540   2.681   6.335   9.810
15490TIP3    H113541   2.623   6.302   9.880
15490TIP3    H213542   2.708   6.254   9.764
15491TIP3   OH213543   3.257   5.974  10.153
15491TIP3    H113544   3.304   5.893  10.120
15491TIP3    H213545   3.239   5.948  10.245
15492TIP3   OH213546   2.815   6.149   9.565
15492TIP3    H113547   2.893   6.208   9.574
15492TIP3    H213548   2.751   6.202   9.516
15493TIP3   OH213549   2.761   6.838  10.356
15493TIP3    H113550   2.820   6.781  10.410
15493TIP3    H213551   2.811   6.848  10.271
15494TIP3   OH213552   2.030   6.742   9.509
15494TIP3    H113553   1.983   6.794   9.579
15494TIP3    H213554   2.120   6.743   9.547
15495TIP3   OH213555   2.409   6.157  10.613
15495TIP3    H113556   2.426   6.061  10.601
15495TIP3    H213557   2.389   6.187  10.522
15496TIP3   OH213558   2.650   6.835   9.267
15496TIP3    H113559   2.682   6.807   9.181
15496TIP3    H213560   2.661   6.932   9.258
15497TIP3   OH213561   2.349   6.308  10.380
15497TIP3    H113562   2.263   6.277  10.347
15497TIP3    H213563   2.324   6.394  10.418
15498TIP3   OH213564   3.243   6.742   9.809
15498TIP3    H113565   3.178   6.721   9.880
15498TIP3    H213566   3.246   6.660   9.756
15499TIP3   OH213567   2.567   6.985  10.451
15499TIP3    H113568   2.611   7.072  10.461
15499TIP3    H213569   2.641   6.923  10.441
15500TIP3   OH213570   3.565   6.570   9.273
15500TIP3    H113571   3.572   6.505   9.200
15500TIP3    H213572   3.616   6.527   9.344
15501TIP3   OH213573   2.862   6.528   9.101
15501TIP3    H113574   2.891   6.458   9.160
15501TIP3    H213575   2.767   6.510   9.095
15502TIP3   OH213576   2.368   7.069   9.246
15502TIP3    H113577   2.446   7.089   9.299
15502TIP3    H213578   2.394   7.111   9.161
15503TIP3   OH213579   1.853   6.272  10.422
15503TIP3    H113580   1.901   6.264  10.507
15503TIP3    H213581   1.818   6.364  10.429
15504TIP3   OH213582   1.800   6.889   9.179
15504TIP3    H113583   1.890   6.884   9.217
15504TIP3    H213584   1.745   6.869   9.257
15505TIP3   OH213585   1.997   7.172  10.408
15505TIP3    H113586   2.090   7.152  10.421
15505TIP3    H213587   1.961   7.172  10.498
15506TIP3   OH213588   2.277   6.658   9.703
15506TIP3    H113589   2.367   6.626   9.720
15506TIP3    H213590   2.224   6.582   9.734
15507TIP3   OH213591   3.027   7.085  10.054
15507TIP3    H113592   2.968   7.158  10.082
15507TIP3    H213593   3.108   7.105  10.105
15508TIP3   OH213594   3.453   6.601  10.694
15508TIP3    H113595   3.398   6.626  10.619
15508TIP3    H213596   3.521   6.546  10.651
15509TIP3   OH213597   2.896   6.857  10.124
15509TIP3    H113598   2.949   6.935  10.095
15509TIP3    H213599   2.943   6.782  10.082
15510TIP3   OH213600   2.832   7.276   9.427
15510TIP3    H113601   2.766   7.334   9.467
15510TIP3    H213602   2.779   7.228   9.361
15511TIP3   OH213603   2.994   7.348  10.158
15511TIP3    H113604   3.088   7.363  10.142
15511TIP3    H213605   2.959   7.436  10.135
15512TIP3   OH213606   2.508   6.865   9.519
15512TIP3    H113607   2.547   6.836   9.433
15512TIP3    H213608   2.475   6.780   9.555
15513TIP3   OH213609   2.187   7.312   9.269
15513TIP3    H113610   2.277   7.277   9.283
15513TIP3    H213611   2.182   7.378   9.342
15514TIP3   OH213612   3.358   6.066   9.321
15514TIP3    H113613   3.431   6.105   9.269
15514TIP3    H213614   3.362   5.975   9.288
15515TIP3   OH213615   2.162   6.816  10.360
15515TIP3    H113616   2.163   6.732  10.310
15515TIP3    H213617   2.068   6.827  10.381
15516TIP3   OH213618   3.425   7.223   9.506
15516TIP3    H113619   3.354   7.162   9.482
15516TIP3    H213620   3.435   7.274   9.424
15517TIP3   OH213621   3.302   6.737  10.458
15517TIP3    H113622   3.374   6.800  10.435
15517TIP3    H213623   3.232   6.798  10.483
15518TIP3   OH213624   2.535   6.049   9.420
15518TIP3    H113625   2.446   6.070   9.386
15518TIP3    H213626   2.545   5.954   9.404
15519TIP3   OH213627   2.418   5.972  10.381
15519TIP3    H113628   2.325   5.959  10.406
15519TIP3    H213629   2.407   6.018  10.296
15520TIP3   OH213630   2.648   7.269  10.483
15520TIP3    H113631   2.720   7.317  10.524
15520TIP3    H213632   2.586   7.267  10.561
15521TIP3   OH213633   2.682   6.147  10.202
15521TIP3    H113634   2.655   6.241  10.198
15521TIP3    H213635   2.747   6.138  10.130
15522TIP3   OH213636   2.637   6.303   9.322
15522TIP3    H113637   2.632   6.324   9.226
15522TIP3    H213638   2.601   6.213   9.333
15523TIP3   OH213639   2.642   5.839  10.145
15523TIP3    H113640   2.706   5.903  10.112
15523TIP3    H213641   2.573   5.900  10.175
15524TIP3   OH213642   2.070   6.052   9.246
15524TIP3    H113643   2.165   6.070   9.265
15524TIP3    H213644   2.029   6.062   9.334
15525TIP3   OH213645   2.155   6.435   9.832
15525TIP3    H113646   2.235   6.379   9.834
15525TIP3    H213647   2.092   6.377   9.784
15526TIP3   OH213648   2.093   7.353   9.667
15526TIP3    H113649   2.097   7.409   9.747
15526TIP3    H213650   1.997   7.346   9.657
15527TIP3   OH213651   3.329   5.763   9.767
15527TIP3    H113652   3.329   5.747   9.864
15527TIP3    H213653   3.361   5.677   9.733
15528TIP3   OH213654   3.451   7.195  10.171
15528TIP3    H113655   3.525   7.245  10.135
15528TIP3    H213656   3.439   7.237  10.258
15529TIP3   OH213657   3.534   7.453   9.040
15529TIP3    H113658   3.465   7.437   8.971
15529TIP3    H213659   3.567   7.362   9.051
15530TIP3   OH213660   3.032   7.284   8.862
15530TIP3    H113661   2.940   7.252   8.864
15530TIP3    H213662   3.068   7.237   8.939
15531TIP3   OH213663   2.428   7.182   9.009
15531TIP3    H113664   2.452   7.090   8.978
15531TIP3    H213665   2.339   7.189   8.968
15532TIP3   OH213666   3.545   6.792   8.963
15532TIP3    H113667   3.595   6.710   8.952
15532TIP3    H213668   3.591   6.833   9.040
15533TIP3   OH213669   2.869   6.793   9.063
15533TIP3    H113670   2.897   6.855   9.135
15533TIP3    H213671   2.873   6.703   9.103
15534TIP3   OH213672   2.298   6.793   9.249
15534TIP3    H113673   2.213   6.844   9.254
15534TIP3    H213674   2.358   6.870   9.247
15535TIP3   OH213675   3.397   6.490   9.006
15535TIP3    H113676   3.346   6.420   8.961
15535TIP3    H213677   3.382   6.564   8.944
15536TIP3   OH213678   2.923   6.643  10.494
15536TIP3    H113679   3.006   6.624  10.450
15536TIP3    H213680   2.910   6.562  10.546
15537TIP3   OH213681   3.072   6.415   9.334
15537TIP3    H113682   3.125   6.498   9.336
15537TIP3    H213683   2.992   6.450   9.377
15538TIP3   OH213684   2.502   6.700   8.935
15538TIP3    H113685   2.452   6.653   9.004
15538TIP3    H213686   2.533   6.628   8.878
15539TIP3   OH213687   2.938   6.193   9.201
15539TIP3    H113688   2.935   6.123   9.270
15539TIP3    H213689   2.963   6.270   9.257
15540TIP3   OH213690   2.954   5.991   9.403
15540TIP3    H113691   2.899   6.030   9.475
15540TIP3    H213692   3.042   5.989   9.446
15541TIP3   OH213693   2.833   6.571   9.404
15541TIP3    H113694   2.747   6.591   9.444
15541TIP3    H213695   2.888   6.641   9.446
15542TIP3   OH213696   2.417   6.341   8.882
15542TIP3    H113697   2.409   6.254   8.836
15542TIP3    H213698   2.325   6.360   8.903
15543TIP3   OH213699   2.221   6.636   9.045
15543TIP3    H113700   2.260   6.687   9.120
15543TIP3    H213701   2.132   6.616   9.081
15544TIP3   OH213702   3.139   6.260   8.987
15544TIP3    H113703   3.216   6.207   9.020
15544TIP3    H213704   3.081   6.260   9.065
15545TIP3   OH213705   2.856   5.742   9.394
15545TIP3    H113706   2.893   5.832   9.382
15545TIP3    H213707   2.935   5.694   9.423
15546TIP3   OH213708   2.749   6.155   8.978
15546TIP3    H113709   2.820   6.142   8.911
15546TIP3    H213710   2.805   6.152   9.058
15547TIP3   OH213711   2.465   6.113   9.096
15547TIP3    H113712   2.559   6.107   9.074
15547TIP3    H213713   2.432   6.050   9.028
15548TIP3   OH213714   2.387   5.929   8.922
15548TIP3    H113715   2.339   5.846   8.903
15548TIP3    H213716   2.367   5.985   8.843
15549TIP3   OH213717   3.345   6.085   9.002
15549TIP3    H113718   3.357   5.998   9.045
15549TIP3    H213719   3.356   6.060   8.907
15550TIP3   OH213720   2.894   5.692   9.135
15550TIP3    H113721   2.810   5.646   9.120
15550TIP3    H213722   2.890   5.696   9.232
15551TIP3   OH213723   2.887   5.791   8.846
15551TIP3    H113724   2.894   5.754   8.936
15551TIP3    H213725   2.892   5.886   8.869
15552TIP3   OH213726   2.898   7.546  10.604
15552TIP3    H113727   2.831   7.560  10.537
15552TIP3    H213728   2.964   7.614  10.583
15553TIP3   OH213729   3.578   6.951  10.672
15553TIP3    H113730   3.499   6.943  10.616
15553TIP3    H213731   3.552   6.904  10.752
15554TIP3   OH213732   3.660   7.517  10.134
15554TIP3    H113733   3.728   7.454  10.169
15554TIP3    H213734   3.613   7.463  10.068
15555TIP3   OH213735   3.557   7.346   9.951
15555TIP3    H113736   3.625   7.294   9.902
15555TIP3    H213737   3.493   7.361   9.878
15556TIP3   OH213738   1.820   7.418   9.671
15556TIP3    H113739   1.775   7.433   9.586
15556TIP3    H213740   1.769   7.473   9.733
15557TIP3   OH213741   1.851   7.354   9.358
15557TIP3    H113742   1.887   7.279   9.411
15557TIP3    H213743   1.835   7.310   9.273
15558TIP3   OH213744   1.974   6.929   8.880
15558TIP3    H113745   2.061   6.941   8.835
15558TIP3    H213746   1.936   7.019   8.864
15559TIP3   OH213747   1.864   6.771  10.366
15559TIP3    H113748   1.776   6.812  10.359
15559TIP3    H213749   1.866   6.714  10.287
15560TIP3   OH213750   1.839   6.587  10.165
15560TIP3    H113751   1.913   6.530  10.132
15560TIP3    H213752   1.786   6.592  10.083
15561TIP3   OH213753   1.877   6.858   9.690
15561TIP3    H113754   1.805   6.794   9.707
15561TIP3    H213755   1.848   6.938   9.737
15562TIP3   OH213756   1.990   7.134   9.443
15562TIP3    H113757   2.064   7.173   9.393
15562TIP3    H213758   2.033   7.115   9.530
15563TIP3   OH213759   1.805   6.524  10.487
15563TIP3    H113760   1.894   6.559  10.498
15563TIP3    H213761   1.760   6.602  10.452
15564TIP3   OH213762   2.011   6.250  10.693
15564TIP3    H113763   2.004   6.289  10.780
15564TIP3    H213764   2.105   6.224  10.690
15565TIP3   OH213765   2.014   6.416  10.073
15565TIP3    H113766   2.069   6.348  10.116
15565TIP3    H213767   2.061   6.432   9.989
15566TIP3   OH213768   3.563   6.670   9.672
15566TIP3    H113769   3.563   6.639   9.766
15566TIP3    H213770   3.470   6.646   9.649
15567TIP3   OH213771   1.939   6.623   9.127
15567TIP3    H113772   1.899   6.532   9.128
15567TIP3    H213773   1.867   6.678   9.160
15568TIP3   OH213774   1.835   6.365   9.099
15568TIP3    H113775   1.924   6.323   9.098
15568TIP3    H213776   1.774   6.287   9.086
15569TIP3   OH213777   2.094   6.228  10.284
15569TIP3    H113778   2.068   6.143  10.242
15569TIP3    H213779   2.004   6.258  10.309
15570TIP3   OH213780   1.988   6.268   9.699
15570TIP3    H113781   1.890   6.282   9.698
15570TIP3    H213782   2.003   6.282   9.604
15571TIP3   OH213783   2.005   6.332   9.440
15571TIP3    H113784   2.098   6.361   9.433
15571TIP3    H213785   1.957   6.415   9.463
15572TIP3   OH213786   3.570   6.166   9.109
15572TIP3    H113787   3.488   6.150   9.058
15572TIP3    H213788   3.622   6.084   9.092
15573TIP3   OH213789   1.807   5.764   8.931
15573TIP3    H113790   1.757   5.691   8.974
15573TIP3    H213791   1.804   5.834   9.001
15574TIP3   OH213792   1.977   5.995  10.233
15574TIP3    H113793   1.967   5.941  10.151
15574TIP3    H213794   2.035   5.939  10.286
15575TIP3   OH213795   3.472   5.997   9.739
15575TIP3    H113796   3.425   5.911   9.742
15575TIP3    H213797   3.400   6.063   9.744
15576TIP3   OH213798   3.621   6.302   9.687
15576TIP3    H113799   3.555   6.275   9.754
15576TIP3    H213800   3.580   6.384   9.657
15577TIP3   OH213801   1.862   5.979   9.078
15577TIP3    H113802   1.931   5.991   9.009
15577TIP3    H213803   1.915   5.947   9.154
15578TIP3   OH213804   3.593   5.923  10.273
15578TIP3    H113805   3.660   5.989  10.253
15578TIP3    H213806   3.585   5.930  10.369
15579TIP3   OH213807   2.164   7.433  10.078
15579TIP3    H113808   2.087   7.416  10.137
15579TIP3    H213809   2.125   7.488  10.007
15580TIP3   OH213810   3.604   5.784   9.454
15580TIP3    H113811   3.676   5.751   9.397
15580TIP3    H213812   3.644   5.858   9.502
15581TIP3   OH213813   3.386   7.097   9.047
15581TIP3    H113814   3.472   7.131   9.077
15581TIP3    H213815   3.405   7.063   8.959
15582TIP3   OH213816   3.102   7.252   9.392
15582TIP3    H113817   3.105   7.345   9.423
15582TIP3    H213818   3.005   7.236   9.397
15583TIP3   OH213819   2.687   7.362   9.128
15583TIP3    H113820   2.677   7.358   9.031
15583TIP3    H213821   2.602   7.403   9.155
15584TIP3   OH213822   2.473   7.527   9.169
15584TIP3    H113823   2.387   7.499   9.204
15584TIP3    H213824   2.449   7.575   9.087
15585TIP3   OH213825   1.950   5.715   9.270
15585TIP3    H113826   2.027   5.751   9.316
15585TIP3    H213827   1.940   5.626   9.310
15586TIP3   OH213828   3.364   7.554   9.423
15586TIP3    H113829   3.446   7.600   9.450
15586TIP3    H213830   3.364   7.579   9.329
15587TIP3   OH213831   3.121   7.506   9.516
15587TIP3    H113832   3.214   7.523   9.487
15587TIP3    H213833   3.108   7.573   9.585
15588TIP3   OH213834   2.658   7.469   9.584
15588TIP3    H113835   2.742   7.514   9.603
15588TIP3    H213836   2.621   7.533   9.520
15589TIP3   OH213837   2.436   7.344   9.440
15589TIP3    H113838   2.495   7.379   9.511
15589TIP3    H213839   2.355   7.394   9.461
15590TIP3   OH213840   2.182   7.493   9.461
15590TIP3    H113841   2.164   7.586   9.486
15590TIP3    H213842   2.149   7.449   9.543
15591TIP3   OH213843   3.405   7.383   9.723
15591TIP3    H113844   3.420   7.326   9.643
15591TIP3    H213845   3.313   7.358   9.747
15592TIP3   OH213846   3.178   7.309   9.846
15592TIP3    H113847   3.192   7.213   9.839
15592TIP3    H213848   3.089   7.314   9.803
15593TIP3   OH213849   2.953   7.284   9.702
15593TIP3    H113850   2.913   7.197   9.720
15593TIP3    H213851   2.940   7.290   9.606
15594TIP3   OH213852   2.648   5.836   9.829
15594TIP3    H113853   2.729   5.781   9.816
15594TIP3    H213854   2.605   5.794   9.904
15595TIP3   OH213855   2.067   5.684   9.856
15595TIP3    H113856   2.003   5.747   9.896
15595TIP3    H213857   2.152   5.712   9.897
15596TIP3   OH213858   1.908   5.823  10.028
15596TIP3    H113859   1.854   5.751  10.067
15596TIP3    H213860   1.842   5.894  10.011
15597TIP3   OH213861   3.355   5.736  10.056
15597TIP3    H113862   3.440   5.737  10.103
15597TIP3    H213863   3.319   5.649  10.080
15598TIP3   OH213864   2.900   5.717  10.102
15598TIP3    H113865   2.811   5.698  10.134
15598TIP3    H213866   2.884   5.741  10.011
15599TIP3   OH213867   2.319   5.755   9.955
15599TIP3    H113868   2.354   5.757  10.046
15599TIP3    H213869   2.360   5.672   9.923
15600TIP3   OH213870   2.223   5.744  10.374
15600TIP3    H113871   2.313   5.772  10.397
15600TIP3    H213872   2.242   5.656  10.334
15601TIP3   OH213873   3.493   7.333  10.410
15601TIP3    H113874   3.577   7.310  10.451
15601TIP3    H213875   3.479   7.424  10.441
15602TIP3   OH213876   2.801   5.902  10.394
15602TIP3    H113877   2.758   5.849  10.326
15602TIP3    H213878   2.783   5.993  10.368
15603TIP3   OH213879   1.971   7.375  10.249
15603TIP3    H113880   1.963   7.293  10.305
15603TIP3    H213881   1.962   7.442  10.320
15604TIP3   OH213882   3.396   5.808   9.131
15604TIP3    H113883   3.445   5.724   9.120
15604TIP3    H213884   3.319   5.794   9.071
15605TIP3   OH213885   3.195   5.751   8.944
15605TIP3    H113886   3.116   5.699   8.970
15605TIP3    H213887   3.242   5.685   8.890
15606TIP3   OH213888   2.339   5.663   8.895
15606TIP3    H113889   2.323   5.621   8.808
15606TIP3    H213890   2.253   5.653   8.939
15607TIP3   OH213891   2.008   7.290   9.077
15607TIP3    H113892   2.080   7.274   9.143
15607TIP3    H213893   2.026   7.384   9.056
15608TIP3   OH213894   0.570   6.660  10.072
15608TIP3    H113895   0.559   6.756  10.059
15608TIP3    H213896   0.637   6.659  10.143
15609TIP3   OH213897   0.695   6.565   9.708
15609TIP3    H113898   0.660   6.522   9.627
15609TIP3    H213899   0.769   6.506   9.731
15610TIP3   OH213900   1.468   6.541   9.604
15610TIP3    H113901   1.476   6.463   9.547
15610TIP3    H213902   1.381   6.574   9.575
15611TIP3   OH213903   0.313   6.876   9.920
15611TIP3    H113904   0.275   6.805   9.867
15611TIP3    H213905   0.323   6.946   9.852
15612TIP3   OH213906   1.370   7.017   9.775
15612TIP3    H113907   1.393   6.922   9.788
15612TIP3    H213908   1.274   7.010   9.786
15613TIP3   OH213909   1.681   6.343  10.190
15613TIP3    H113910   1.709   6.435  10.177
15613TIP3    H213911   1.765   6.297  10.190
15614TIP3   OH213912   1.651   6.565   9.938
15614TIP3    H113913   1.605   6.480   9.913
15614TIP3    H213914   1.576   6.623   9.961
15615TIP3   OH213915   0.590   7.421   9.907
15615TIP3    H113916   0.526   7.351   9.934
15615TIP3    H213917   0.638   7.379   9.835
15616TIP3   OH213918   0.859   6.836   9.667
15616TIP3    H113919   0.830   6.790   9.747
15616TIP3    H213920   0.773   6.853   9.623
15617TIP3   OH213921   0.003   6.034   9.595
15617TIP3    H113922  -0.016   6.129   9.584
15617TIP3    H213923  -0.080   6.011   9.641
15618TIP3   OH213924   0.514   6.277   9.638
15618TIP3    H113925   0.494   6.184   9.619
15618TIP3    H213926   0.524   6.272   9.734
15619TIP3   OH213927   1.218   6.056   9.962
15619TIP3    H113928   1.200   6.140  10.009
15619TIP3    H213929   1.256   6.003  10.035
15620TIP3   OH213930   0.439   6.075  10.093
15620TIP3    H113931   0.403   6.051  10.005
15620TIP3    H213932   0.385   6.152  10.115
15621TIP3   OH213933   1.534   6.333   9.866
15621TIP3    H113934   1.474   6.285   9.806
15621TIP3    H213935   1.506   6.296   9.952
15622TIP3   OH213936   1.063   6.475   9.905
15622TIP3    H113937   0.975   6.435   9.889
15622TIP3    H213938   1.102   6.407   9.965
15623TIP3   OH213939   1.300   5.971   9.535
15623TIP3    H113940   1.348   6.018   9.606
15623TIP3    H213941   1.359   5.987   9.460
15624TIP3   OH213942   0.611   6.924  10.188
15624TIP3    H113943   0.664   6.904  10.268
15624TIP3    H213944   0.650   7.007  10.155
15625TIP3   OH213945   1.092   6.743   9.561
15625TIP3    H113946   1.153   6.814   9.530
15625TIP3    H213947   1.015   6.795   9.594
15626TIP3   OH213948   0.269   6.078   9.860
15626TIP3    H113949   0.250   5.986   9.839
15626TIP3    H213950   0.239   6.128   9.781
15627TIP3   OH213951   1.357   6.165   9.736
15627TIP3    H113952   1.293   6.226   9.692
15627TIP3    H213953   1.309   6.140   9.817
15628TIP3   OH213954   1.231   6.948   9.457
15628TIP3    H113955   1.240   7.036   9.496
15628TIP3    H213956   1.314   6.942   9.403
15629TIP3   OH213957   1.623   6.916  10.361
15629TIP3    H113958   1.661   6.980  10.424
15629TIP3    H213959   1.624   6.968  10.277
15630TIP3   OH213960   0.293   7.081   9.743
15630TIP3    H113961   0.379   7.099   9.699
15630TIP3    H213962   0.248   7.166   9.729
15631TIP3   OH213963   0.211   5.843   9.568
15631TIP3    H113964   0.289   5.890   9.604
15631TIP3    H213965   0.139   5.904   9.596
15632TIP3   OH213966   0.965   5.721   9.782
15632TIP3    H113967   0.994   5.630   9.797
15632TIP3    H213968   1.054   5.762   9.758
15633TIP3   OH213969   0.432   7.236  10.023
15633TIP3    H113970   0.403   7.157  10.075
15633TIP3    H213971   0.352   7.293  10.032
15634TIP3   OH213972   0.324   7.024  10.163
15634TIP3    H113973   0.399   6.968  10.190
15634TIP3    H213974   0.298   6.977  10.081
15635TIP3   OH213975   0.183   6.891   9.295
15635TIP3    H113976   0.175   6.838   9.377
15635TIP3    H213977   0.136   6.971   9.322
15636TIP3   OH213978   0.688   6.572  10.316
15636TIP3    H113979   0.748   6.651  10.316
15636TIP3    H213980   0.688   6.546  10.410
15637TIP3   OH213981   0.679   6.440  10.575
15637TIP3    H113982   0.585   6.437  10.600
15637TIP3    H213983   0.718   6.375  10.637
15638TIP3   OH213984  -0.008   6.534   9.546
15638TIP3    H113985   0.063   6.601   9.536
15638TIP3    H213986  -0.069   6.581   9.607
15639TIP3   OH213987   0.345   6.631  10.225
15639TIP3    H113988   0.422   6.632  10.165
15639TIP3    H213989   0.288   6.562  10.184
15640TIP3   OH213990   0.374   6.431   9.336
15640TIP3    H113991   0.362   6.519   9.296
15640TIP3    H213992   0.455   6.450   9.389
15641TIP3   OH213993   1.199   6.657  10.047
15641TIP3    H113994   1.224   6.620  10.135
15641TIP3    H213995   1.137   6.590  10.013
15642TIP3   OH213996   1.054   7.018   9.784
15642TIP3    H113997   1.053   7.004   9.881
15642TIP3    H213998   0.987   6.956   9.751
15643TIP3   OH213999   1.183   6.527   9.673
15643TIP3    H114000   1.148   6.526   9.765
15643TIP3    H214001   1.137   6.606   9.636
15644TIP3   OH214002   0.516   7.117   9.602
15644TIP3    H114003   0.559   7.171   9.534
15644TIP3    H214004   0.527   7.027   9.565
15645TIP3   OH214005   1.069   6.993   9.241
15645TIP3    H114006   1.146   7.037   9.199
15645TIP3    H214007   1.108   6.971   9.328
15646TIP3   OH214008   0.417   6.520  10.479
15646TIP3    H114009   0.412   6.563  10.392
15646TIP3    H214010   0.435   6.597  10.536
15647TIP3   OH214011   1.352   6.610   9.335
15647TIP3    H114012   1.337   6.693   9.287
15647TIP3    H214013   1.433   6.582   9.290
15648TIP3   OH214014   0.711   7.200  10.154
15648TIP3    H114015   0.646   7.205  10.083
15648TIP3    H214016   0.761   7.281  10.137
15649TIP3   OH214017   1.255   7.166   9.129
15649TIP3    H114018   1.263   7.203   9.220
15649TIP3    H214019   1.348   7.136   9.113
15650TIP3   OH214020   0.117   5.701  10.441
15650TIP3    H114021   0.212   5.720  10.454
15650TIP3    H214022   0.090   5.672  10.530
15651TIP3   OH214023   1.299   6.561  10.293
15651TIP3    H114024   1.347   6.640  10.325
15651TIP3    H214025   1.362   6.490  10.310
15652TIP3   OH214026   1.660   6.821   9.391
15652TIP3    H114027   1.705   6.812   9.477
15652TIP3    H214028   1.628   6.729   9.380
15653TIP3   OH214029   1.695   7.096   9.734
15653TIP3    H114030   1.608   7.059   9.752
15653TIP3    H214031   1.675   7.157   9.662
15654TIP3   OH214032   0.810   7.115   9.230
15654TIP3    H114033   0.804   7.183   9.161
15654TIP3    H214034   0.903   7.082   9.226
15655TIP3   OH214035   0.753   7.476  10.310
15655TIP3    H114036   0.756   7.506  10.403
15655TIP3    H214037   0.758   7.562  10.264
15656TIP3   OH214038   1.392   7.375  10.091
15656TIP3    H114039   1.359   7.349  10.002
15656TIP3    H214040   1.478   7.330  10.096
15657TIP3   OH214041   0.484   7.349  10.584
15657TIP3    H114042   0.457   7.258  10.561
15657TIP3    H214043   0.453   7.397  10.506
15658TIP3   OH214044   0.491   7.407  10.317
15658TIP3    H114045   0.587   7.412  10.294
15658TIP3    H214046   0.454   7.354  10.244
15659TIP3   OH214047   0.200   6.329   9.112
15659TIP3    H114048   0.227   6.342   9.204
15659TIP3    H214049   0.152   6.246   9.116
15660TIP3   OH214050   1.441   6.943   9.287
15660TIP3    H114051   1.436   6.898   9.200
15660TIP3    H214052   1.529   6.916   9.321
15661TIP3   OH214053   1.194   5.830   9.726
15661TIP3    H114054   1.275   5.855   9.772
15661TIP3    H214055   1.212   5.868   9.637
15662TIP3   OH214056   0.697   5.760   9.393
15662TIP3    H114057   0.660   5.724   9.309
15662TIP3    H214058   0.794   5.753   9.382
15663TIP3   OH214059   0.385   6.138   9.319
15663TIP3    H114060   0.436   6.125   9.237
15663TIP3    H214061   0.390   6.235   9.330
15664TIP3   OH214062   1.168   6.280   9.581
15664TIP3    H114063   1.249   6.285   9.526
15664TIP3    H214064   1.163   6.373   9.613
15665TIP3   OH214065   1.188   6.292  10.074
15665TIP3    H114066   1.284   6.278  10.092
15665TIP3    H214067   1.149   6.272  10.162
15666TIP3   OH214068   0.623   6.332  10.225
15666TIP3    H114069   0.639   6.424  10.258
15666TIP3    H214070   0.562   6.296  10.293
15667TIP3   OH214071   0.766   6.390   9.089
15667TIP3    H114072   0.795   6.298   9.071
15667TIP3    H214073   0.691   6.395   9.030
15668TIP3   OH214074   0.564   6.345   9.925
15668TIP3    H114075   0.576   6.432   9.969
15668TIP3    H214076   0.548   6.289  10.003
15669TIP3   OH214077   1.421   6.298   9.451
15669TIP3    H114078   1.388   6.333   9.368
15669TIP3    H214079   1.456   6.211   9.419
15670TIP3   OH214080   1.738   6.033   9.988
15670TIP3    H114081   1.663   6.031   9.926
15670TIP3    H214082   1.697   6.050  10.074
15671TIP3   OH214083   1.627   6.113  10.475
15671TIP3    H114084   1.573   6.173  10.527
15671TIP3    H214085   1.701   6.171  10.449
15672TIP3   OH214086   0.595   6.477   9.480
15672TIP3    H114087   0.554   6.406   9.536
15672TIP3    H214088   0.661   6.424   9.430
15673TIP3   OH214089   0.908   6.072   9.979
15673TIP3    H114090   1.004   6.060   9.966
15673TIP3    H214091   0.869   6.011   9.914
15674TIP3   OH214092   1.443   6.215  10.112
15674TIP3    H114093   1.522   6.240  10.165
15674TIP3    H214094   1.423   6.125  10.145
15675TIP3   OH214095   1.109   6.239  10.334
15675TIP3    H114096   1.012   6.226  10.326
15675TIP3    H214097   1.116   6.303  10.405
15676TIP3   OH214098   0.458   5.952   9.674
15676TIP3    H114099   0.533   5.966   9.613
15676TIP3    H214100   0.502   5.917   9.754
15677TIP3   OH214101   0.199   7.528   9.007
15677TIP3    H114102   0.170   7.568   9.092
15677TIP3    H214103   0.130   7.560   8.947
15678TIP3   OH214104   1.404   6.774   9.070
15678TIP3    H114105   1.350   6.789   8.989
15678TIP3    H214106   1.494   6.769   9.031
15679TIP3   OH214107   0.833   6.356   9.815
15679TIP3    H114108   0.744   6.330   9.845
15679TIP3    H214109   0.871   6.271   9.789
15680TIP3   OH214110   1.357   5.954  10.172
15680TIP3    H114111   1.414   5.886  10.130
15680TIP3    H214112   1.307   5.900  10.235
15681TIP3   OH214113   0.929   6.150   9.557
15681TIP3    H114114   1.002   6.214   9.571
15681TIP3    H214115   0.861   6.207   9.520
15682TIP3   OH214116   0.849   6.780  10.325
15682TIP3    H114117   0.922   6.765  10.388
15682TIP3    H214118   0.897   6.827  10.253
15683TIP3   OH214119   0.157   6.744   9.505
15683TIP3    H114120   0.114   6.811   9.563
15683TIP3    H214121   0.233   6.713   9.559
15684TIP3   OH214122   0.778   6.845   9.282
15684TIP3    H114123   0.778   6.795   9.199
15684TIP3    H214124   0.782   6.937   9.250
15685TIP3   OH214125   0.428   6.239  10.415
15685TIP3    H114126   0.343   6.244  10.367
15685TIP3    H214127   0.434   6.325  10.463
15686TIP3   OH214128   1.368   6.750   9.841
15686TIP3    H114129   1.303   6.735   9.912
15686TIP3    H214130   1.354   6.672   9.784
15687TIP3   OH214131   1.668   6.562   9.268
15687TIP3    H114132   1.669   6.503   9.190
15687TIP3    H214133   1.727   6.515   9.329
15688TIP3   OH214134   0.990   6.535   9.105
15688TIP3    H114135   1.030   6.474   9.169
15688TIP3    H214136   0.898   6.499   9.102
15689TIP3   OH214137   0.487   7.061   9.257
15689TIP3    H114138   0.576   7.083   9.288
15689TIP3    H214139   0.493   7.088   9.164
15690TIP3   OH214140   0.043   7.102  10.406
15690TIP3    H114141   0.113   7.093  10.339
15690TIP3    H214142   0.090   7.144  10.479
15691TIP3   OH214143   0.353   6.635   9.652
15691TIP3    H114144   0.449   6.645   9.655
15691TIP3    H214145   0.339   6.583   9.734
15692TIP3   OH214146   1.146   7.082  10.038
15692TIP3    H114147   1.095   7.158  10.074
15692TIP3    H214148   1.235   7.102  10.071
15693TIP3   OH214149   0.996   6.872  10.126
15693TIP3    H114150   1.051   6.948  10.100
15693TIP3    H214151   1.037   6.798  10.079
15694TIP3   OH214152   0.949   7.266   9.430
15694TIP3    H114153   0.889   7.337   9.458
15694TIP3    H214154   0.891   7.220   9.366
15695TIP3   OH214155   1.118   7.318  10.168
15695TIP3    H114156   1.209   7.346  10.148
15695TIP3    H214157   1.071   7.400  10.142
15696TIP3   OH214158   0.630   6.855   9.514
15696TIP3    H114159   0.667   6.844   9.423
15696TIP3    H214160   0.586   6.771   9.532
15697TIP3   OH214161   0.360   7.002  10.592
15697TIP3    H114162   0.323   6.952  10.517
15697TIP3    H214163   0.403   6.929  10.639
15698TIP3   OH214164   0.311   7.280   9.287
15698TIP3    H114165   0.403   7.250   9.304
15698TIP3    H214166   0.300   7.353   9.352
15699TIP3   OH214167   1.474   6.066   9.320
15699TIP3    H114168   1.550   6.096   9.266
15699TIP3    H214169   1.463   5.977   9.283
15700TIP3   OH214170   0.257   6.806  10.425
15700TIP3    H114171   0.292   6.740  10.361
15700TIP3    H214172   0.167   6.814  10.388
15701TIP3   OH214173   1.547   7.217   9.511
15701TIP3    H114174   1.472   7.162   9.483
15701TIP3    H214175   1.563   7.273   9.433
15702TIP3   OH214176   1.402   6.776  10.439
15702TIP3    H114177   1.480   6.812  10.392
15702TIP3    H214178   1.350   6.855  10.454
15703TIP3   OH214179   0.628   6.037   9.411
15703TIP3    H114180   0.535   6.043   9.381
15703TIP3    H214181   0.651   5.945   9.388
15704TIP3   OH214182   0.580   5.965  10.332
15704TIP3    H114183   0.588   6.021  10.411
15704TIP3    H214184   0.512   6.015  10.283
15705TIP3   OH214185   0.785   7.232  10.481
15705TIP3    H114186   0.874   7.196  10.469
15705TIP3    H214187   0.759   7.246  10.388
15706TIP3   OH214188   0.850   6.164  10.257
15706TIP3    H114189   0.780   6.232  10.247
15706TIP3    H214190   0.870   6.138  10.165
15707TIP3   OH214191   0.737   6.289   9.348
15707TIP3    H114192   0.739   6.317   9.254
15707TIP3    H214193   0.700   6.198   9.348
15708TIP3   OH214194   0.768   5.837  10.173
15708TIP3    H114195   0.795   5.895  10.100
15708TIP3    H214196   0.695   5.889  10.214
15709TIP3   OH214197   1.074   7.304  10.464
15709TIP3    H114198   1.011   7.376  10.466
15709TIP3    H214199   1.113   7.315  10.375
15710TIP3   OH214200   1.201   5.958  10.465
15710TIP3    H114201   1.210   6.038  10.413
15710TIP3    H214202   1.103   5.946  10.457
15711TIP3   OH214203   0.138   6.048   9.241
15711TIP3    H114204   0.229   6.072   9.269
15711TIP3    H214205   0.093   6.053   9.327
15712TIP3   OH214206   0.317   6.462   9.868
15712TIP3    H114207   0.405   6.421   9.871
15712TIP3    H214208   0.266   6.400   9.812
15713TIP3   OH214209   0.146   7.327   9.679
15713TIP3    H114210   0.181   7.383   9.751
15713TIP3    H214211   0.054   7.356   9.680
15714TIP3   OH214212   1.458   5.766   9.771
15714TIP3    H114213   1.463   5.753   9.868
15714TIP3    H214214   1.482   5.676   9.741
15715TIP3   OH214215   1.589   7.164  10.189
15715TIP3    H114216   1.671   7.203  10.159
15715TIP3    H214217   1.579   7.214  10.272
15716TIP3   OH214218   1.651   7.457   9.041
15716TIP3    H114219   1.581   7.446   8.972
15716TIP3    H214220   1.686   7.366   9.044
15717TIP3   OH214221   1.148   7.283   8.864
15717TIP3    H114222   1.056   7.252   8.868
15717TIP3    H214223   1.187   7.238   8.940
15718TIP3   OH214224   0.547   7.179   9.009
15718TIP3    H114225   0.563   7.096   8.959
15718TIP3    H214226   0.454   7.195   8.983
15719TIP3   OH214227   1.663   6.795   8.961
15719TIP3    H114228   1.711   6.710   8.952
15719TIP3    H214229   1.707   6.835   9.039
15720TIP3   OH214230   1.246   6.842  10.820
15720TIP3    H114231   1.280   6.775  10.759
15720TIP3    H214232   1.221   6.787  10.895
15721TIP3   OH214233   0.997   6.795   9.061
15721TIP3    H114234   1.023   6.849   9.138
15721TIP3    H214235   0.991   6.702   9.096
15722TIP3   OH214236   0.426   6.788   9.242
15722TIP3    H114237   0.337   6.830   9.245
15722TIP3    H214238   0.478   6.868   9.264
15723TIP3   OH214239   1.515   6.492   9.005
15723TIP3    H114240   1.432   6.447   8.987
15723TIP3    H214241   1.510   6.563   8.937
15724TIP3   OH214242   1.076   6.671  10.469
15724TIP3    H114243   1.154   6.636  10.422
15724TIP3    H214244   1.046   6.596  10.522
15725TIP3   OH214245   1.168   6.410   9.318
15725TIP3    H114246   1.229   6.485   9.306
15725TIP3    H214247   1.098   6.454   9.372
15726TIP3   OH214248   0.642   6.685   8.922
15726TIP3    H114249   0.576   6.656   8.989
15726TIP3    H214250   0.660   6.601   8.877
15727TIP3   OH214251   0.171   6.675  10.741
15727TIP3    H114252   0.225   6.601  10.772
15727TIP3    H214253   0.242   6.728  10.704
15728TIP3   OH214254   1.055   6.188   9.206
15728TIP3    H114255   1.054   6.119   9.276
15728TIP3    H214256   1.075   6.267   9.259
15729TIP3   OH214257   1.070   5.982   9.408
15729TIP3    H114258   1.016   6.033   9.473
15729TIP3    H214259   1.159   5.992   9.447
15730TIP3   OH214260   0.956   6.568   9.418
15730TIP3    H114261   0.872   6.613   9.438
15730TIP3    H214262   1.018   6.633   9.457
15731TIP3   OH214263   0.477   6.307   8.909
15731TIP3    H114264   0.489   6.216   8.876
15731TIP3    H214265   0.403   6.298   8.972
15732TIP3   OH214266   0.334   6.620   9.048
15732TIP3    H114267   0.367   6.676   9.121
15732TIP3    H214268   0.239   6.610   9.070
15733TIP3   OH214269   1.233   6.245   8.995
15733TIP3    H114270   1.316   6.202   9.024
15733TIP3    H214271   1.175   6.235   9.073
15734TIP3   OH214272   0.966   5.736   9.428
15734TIP3    H114273   0.999   5.828   9.412
15734TIP3    H214274   1.050   5.694   9.452
15735TIP3   OH214275   0.863   6.148   9.000
15735TIP3    H114276   0.922   6.140   8.923
15735TIP3    H214277   0.928   6.139   9.073
15736TIP3   OH214278   0.592   6.084   9.104
15736TIP3    H114279   0.684   6.073   9.076
15736TIP3    H214280   0.545   6.019   9.048
15737TIP3   OH214281   0.419   5.936   8.936
15737TIP3    H114282   0.441   5.841   8.923
15737TIP3    H214283   0.452   5.978   8.852
15738TIP3   OH214284   1.456   6.078   8.990
15738TIP3    H114285   1.448   5.994   9.039
15738TIP3    H214286   1.472   6.046   8.897
15739TIP3   OH214287   1.017   5.703   9.160
15739TIP3    H114288   0.940   5.646   9.141
15739TIP3    H214289   1.011   5.702   9.258
15740TIP3   OH214290   0.994   5.789   8.845
15740TIP3    H114291   1.020   5.751   8.931
15740TIP3    H214292   1.008   5.883   8.863
15741TIP3   OH214293   1.618   6.948  10.641
15741TIP3    H114294   1.546   6.953  10.577
15741TIP3    H214295   1.613   6.856  10.669
15742TIP3   OH214296   1.778   7.505  10.109
15742TIP3    H114297   1.838   7.444  10.159
15742TIP3    H214298   1.744   7.448  10.037
15743TIP3   OH214299   1.669   7.330   9.930
15743TIP3    H114300   1.733   7.264   9.894
15743TIP3    H214301   1.609   7.342   9.853
15744TIP3   OH214302  -0.039   7.356   9.350
15744TIP3    H114303   0.023   7.295   9.397
15744TIP3    H214304  -0.056   7.304   9.269
15745TIP3   OH214305   0.112   6.935   8.877
15745TIP3    H114306   0.194   6.959   8.829
15745TIP3    H214307   0.065   7.021   8.871
15746TIP3   OH214308   0.019   6.780  10.281
15746TIP3    H114309  -0.027   6.852  10.237
15746TIP3    H214310   0.041   6.719  10.210
15747TIP3   OH214311   9.326   6.877   9.640
15747TIP3    H114312   9.270   6.803   9.673
15747TIP3    H214313   9.287   6.956   9.683
15748TIP3   OH214314   0.113   7.140   9.441
15748TIP3    H114315   0.197   7.176   9.406
15748TIP3    H214316   0.132   7.124   9.534
15749TIP3   OH214317   0.186   6.445  10.111
15749TIP3    H114318   0.205   6.355  10.143
15749TIP3    H214319   0.234   6.447  10.026
15750TIP3   OH214320   1.679   6.668   9.686
15750TIP3    H114321   1.678   6.631   9.777
15750TIP3    H214322   1.586   6.648   9.659
15751TIP3   OH214323   0.071   6.628   9.103
15751TIP3    H114324   0.058   6.535   9.131
15751TIP3    H214325   0.049   6.680   9.181
15752TIP3   OH214326   0.212   6.213  10.250
15752TIP3    H114327   0.209   6.116  10.239
15752TIP3    H214328   0.119   6.230  10.270
15753TIP3   OH214329   0.171   6.279   9.708
15753TIP3    H114330   0.074   6.266   9.712
15753TIP3    H214331   0.183   6.276   9.612
15754TIP3   OH214332   0.138   6.335   9.432
15754TIP3    H114333   0.220   6.383   9.409
15754TIP3    H214334   0.076   6.406   9.461
15755TIP3   OH214335   1.672   6.162   9.107
15755TIP3    H114336   1.591   6.136   9.057
15755TIP3    H214337   1.729   6.083   9.095
15756TIP3   OH214338   0.166   5.949  10.272
15756TIP3    H114339   0.141   5.903  10.189
15756TIP3    H214340   0.197   5.873  10.325
15757TIP3   OH214341   1.587   6.000   9.726
15757TIP3    H114342   1.546   5.911   9.734
15757TIP3    H214343   1.511   6.060   9.737
15758TIP3   OH214344   1.729   6.303   9.687
15758TIP3    H114345   1.667   6.283   9.759
15758TIP3    H214346   1.687   6.381   9.649
15759TIP3   OH214347   1.712   5.945  10.284
15759TIP3    H114348   1.806   5.965  10.269
15759TIP3    H214349   1.696   5.995  10.367
15760TIP3   OH214350   0.256   7.422  10.073
15760TIP3    H114351   0.194   7.394  10.142
15760TIP3    H214352   0.200   7.477  10.015
15761TIP3   OH214353   1.728   5.791   9.447
15761TIP3    H114354   1.803   5.758   9.393
15761TIP3    H214355   1.771   5.853   9.508
15762TIP3   OH214356   1.514   7.100   9.051
15762TIP3    H114357   1.601   7.133   9.079
15762TIP3    H214358   1.532   7.064   8.964
15763TIP3   OH214359   1.220   7.245   9.395
15763TIP3    H114360   1.226   7.341   9.418
15763TIP3    H214361   1.122   7.235   9.395
15764TIP3   OH214362   0.789   7.411   9.145
15764TIP3    H114363   0.781   7.391   9.051
15764TIP3    H214364   0.694   7.426   9.169
15765TIP3   OH214365   0.556   7.552   9.185
15765TIP3    H114366   0.479   7.523   9.237
15765TIP3    H214367   0.519   7.570   9.096
15766TIP3   OH214368   0.101   5.736   9.247
15766TIP3    H114369   0.164   5.792   9.295
15766TIP3    H214370   0.085   5.661   9.307
15767TIP3   OH214371   1.479   7.559   9.415
15767TIP3    H114372   1.563   7.589   9.456
15767TIP3    H214373   1.493   7.592   9.324
15768TIP3   OH214374   1.248   7.500   9.521
15768TIP3    H114375   1.339   7.519   9.485
15768TIP3    H214376   1.249   7.562   9.595
15769TIP3   OH214377   0.729   7.473   9.620
15769TIP3    H114378   0.805   7.505   9.669
15769TIP3    H214379   0.724   7.544   9.552
15770TIP3   OH214380   0.563   7.334   9.442
15770TIP3    H114381   0.628   7.370   9.506
15770TIP3    H214382   0.486   7.388   9.469
15771TIP3   OH214383   0.271   7.473   9.483
15771TIP3    H114384   0.255   7.563   9.516
15771TIP3    H214385   0.223   7.422   9.551
15772TIP3   OH214386   1.514   7.400   9.713
15772TIP3    H114387   1.534   7.333   9.644
15772TIP3    H214388   1.425   7.371   9.745
15773TIP3   OH214389   1.293   7.313   9.849
15773TIP3    H114390   1.305   7.217   9.836
15773TIP3    H214391   1.206   7.322   9.805
15774TIP3   OH214392   1.067   7.297   9.709
15774TIP3    H114393   1.040   7.204   9.725
15774TIP3    H214394   1.060   7.301   9.612
15775TIP3   OH214395   0.726   5.853   9.876
15775TIP3    H114396   0.802   5.838   9.817
15775TIP3    H214397   0.696   5.762   9.893
15776TIP3   OH214398   0.194   5.673   9.842
15776TIP3    H114399   0.150   5.737   9.903
15776TIP3    H214400   0.288   5.697   9.861
15777TIP3   OH214401   0.075   5.827  10.037
15777TIP3    H114402   0.004   5.775  10.082
15777TIP3    H214403   0.019   5.901  10.003
15778TIP3   OH214404   1.483   5.740  10.054
15778TIP3    H114405   1.567   5.719  10.099
15778TIP3    H214406   1.435   5.655  10.062
15779TIP3   OH214407   1.616   5.726  10.486
15779TIP3    H114408   1.572   5.787  10.549
15779TIP3    H214409   1.647   5.786  10.415
15780TIP3   OH214410   1.047   5.714  10.051
15780TIP3    H114411   0.971   5.737  10.105
15780TIP3    H214412   1.020   5.747   9.963
15781TIP3   OH214413   0.436   5.757   9.932
15781TIP3    H114414   0.455   5.781  10.023
15781TIP3    H214415   0.490   5.675   9.922
15782TIP3   OH214416   0.386   5.775  10.363
15782TIP3    H114417   0.464   5.834  10.351
15782TIP3    H214418   0.420   5.688  10.334
15783TIP3   OH214419   1.652   7.330  10.398
15783TIP3    H114420   1.709   7.324  10.476
15783TIP3    H214421   1.606   7.415  10.416
15784TIP3   OH214422   1.449   5.886  10.635
15784TIP3    H114423   1.376   5.895  10.697
15784TIP3    H214424   1.409   5.931  10.559
15785TIP3   OH214425   0.934   5.953  10.408
15785TIP3    H114426   0.877   5.890  10.362
15785TIP3    H214427   0.891   6.036  10.377
15786TIP3   OH214428   0.736   7.470  10.590
15786TIP3    H114429   0.642   7.464  10.619
15786TIP3    H214430   0.739   7.392  10.530
15787TIP3   OH214431   0.072   7.355  10.275
15787TIP3    H114432   0.010   7.303  10.329
15787TIP3    H214433   0.095   7.422  10.343
15788TIP3   OH214434   1.502   5.807   9.133
15788TIP3    H114435   1.557   5.728   9.123
15788TIP3    H214436   1.430   5.790   9.067
15789TIP3   OH214437   1.311   5.752   8.941
15789TIP3    H114438   1.232   5.705   8.971
15789TIP3    H214439   1.353   5.684   8.885
15790TIP3   OH214440   0.464   5.669   8.918
15790TIP3    H114441   0.451   5.627   8.830
15790TIP3    H214442   0.373   5.652   8.955
15791TIP3   OH214443   0.137   7.277   9.079
15791TIP3    H114444   0.197   7.252   9.152
15791TIP3    H214445   0.159   7.371   9.066
15792TIP3   OH214446   8.113   8.534  10.086
15792TIP3    H114447   8.125   8.630  10.080
15792TIP3    H214448   8.178   8.514  10.155
15793TIP3   OH214449   8.211   8.450   9.716
15793TIP3    H114450   8.184   8.405   9.632
15793TIP3    H214451   8.265   8.378   9.754
15794TIP3   OH214452   8.964   8.444   9.591
15794TIP3    H114453   8.986   8.357   9.552
15794TIP3    H214454   8.886   8.470   9.540
15795TIP3   OH214455   7.878   8.712   9.886
15795TIP3    H114456   7.881   8.653   9.809
15795TIP3    H214457   7.876   8.799   9.846
15796TIP3   OH214458   8.946   8.867   9.736
15796TIP3    H114459   8.952   8.777   9.778
15796TIP3    H214460   8.852   8.873   9.717
15797TIP3   OH214461   9.213   8.240  10.217
15797TIP3    H114462   9.192   8.331  10.184
15797TIP3    H214463   9.276   8.212  10.151
15798TIP3   OH214464   9.118   8.431  10.048
15798TIP3    H114465   9.093   8.367   9.978
15798TIP3    H214466   9.097   8.515  10.005
15799TIP3   OH214467   8.145   9.243   9.804
15799TIP3    H114468   8.095   9.192   9.872
15799TIP3    H214469   8.167   9.169   9.745
15800TIP3   OH214470   8.376   8.675   9.663
15800TIP3    H114471   8.328   8.597   9.700
15800TIP3    H214472   8.303   8.738   9.650
15801TIP3   OH214473   7.523   7.853   9.650
15801TIP3    H114474   7.513   7.907   9.568
15801TIP3    H214475   7.443   7.881   9.699
15802TIP3   OH214476   8.025   8.163   9.642
15802TIP3    H114477   8.016   8.066   9.637
15802TIP3    H214478   8.084   8.169   9.719
15803TIP3   OH214479   8.757   7.964   9.941
15803TIP3    H114480   8.725   8.039   9.995
15803TIP3    H214481   8.782   7.903  10.013
15804TIP3   OH214482   8.004   7.975  10.059
15804TIP3    H114483   7.945   7.937   9.989
15804TIP3    H214484   7.946   8.043  10.097
15805TIP3   OH214485   9.073   8.224   9.863
15805TIP3    H114486   9.002   8.174   9.818
15805TIP3    H214487   9.083   8.172   9.945
15806TIP3   OH214488   8.585   8.359   9.917
15806TIP3    H114489   8.512   8.311   9.874
15806TIP3    H214490   8.624   8.289   9.973
15807TIP3   OH214491   7.518   8.001   9.411
15807TIP3    H114492   7.555   8.082   9.451
15807TIP3    H214493   7.508   8.032   9.319
15808TIP3   OH214494   8.839   7.860   9.527
15808TIP3    H114495   8.885   7.904   9.601
15808TIP3    H214496   8.902   7.881   9.454
15809TIP3   OH214497   8.176   8.798  10.176
15809TIP3    H114498   8.227   8.791  10.259
15809TIP3    H214499   8.194   8.891  10.155
15810TIP3   OH214500   8.616   8.637   9.557
15810TIP3    H114501   8.669   8.718   9.541
15810TIP3    H214502   8.533   8.673   9.597
15811TIP3   OH214503   7.816   7.924   9.874
15811TIP3    H114504   7.776   7.840   9.850
15811TIP3    H214505   7.776   7.985   9.809
15812TIP3   OH214506   8.893   8.059   9.738
15812TIP3    H114507   8.827   8.115   9.691
15812TIP3    H214508   8.837   8.021   9.811
15813TIP3   OH214509   8.758   8.841   9.459
15813TIP3    H114510   8.754   8.939   9.470
15813TIP3    H214511   8.852   8.831   9.433
15814TIP3   OH214512   9.171   8.837  10.354
15814TIP3    H114513   9.183   8.918  10.406
15814TIP3    H214514   9.128   8.873  10.274
15815TIP3   OH214515   7.797   8.989   9.640
15815TIP3    H114516   7.894   8.984   9.644
15815TIP3    H214517   7.784   9.079   9.676
15816TIP3   OH214518   7.815   7.795   9.552
15816TIP3    H114519   7.885   7.853   9.590
15816TIP3    H214520   7.736   7.818   9.603
15817TIP3   OH214521   8.513   7.600   9.811
15817TIP3    H114522   8.541   7.508   9.804
15817TIP3    H214523   8.595   7.645   9.776
15818TIP3   OH214524   8.002   9.117   9.997
15818TIP3    H114525   7.972   9.037  10.047
15818TIP3    H214526   7.926   9.178  10.019
15819TIP3   OH214527   7.881   8.916  10.152
15819TIP3    H114528   7.868   8.858  10.230
15819TIP3    H214529   7.867   8.853  10.080
15820TIP3   OH214530   7.700   8.799   9.285
15820TIP3    H114531   7.692   8.730   9.355
15820TIP3    H214532   7.680   8.881   9.336
15821TIP3   OH214533   8.240   8.465  10.317
15821TIP3    H114534   8.293   8.539  10.354
15821TIP3    H214535   8.161   8.466  10.376
15822TIP3   OH214536   7.502   8.433   9.502
15822TIP3    H114537   7.555   8.513   9.482
15822TIP3    H214538   7.449   8.470   9.577
15823TIP3   OH214539   7.859   8.492  10.203
15823TIP3    H114540   7.939   8.513  10.150
15823TIP3    H214541   7.809   8.435  10.141
15824TIP3   OH214542   7.900   8.346   9.328
15824TIP3    H114543   7.896   8.433   9.285
15824TIP3    H214544   7.977   8.360   9.388
15825TIP3   OH214545   8.737   8.557  10.043
15825TIP3    H114546   8.744   8.520  10.132
15825TIP3    H214547   8.674   8.494  10.000
15826TIP3   OH214548   8.613   8.891   9.780
15826TIP3    H114549   8.623   8.895   9.878
15826TIP3    H214550   8.538   8.831   9.766
15827TIP3   OH214551   8.708   8.421   9.689
15827TIP3    H114552   8.669   8.431   9.778
15827TIP3    H214553   8.660   8.490   9.637
15828TIP3   OH214554   8.086   9.012   9.597
15828TIP3    H114555   8.107   9.068   9.521
15828TIP3    H214556   8.102   8.922   9.560
15829TIP3   OH214557   8.621   8.846   9.221
15829TIP3    H114558   8.685   8.903   9.173
15829TIP3    H214559   8.667   8.831   9.307
15830TIP3   OH214560   8.001   8.437  10.439
15830TIP3    H114561   7.938   8.472  10.372
15830TIP3    H214562   7.969   8.478  10.521
15831TIP3   OH214563   8.903   8.491   9.305
15831TIP3    H114564   8.896   8.559   9.235
15831TIP3    H214565   8.996   8.466   9.293
15832TIP3   OH214566   8.251   9.090  10.169
15832TIP3    H114567   8.192   9.111  10.095
15832TIP3    H214568   8.308   9.168  10.174
15833TIP3   OH214569   8.787   9.047   9.128
15833TIP3    H114570   8.813   9.049   9.222
15833TIP3    H214571   8.875   9.024   9.090
15834TIP3   OH214572   7.650   7.581  10.441
15834TIP3    H114573   7.746   7.591  10.422
15834TIP3    H214574   7.629   7.673  10.464
15835TIP3   OH214575   8.847   8.444  10.336
15835TIP3    H114576   8.893   8.524  10.307
15835TIP3    H214577   8.891   8.372  10.288
15836TIP3   OH214578   9.199   8.702   9.375
15836TIP3    H114579   9.259   8.720   9.450
15836TIP3    H214580   9.222   8.610   9.351
15837TIP3   OH214581   9.211   8.961   9.768
15837TIP3    H114582   9.125   8.918   9.786
15837TIP3    H214583   9.186   9.026   9.700
15838TIP3   OH214584   7.445   9.054   9.098
15838TIP3    H114585   7.456   8.957   9.085
15838TIP3    H214586   7.536   9.083   9.075
15839TIP3   OH214587   8.362   8.997   9.245
15839TIP3    H114588   8.364   9.073   9.183
15839TIP3    H214589   8.448   8.954   9.234
15840TIP3   OH214590   8.906   9.221  10.108
15840TIP3    H114591   8.914   9.199  10.012
15840TIP3    H214592   8.964   9.151  10.145
15841TIP3   OH214593   8.000   9.262  10.293
15841TIP3    H114594   8.097   9.274  10.295
15841TIP3    H214595   7.985   9.190  10.230
15842TIP3   OH214596   7.730   8.162   9.104
15842TIP3    H114597   7.784   8.211   9.169
15842TIP3    H214598   7.738   8.072   9.143
15843TIP3   OH214599   9.003   8.891   9.320
15843TIP3    H114600   8.995   8.870   9.226
15843TIP3    H214601   9.069   8.823   9.344
15844TIP3   OH214602   8.730   7.717   9.719
15844TIP3    H114603   8.822   7.694   9.745
15844TIP3    H214604   8.747   7.777   9.644
15845TIP3   OH214605   8.237   7.653   9.383
15845TIP3    H114606   8.190   7.603   9.312
15845TIP3    H214607   8.329   7.651   9.350
15846TIP3   OH214608   7.974   8.067   9.306
15846TIP3    H114609   8.037   8.033   9.237
15846TIP3    H214610   7.969   8.160   9.277
15847TIP3   OH214611   8.724   8.184   9.577
15847TIP3    H114612   8.782   8.212   9.502
15847TIP3    H214613   8.711   8.271   9.622
15848TIP3   OH214614   8.721   8.176  10.105
15848TIP3    H114615   8.814   8.147  10.122
15848TIP3    H214616   8.674   8.169  10.189
15849TIP3   OH214617   8.177   8.206  10.250
15849TIP3    H114618   8.195   8.302  10.257
15849TIP3    H214619   8.102   8.193  10.309
15850TIP3   OH214620   8.267   8.277   9.080
15850TIP3    H114621   8.318   8.203   9.041
15850TIP3    H214622   8.190   8.278   9.020
15851TIP3   OH214623   8.105   8.204   9.909
15851TIP3    H114624   8.099   8.290   9.956
15851TIP3    H214625   8.097   8.140   9.983
15852TIP3   OH214626   8.998   8.203   9.442
15852TIP3    H114627   8.946   8.223   9.363
15852TIP3    H214628   9.009   8.105   9.438
15853TIP3   OH214629   9.237   7.919   9.978
15853TIP3    H114630   9.156   7.913   9.925
15853TIP3    H214631   9.207   7.926  10.070
15854TIP3   OH214632   9.207   8.024  10.480
15854TIP3    H114633   9.169   8.027  10.570
15854TIP3    H214634   9.190   8.115  10.451
15855TIP3   OH214635   8.145   8.348   9.487
15855TIP3    H114636   8.095   8.271   9.525
15855TIP3    H214637   8.211   8.300   9.431
15856TIP3   OH214638   8.447   7.960   9.970
15856TIP3    H114639   8.533   7.947   9.926
15856TIP3    H214640   8.392   7.887   9.934
15857TIP3   OH214641   8.990   8.087  10.110
15857TIP3    H114642   9.058   8.105  10.178
15857TIP3    H214643   8.952   8.002  10.141
15858TIP3   OH214644   8.039   7.879   9.683
15858TIP3    H114645   8.112   7.844   9.629
15858TIP3    H214646   8.035   7.815   9.757
15859TIP3   OH214647   8.943   8.706   9.101
15859TIP3    H114648   8.891   8.721   9.020
15859TIP3    H214649   9.030   8.683   9.062
15860TIP3   OH214650   8.351   8.205   9.792
15860TIP3    H114651   8.279   8.188   9.856
15860TIP3    H214652   8.390   8.117   9.783
15861TIP3   OH214653   8.848   7.830  10.155
15861TIP3    H114654   8.917   7.766  10.123
15861TIP3    H214655   8.777   7.767  10.177
15862TIP3   OH214656   8.509   8.034   9.575
15862TIP3    H114657   8.587   8.091   9.590
15862TIP3    H214658   8.447   8.093   9.530
15863TIP3   OH214659   8.396   8.691  10.380
15863TIP3    H114660   8.470   8.650  10.427
15863TIP3    H214661   8.439   8.711  10.293
15864TIP3   OH214662   7.680   8.626   9.481
15864TIP3    H114663   7.638   8.668   9.560
15864TIP3    H214664   7.770   8.618   9.516
15865TIP3   OH214665   8.280   8.702   9.261
15865TIP3    H114666   8.307   8.656   9.181
15865TIP3    H214667   8.317   8.791   9.247
15866TIP3   OH214668   7.935   8.110  10.430
15866TIP3    H114669   7.881   8.151  10.360
15866TIP3    H214670   7.953   8.182  10.491
15867TIP3   OH214671   8.929   8.630   9.862
15867TIP3    H114672   8.870   8.613   9.939
15867TIP3    H214673   8.892   8.567   9.797
15868TIP3   OH214674   9.217   8.450   9.289
15868TIP3    H114675   9.194   8.400   9.209
15868TIP3    H214676   9.226   8.381   9.358
15869TIP3   OH214677   8.529   8.401   9.120
15869TIP3    H114678   8.592   8.348   9.171
15869TIP3    H214679   8.446   8.351   9.133
15870TIP3   OH214680   8.014   8.970   9.268
15870TIP3    H114681   8.096   8.970   9.317
15870TIP3    H214682   8.046   9.006   9.183
15871TIP3   OH214683   7.544   8.159  10.403
15871TIP3    H114684   7.552   8.143  10.500
15871TIP3    H214685   7.530   8.255  10.399
15872TIP3   OH214686   7.455   8.780   9.155
15872TIP3    H114687   7.546   8.792   9.193
15872TIP3    H214688   7.402   8.767   9.236
15873TIP3   OH214689   7.919   8.540   9.677
15873TIP3    H114690   8.011   8.523   9.702
15873TIP3    H214691   7.873   8.470   9.726
15874TIP3   OH214692   8.680   8.939  10.038
15874TIP3    H114693   8.636   9.018  10.077
15874TIP3    H214694   8.769   8.949  10.074
15875TIP3   OH214695   9.091   8.488  10.617
15875TIP3    H114696   9.001   8.473  10.585
15875TIP3    H214697   9.141   8.514  10.538
15876TIP3   OH214698   8.520   8.742  10.140
15876TIP3    H114699   8.568   8.824  10.113
15876TIP3    H214700   8.560   8.675  10.083
15877TIP3   OH214701   8.490   9.199   9.499
15877TIP3    H114702   8.481   9.288   9.459
15877TIP3    H214703   8.417   9.150   9.457
15878TIP3   OH214704   8.638   9.179  10.145
15878TIP3    H114705   8.730   9.210  10.134
15878TIP3    H214706   8.594   9.263  10.119
15879TIP3   OH214707   8.138   8.737   9.510
15879TIP3    H114708   8.186   8.710   9.427
15879TIP3    H214709   8.095   8.653   9.534
15880TIP3   OH214710   7.834   9.221   9.303
15880TIP3    H114711   7.913   9.164   9.312
15880TIP3    H214712   7.858   9.300   9.353
15881TIP3   OH214713   9.029   7.932   9.338
15881TIP3    H114714   9.062   7.976   9.257
15881TIP3    H214715   9.062   7.841   9.324
15882TIP3   OH214716   7.817   8.689  10.376
15882TIP3    H114717   7.830   8.617  10.310
15882TIP3    H214718   7.720   8.694  10.383
15883TIP3   OH214719   9.074   9.106   9.528
15883TIP3    H114720   9.015   9.028   9.522
15883TIP3    H214721   9.100   9.116   9.435
15884TIP3   OH214722   8.625   8.906  10.518
15884TIP3    H114723   8.543   8.861  10.491
15884TIP3    H214724   8.615   8.996  10.484
15885TIP3   OH214725   8.195   7.934   9.410
15885TIP3    H114726   8.101   7.956   9.398
15885TIP3    H214727   8.201   7.839   9.387
15886TIP3   OH214728   8.055   7.861  10.292
15886TIP3    H114729   8.068   7.921  10.367
15886TIP3    H214730   8.033   7.924  10.219
15887TIP3   OH214731   8.337   9.070  10.493
15887TIP3    H114732   8.427   9.091  10.462
15887TIP3    H214733   8.286   9.118  10.426
15888TIP3   OH214734   8.415   8.039  10.241
15888TIP3    H114735   8.336   8.095  10.244
15888TIP3    H214736   8.427   8.020  10.146
15889TIP3   OH214737   8.282   8.180   9.340
15889TIP3    H114738   8.267   8.192   9.244
15889TIP3    H214739   8.254   8.088   9.361
15890TIP3   OH214740   8.293   7.740  10.191
15890TIP3    H114741   8.320   7.800  10.120
15890TIP3    H214742   8.206   7.781  10.214
15891TIP3   OH214743   8.577   9.179  10.436
15891TIP3    H114744   8.617   9.249  10.491
15891TIP3    H214745   8.632   9.185  10.355
15892TIP3   OH214746   7.729   7.937   9.249
15892TIP3    H114747   7.822   7.958   9.271
15892TIP3    H214748   7.687   7.932   9.337
15893TIP3   OH214749   7.835   8.287   9.875
15893TIP3    H114750   7.908   8.227   9.853
15893TIP3    H214751   7.765   8.251   9.816
15894TIP3   OH214752   9.084   8.192  10.654
15894TIP3    H114753   9.087   8.287  10.672
15894TIP3    H214754   9.061   8.155  10.740
15895TIP3   OH214755   7.778   9.262   9.658
15895TIP3    H114756   7.770   9.327   9.731
15895TIP3    H214757   7.687   9.266   9.623
15896TIP3   OH214758   8.984   7.647   9.782
15896TIP3    H114759   8.992   7.629   9.878
15896TIP3    H214760   9.024   7.565   9.745
15897TIP3   OH214761   9.088   9.032  10.159
15897TIP3    H114762   9.148   9.072  10.094
15897TIP3    H214763   9.120   9.077  10.240
15898TIP3   OH214764   9.157   9.300   9.016
15898TIP3    H114765   9.103   9.274   8.938
15898TIP3    H214766   9.178   9.213   9.052
15899TIP3   OH214767   8.659   9.155   8.872
15899TIP3    H114768   8.578   9.103   8.862
15899TIP3    H214769   8.683   9.133   8.964
15900TIP3   OH214770   8.081   9.058   9.005
15900TIP3    H114771   8.094   8.963   8.981
15900TIP3    H214772   7.992   9.074   8.968
15901TIP3   OH214773   9.192   8.702   8.986
15901TIP3    H114774   9.199   8.610   8.954
15901TIP3    H214775   9.279   8.707   9.032
15902TIP3   OH214776   8.518   8.662   9.050
15902TIP3    H114777   8.559   8.718   9.121
15902TIP3    H214778   8.508   8.573   9.093
15903TIP3   OH214779   7.950   8.674   9.247
15903TIP3    H114780   7.873   8.735   9.242
15903TIP3    H214781   8.019   8.739   9.267
15904TIP3   OH214782   9.088   8.389   9.008
15904TIP3    H114783   9.036   8.312   8.981
15904TIP3    H214784   9.090   8.436   8.923
15905TIP3   OH214785   8.632   8.540  10.469
15905TIP3    H114786   8.709   8.504  10.419
15905TIP3    H214787   8.623   8.475  10.542
15906TIP3   OH214788   8.724   8.308   9.335
15906TIP3    H114789   8.780   8.388   9.322
15906TIP3    H214790   8.646   8.348   9.378
15907TIP3   OH214791   8.512   8.351  10.691
15907TIP3    H114792   8.494   8.352  10.788
15907TIP3    H214793   8.420   8.345  10.662
15908TIP3   OH214794   8.171   8.557   8.927
15908TIP3    H114795   8.088   8.515   8.953
15908TIP3    H214796   8.207   8.493   8.862
15909TIP3   OH214797   7.730   8.602  10.773
15909TIP3    H114798   7.699   8.576  10.861
15909TIP3    H214799   7.651   8.609  10.719
15910TIP3   OH214800   8.613   8.091   9.222
15910TIP3    H114801   8.596   8.020   9.287
15910TIP3    H214802   8.636   8.167   9.280
15911TIP3   OH214803   8.598   7.861   9.397
15911TIP3    H114804   8.573   7.904   9.483
15911TIP3    H214805   8.695   7.855   9.410
15912TIP3   OH214806   8.495   8.446   9.428
15912TIP3    H114807   8.406   8.474   9.449
15912TIP3    H214808   8.545   8.524   9.459
15913TIP3   OH214809   8.069   8.230   8.890
15913TIP3    H114810   8.052   8.139   8.857
15913TIP3    H214811   7.979   8.265   8.891
15914TIP3   OH214812   7.882   8.512   9.039
15914TIP3    H114813   7.922   8.564   9.113
15914TIP3    H214814   7.790   8.506   9.072
15915TIP3   OH214815   8.761   8.123   8.985
15915TIP3    H114816   8.853   8.093   8.996
15915TIP3    H214817   8.725   8.119   9.076
15916TIP3   OH214818   8.513   7.614   9.363
15916TIP3    H114819   8.535   7.710   9.367
15916TIP3    H214820   8.591   7.578   9.408
15917TIP3   OH214821   8.413   8.068   8.984
15917TIP3    H114822   8.482   8.063   8.914
15917TIP3    H214823   8.467   8.040   9.060
15918TIP3   OH214824   8.143   7.989   9.102
15918TIP3    H114825   8.233   7.994   9.067
15918TIP3    H214826   8.103   7.927   9.036
15919TIP3   OH214827   8.038   7.812   8.936
15919TIP3    H114828   8.004   7.724   8.910
15919TIP3    H214829   8.021   7.869   8.858
15920TIP3   OH214830   8.994   7.971   9.013
15920TIP3    H114831   9.003   7.883   9.054
15920TIP3    H214832   9.009   7.948   8.918
15921TIP3   OH214833   8.545   7.555   9.102
15921TIP3    H114834   8.468   7.496   9.095
15921TIP3    H214835   8.538   7.575   9.198
15922TIP3   OH214836   8.532   7.685   8.838
15922TIP3    H114837   8.545   7.644   8.926
15922TIP3    H214838   8.555   7.778   8.860
15923TIP3   OH214839   9.205   9.207   9.934
15923TIP3    H114840   9.250   9.134   9.886
15923TIP3    H214841   9.165   9.256   9.859
15924TIP3   OH214842   7.517   9.325   9.615
15924TIP3    H114843   7.442   9.345   9.555
15924TIP3    H214844   7.527   9.409   9.663
15925TIP3   OH214845   7.472   9.215   9.353
15925TIP3    H114846   7.512   9.150   9.413
15925TIP3    H214847   7.458   9.163   9.273
15926TIP3   OH214848   7.658   8.838   8.885
15926TIP3    H114849   7.735   8.842   8.824
15926TIP3    H214850   7.611   8.923   8.865
15927TIP3   OH214851   7.545   8.655  10.371
15927TIP3    H114852   7.467   8.714  10.357
15927TIP3    H214853   7.534   8.593  10.296
15928TIP3   OH214854   7.477   8.474  10.164
15928TIP3    H114855   7.561   8.436  10.128
15928TIP3    H214856   7.423   8.484  10.082
15929TIP3   OH214857   7.550   8.725   9.689
15929TIP3    H114858   7.472   8.666   9.703
15929TIP3    H214859   7.512   8.812   9.711
15930TIP3   OH214860   7.653   9.025   9.425
15930TIP3    H114861   7.712   9.085   9.376
15930TIP3    H214862   7.705   9.011   9.508
15931TIP3   OH214863   7.604   8.182  10.680
15931TIP3    H114864   7.591   8.240  10.757
15931TIP3    H214865   7.685   8.137  10.710
15932TIP3   OH214866   7.678   8.316  10.094
15932TIP3    H114867   7.702   8.229  10.134
15932TIP3    H214868   7.725   8.311  10.007
15933TIP3   OH214869   9.184   8.548   9.704
15933TIP3    H114870   9.193   8.515   9.794
15933TIP3    H214871   9.092   8.520   9.678
15934TIP3   OH214872   7.600   8.517   9.116
15934TIP3    H114873   7.554   8.430   9.113
15934TIP3    H214874   7.533   8.574   9.160
15935TIP3   OH214875   7.493   8.277   9.021
15935TIP3    H114876   7.572   8.237   9.064
15935TIP3    H214877   7.424   8.213   9.051
15936TIP3   OH214878   7.737   8.100  10.231
15936TIP3    H114879   7.739   8.003  10.223
15936TIP3    H214880   7.658   8.107  10.288
15937TIP3   OH214881   7.669   8.138   9.713
15937TIP3    H114882   7.571   8.150   9.709
15937TIP3    H214883   7.689   8.155   9.619
15938TIP3   OH214884   7.664   8.219   9.454
15938TIP3    H114885   7.751   8.251   9.422
15938TIP3    H214886   7.617   8.304   9.472
15939TIP3   OH214887   9.231   8.084   9.022
15939TIP3    H114888   9.136   8.058   9.015
15939TIP3    H214889   9.274   7.999   9.031
15940TIP3   OH214890   7.461   7.648   8.928
15940TIP3    H114891   7.415   7.573   8.971
15940TIP3    H214892   7.459   7.715   8.999
15941TIP3   OH214893   7.663   7.841  10.234
15941TIP3    H114894   7.639   7.791  10.153
15941TIP3    H214895   7.734   7.790  10.273
15942TIP3   OH214896   9.092   7.890   9.729
15942TIP3    H114897   9.062   7.800   9.755
15942TIP3    H214898   9.013   7.947   9.743
15943TIP3   OH214899   9.258   8.169   9.665
15943TIP3    H114900   9.192   8.155   9.736
15943TIP3    H214901   9.249   8.264   9.648
15944TIP3   OH214902   7.507   7.864   9.078
15944TIP3    H114903   7.575   7.878   9.010
15944TIP3    H214904   7.558   7.826   9.152
15945TIP3   OH214905   9.244   7.836  10.288
15945TIP3    H114906   9.341   7.833  10.294
15945TIP3    H214907   9.225   7.885  10.370
15946TIP3   OH214908   7.792   9.261  10.071
15946TIP3    H114909   7.720   9.250  10.137
15946TIP3    H214910   7.757   9.329  10.011
15947TIP3   OH214911   9.260   7.677   9.454
15947TIP3    H114912   9.305   7.672   9.369
15947TIP3    H214913   9.307   7.750   9.499
15948TIP3   OH214914   9.051   8.987   9.029
15948TIP3    H114915   9.103   8.904   9.032
15948TIP3    H214916   9.075   9.028   8.945
15949TIP3   OH214917   8.750   9.100   9.412
15949TIP3    H114918   8.765   9.194   9.429
15949TIP3    H214919   8.653   9.094   9.413
15950TIP3   OH214920   8.353   9.226   9.105
15950TIP3    H114921   8.355   9.194   9.012
15950TIP3    H214922   8.257   9.233   9.118
15951TIP3   OH214923   7.596   7.600   9.264
15951TIP3    H114924   7.671   7.639   9.309
15951TIP3    H214925   7.592   7.511   9.305
15952TIP3   OH214926   8.098   9.231   9.418
15952TIP3    H114927   8.160   9.299   9.453
15952TIP3    H214928   8.027   9.244   9.483
15953TIP3   OH214929   9.055   9.291   9.729
15953TIP3    H114930   9.087   9.265   9.640
15953TIP3    H214931   8.997   9.215   9.753
15954TIP3   OH214932   8.881   9.128   9.855
15954TIP3    H114933   8.880   9.035   9.827
15954TIP3    H214934   8.798   9.159   9.813
15955TIP3   OH214935   8.646   9.158   9.722
15955TIP3    H114936   8.627   9.062   9.732
15955TIP3    H214937   8.590   9.182   9.646
15956TIP3   OH214938   8.304   7.733   9.905
15956TIP3    H114939   8.384   7.689   9.869
15956TIP3    H214940   8.241   7.661   9.904
15957TIP3   OH214941   7.723   7.574   9.849
15957TIP3    H114942   7.655   7.629   9.894
15957TIP3    H214943   7.808   7.610   9.886
15958TIP3   OH214944   7.553   7.692  10.025
15958TIP3    H114945   7.487   7.632  10.068
15958TIP3    H214946   7.496   7.770  10.003
15959TIP3   OH214947   8.993   7.627  10.064
15959TIP3    H114948   9.078   7.609  10.109
15959TIP3    H214949   8.948   7.539  10.074
15960TIP3   OH214950   9.079   7.615  10.471
15960TIP3    H114951   9.092   7.648  10.565
15960TIP3    H214952   9.145   7.668  10.425
15961TIP3   OH214953   8.567   7.624  10.093
15961TIP3    H114954   8.480   7.648  10.129
15961TIP3    H214955   8.547   7.615   9.999
15962TIP3   OH214956   7.980   7.633   9.942
15962TIP3    H114957   8.021   7.652  10.027
15962TIP3    H214958   8.017   7.544   9.921
15963TIP3   OH214959   7.898   7.656  10.375
15963TIP3    H114960   7.961   7.728  10.348
15963TIP3    H214961   7.935   7.578  10.327
15964TIP3   OH214962   9.146   9.173  10.392
15964TIP3    H114963   9.233   9.202  10.360
15964TIP3    H214964   9.110   9.260  10.424
15965TIP3   OH214965   8.464   7.822  10.412
15965TIP3    H114966   8.433   7.769  10.337
15965TIP3    H214967   8.429   7.909  10.385
15966TIP3   OH214968   8.241   9.332  10.392
15966TIP3    H114969   8.172   9.365  10.451
15966TIP3    H214970   8.320   9.356  10.441
15967TIP3   OH214971   7.600   9.243  10.275
15967TIP3    H114972   7.608   9.183  10.351
15967TIP3    H214973   7.591   9.329  10.322
15968TIP3   OH214974   9.051   7.686   9.131
15968TIP3    H114975   9.112   7.611   9.110
15968TIP3    H214976   8.967   7.653   9.093
15969TIP3   OH214977   8.835   7.639   8.948
15969TIP3    H114978   8.764   7.585   8.986
15969TIP3    H214979   8.874   7.576   8.886
15970TIP3   OH214980   7.989   7.547   8.899
15970TIP3    H114981   7.976   7.506   8.811
15970TIP3    H214982   7.902   7.531   8.941
15971TIP3   OH214983   7.683   9.167   9.073
15971TIP3    H114984   7.734   9.177   9.157
15971TIP3    H214985   7.635   9.251   9.071
15972TIP3   OH214986   6.193   8.563  10.105
15972TIP3    H114987   6.202   8.661  10.093
15972TIP3    H214988   6.275   8.549  10.155
15973TIP3   OH214989   6.339   8.436   9.751
15973TIP3    H114990   6.323   8.392   9.666
15973TIP3    H214991   6.400   8.372   9.794
15974TIP3   OH214992   7.123   8.434   9.610
15974TIP3    H114993   7.119   8.360   9.547
15974TIP3    H214994   7.060   8.495   9.568
15975TIP3   OH214995   5.996   8.719   9.868
15975TIP3    H114996   5.990   8.658   9.792
15975TIP3    H214997   5.987   8.805   9.824
15976TIP3   OH214998   7.007   8.895   9.749
15976TIP3    H114999   7.038   8.803   9.768
15976TIP3    H215000   6.912   8.878   9.764
15977TIP3   OH215001   7.341   8.221  10.206
15977TIP3    H115002   7.374   8.310  10.186
15977TIP3    H215003   7.424   8.172  10.202
15978TIP3   OH215004   7.293   8.483   9.960
15978TIP3    H115005   7.245   8.403   9.930
15978TIP3    H215006   7.225   8.551   9.955
15979TIP3   OH215007   6.260   9.247   9.791
15979TIP3    H115008   6.202   9.216   9.863
15979TIP3    H215009   6.271   9.162   9.745
15980TIP3   OH215010   6.495   8.678   9.652
15980TIP3    H115011   6.465   8.626   9.729
15980TIP3    H215012   6.413   8.724   9.627
15981TIP3   OH215013   5.646   7.876   9.677
15981TIP3    H115014   5.637   7.923   9.591
15981TIP3    H215015   5.555   7.884   9.710
15982TIP3   OH215016   6.143   8.165   9.659
15982TIP3    H115017   6.122   8.071   9.641
15982TIP3    H215018   6.191   8.153   9.744
15983TIP3   OH215019   6.870   7.944   9.954
15983TIP3    H115020   6.847   8.024  10.007
15983TIP3    H215021   6.904   7.886  10.026
15984TIP3   OH215022   6.095   7.972  10.072
15984TIP3    H115023   6.041   7.942   9.996
15984TIP3    H215024   6.036   8.034  10.116
15985TIP3   OH215025   7.204   8.239   9.864
15985TIP3    H115026   7.152   8.193   9.796
15985TIP3    H215027   7.179   8.189   9.944
15986TIP3   OH215028   6.718   8.354   9.910
15986TIP3    H115029   6.637   8.308   9.878
15986TIP3    H215030   6.752   8.287   9.973
15987TIP3   OH215031   5.628   8.000   9.413
15987TIP3    H115032   5.663   8.083   9.452
15987TIP3    H215033   5.614   8.029   9.321
15988TIP3   OH215034   6.960   7.864   9.525
15988TIP3    H115035   7.000   7.907   9.604
15988TIP3    H215036   7.024   7.893   9.456
15989TIP3   OH215037   6.253   8.813  10.158
15989TIP3    H115038   6.264   8.798  10.255
15989TIP3    H215039   6.292   8.901  10.150
15990TIP3   OH215040   6.753   8.631   9.576
15990TIP3    H115041   6.803   8.710   9.546
15990TIP3    H215042   6.667   8.671   9.602
15991TIP3   OH215043   5.906   7.968   9.853
15991TIP3    H115044   5.839   7.899   9.860
15991TIP3    H215045   5.865   8.028   9.786
15992TIP3   OH215046   7.014   8.045   9.735
15992TIP3    H115047   6.955   8.112   9.694
15992TIP3    H215048   6.962   8.019   9.813
15993TIP3   OH215049   6.870   8.834   9.456
15993TIP3    H115050   6.875   8.931   9.470
15993TIP3    H215051   6.962   8.816   9.428
15994TIP3   OH215052   7.308   8.774  10.362
15994TIP3    H115053   7.320   8.806  10.455
15994TIP3    H215054   7.279   8.856  10.318
15995TIP3   OH215055   5.927   8.968   9.661
15995TIP3    H115056   6.021   8.989   9.641
15995TIP3    H215057   5.901   9.052   9.705
15996TIP3   OH215058   5.917   7.777   9.557
15996TIP3    H115059   5.999   7.804   9.603
15996TIP3    H215060   5.848   7.816   9.612
15997TIP3   OH215061   6.614   7.603   9.795
15997TIP3    H115062   6.638   7.509   9.787
15997TIP3    H215063   6.698   7.645   9.760
15998TIP3   OH215064   6.104   9.145   9.982
15998TIP3    H115065   6.091   9.065  10.036
15998TIP3    H215066   6.029   9.200  10.017
15999TIP3   OH215067   5.985   8.930  10.176
15999TIP3    H115068   5.994   8.858  10.242
15999TIP3    H215069   5.996   8.880  10.095
16000TIP3   OH215070   5.812   8.800   9.303
16000TIP3    H115071   5.820   8.734   9.375
16000TIP3    H215072   5.794   8.881   9.355
16001TIP3   OH215073   6.372   8.440  10.338
16001TIP3    H115074   6.443   8.506  10.340
16001TIP3    H215075   6.304   8.479  10.395
16002TIP3   OH215076   5.617   8.443   9.494
16002TIP3    H115077   5.685   8.515   9.494
16002TIP3    H215078   5.558   8.477   9.566
16003TIP3   OH215079   5.976   8.462  10.227
16003TIP3    H115080   6.050   8.499  10.173
16003TIP3    H215081   5.918   8.429  10.156
16004TIP3   OH215082   6.003   8.332   9.320
16004TIP3    H115083   5.999   8.422   9.285
16004TIP3    H215084   6.081   8.341   9.377
16005TIP3   OH215085   6.890   8.535  10.048
16005TIP3    H115086   6.873   8.513  10.140
16005TIP3    H215087   6.821   8.483  10.003
16006TIP3   OH215088   6.734   8.885   9.810
16006TIP3    H115089   6.721   8.903   9.905
16006TIP3    H215090   6.656   8.831   9.786
16007TIP3   OH215091   6.839   8.407   9.676
16007TIP3    H115092   6.799   8.413   9.766
16007TIP3    H215093   6.803   8.489   9.635
16008TIP3   OH215094   6.188   9.001   9.590
16008TIP3    H115095   6.246   9.048   9.527
16008TIP3    H215096   6.195   8.908   9.558
16009TIP3   OH215097   6.723   8.857   9.222
16009TIP3    H115098   6.787   8.916   9.177
16009TIP3    H215099   6.766   8.845   9.309
16010TIP3   OH215100   6.111   8.444  10.448
16010TIP3    H115101   6.080   8.447  10.355
16010TIP3    H215102   6.046   8.500  10.491
16011TIP3   OH215103   7.033   8.500   9.342
16011TIP3    H115104   7.009   8.584   9.299
16011TIP3    H215105   7.093   8.464   9.276
16012TIP3   OH215106   6.336   9.108  10.156
16012TIP3    H115107   6.288   9.152  10.083
16012TIP3    H215108   6.398   9.174  10.188
16013TIP3   OH215109   6.908   9.049   9.134
16013TIP3    H115110   6.926   9.064   9.229
16013TIP3    H215111   6.991   9.005   9.104
16014TIP3   OH215112   6.980   8.453  10.313
16014TIP3    H115113   7.036   8.521  10.271
16014TIP3    H215114   6.986   8.374  10.258
16015TIP3   OH215115   5.643   9.057  10.652
16015TIP3    H115116   5.587   9.138  10.647
16015TIP3    H215117   5.575   8.987  10.652
16016TIP3   OH215118   7.325   8.709   9.380
16016TIP3    H115119   7.361   8.704   9.470
16016TIP3    H215120   7.297   8.615   9.366
16017TIP3   OH215121   7.373   8.983   9.692
16017TIP3    H115122   7.278   8.985   9.711
16017TIP3    H215123   7.381   9.059   9.633
16018TIP3   OH215124   5.561   9.049   9.115
16018TIP3    H115125   5.575   8.956   9.089
16018TIP3    H215126   5.651   9.085   9.095
16019TIP3   OH215127   6.480   9.011   9.279
16019TIP3    H115128   6.470   9.076   9.207
16019TIP3    H215129   6.553   8.955   9.249
16020TIP3   OH215130   7.025   9.224  10.088
16020TIP3    H115131   7.007   9.211   9.992
16020TIP3    H215132   7.096   9.159  10.105
16021TIP3   OH215133   5.975   9.243  10.509
16021TIP3    H115134   6.036   9.270  10.582
16021TIP3    H215135   6.037   9.248  10.435
16022TIP3   OH215136   6.156   9.299  10.274
16022TIP3    H115137   6.232   9.285  10.333
16022TIP3    H215138   6.133   9.209  10.248
16023TIP3   OH215139   5.850   8.169   9.102
16023TIP3    H115140   5.901   8.206   9.175
16023TIP3    H215141   5.845   8.074   9.127
16024TIP3   OH215142   7.099   8.834   9.310
16024TIP3    H115143   7.097   8.808   9.215
16024TIP3    H215144   7.188   8.799   9.334
16025TIP3   OH215145   6.832   7.709   9.694
16025TIP3    H115146   6.916   7.712   9.743
16025TIP3    H215147   6.860   7.754   9.612
16026TIP3   OH215148   6.342   7.661   9.403
16026TIP3    H115149   6.304   7.620   9.321
16026TIP3    H215150   6.437   7.664   9.381
16027TIP3   OH215151   6.074   8.061   9.294
16027TIP3    H115152   6.136   8.031   9.222
16027TIP3    H215153   6.056   8.152   9.265
16028TIP3   OH215154   6.840   8.169   9.575
16028TIP3    H115155   6.916   8.181   9.514
16028TIP3    H215156   6.832   8.261   9.610
16029TIP3   OH215157   6.849   8.171  10.093
16029TIP3    H115158   6.946   8.163  10.106
16029TIP3    H215159   6.817   8.151  10.184
16030TIP3   OH215160   6.266   8.216  10.228
16030TIP3    H115161   6.302   8.301  10.265
16030TIP3    H215162   6.230   8.169  10.305
16031TIP3   OH215163   6.379   8.263   9.060
16031TIP3    H115164   6.424   8.186   9.018
16031TIP3    H215165   6.297   8.266   9.007
16032TIP3   OH215166   6.227   8.192   9.922
16032TIP3    H115167   6.208   8.281   9.958
16032TIP3    H215168   6.197   8.138   9.997
16033TIP3   OH215169   7.090   8.196   9.456
16033TIP3    H115170   7.053   8.223   9.370
16033TIP3    H215171   7.120   8.104   9.435
16034TIP3   OH215172   7.394   7.902  10.003
16034TIP3    H115173   7.320   7.909   9.941
16034TIP3    H215174   7.351   7.895  10.090
16035TIP3   OH215175   7.327   7.985  10.474
16035TIP3    H115176   7.248   8.027  10.509
16035TIP3    H215177   7.380   8.060  10.440
16036TIP3   OH215178   6.274   8.347   9.489
16036TIP3    H115179   6.216   8.281   9.533
16036TIP3    H215180   6.331   8.291   9.432
16037TIP3   OH215181   6.548   7.913   9.998
16037TIP3    H115182   6.634   7.918   9.954
16037TIP3    H215183   6.486   7.889   9.926
16038TIP3   OH215184   7.108   8.103  10.111
16038TIP3    H115185   7.186   8.120  10.169
16038TIP3    H215186   7.082   8.012  10.131
16039TIP3   OH215187   6.757   8.141  10.345
16039TIP3    H115188   6.694   8.084  10.297
16039TIP3    H215189   6.692   8.203  10.381
16040TIP3   OH215190   6.154   7.870   9.674
16040TIP3    H115191   6.243   7.865   9.635
16040TIP3    H215192   6.165   7.818   9.756
16041TIP3   OH215193   6.873   8.291  10.630
16041TIP3    H115194   6.935   8.237  10.680
16041TIP3    H215195   6.824   8.225  10.576
16042TIP3   OH215196   7.069   8.677   9.077
16042TIP3    H115197   7.005   8.707   9.010
16042TIP3    H215198   7.147   8.658   9.021
16043TIP3   OH215199   6.478   8.207   9.821
16043TIP3    H115200   6.395   8.184   9.869
16043TIP3    H215201   6.489   8.132   9.760
16044TIP3   OH215202   6.993   7.814  10.161
16044TIP3    H115203   7.057   7.756  10.114
16044TIP3    H215204   6.934   7.747  10.200
16045TIP3   OH215205   6.597   8.031   9.571
16045TIP3    H115206   6.676   8.085   9.588
16045TIP3    H215207   6.543   8.088   9.515
16046TIP3   OH215208   6.535   8.665  10.370
16046TIP3    H115209   6.614   8.614  10.400
16046TIP3    H215210   6.575   8.707  10.290
16047TIP3   OH215211   5.809   8.627   9.505
16047TIP3    H115212   5.766   8.672   9.582
16047TIP3    H215213   5.896   8.608   9.546
16048TIP3   OH215214   6.137   7.921  10.511
16048TIP3    H115215   6.170   7.863  10.581
16048TIP3    H215216   6.135   8.007  10.553
16049TIP3   OH215217   6.387   8.700   9.235
16049TIP3    H115218   6.429   8.661   9.157
16049TIP3    H215219   6.433   8.784   9.244
16050TIP3   OH215220   6.036   8.180  10.404
16050TIP3    H115221   5.973   8.151  10.335
16050TIP3    H215222   6.044   8.274  10.384
16051TIP3   OH215223   7.019   8.635   9.814
16051TIP3    H115224   6.973   8.614   9.898
16051TIP3    H215225   7.013   8.548   9.769
16052TIP3   OH215226   6.302   8.782  10.420
16052TIP3    H115227   6.339   8.872  10.435
16052TIP3    H215228   6.388   8.735  10.413
16053TIP3   OH215229   7.345   8.457   9.267
16053TIP3    H115230   7.328   8.387   9.201
16053TIP3    H215231   7.390   8.409   9.339
16054TIP3   OH215232   6.615   8.405   9.119
16054TIP3    H115233   6.656   8.337   9.174
16054TIP3    H215234   6.523   8.371   9.116
16055TIP3   OH215235   6.135   8.963   9.266
16055TIP3    H115236   6.211   8.975   9.323
16055TIP3    H215237   6.173   8.992   9.181
16056TIP3   OH215238   5.621   8.192  10.389
16056TIP3    H115239   5.598   8.159  10.476
16056TIP3    H215240   5.587   8.283  10.394
16057TIP3   OH215241   5.576   8.771   9.164
16057TIP3    H115242   5.663   8.790   9.207
16057TIP3    H215243   5.517   8.764   9.242
16058TIP3   OH215244   5.705   9.020  10.395
16058TIP3    H115245   5.774   8.962  10.363
16058TIP3    H215246   5.717   9.023  10.492
16059TIP3   OH215247   6.033   8.528   9.669
16059TIP3    H115248   6.124   8.518   9.701
16059TIP3    H215249   5.990   8.454   9.714
16060TIP3   OH215250   6.786   8.969  10.070
16060TIP3    H115251   6.749   9.054  10.106
16060TIP3    H215252   6.870   8.968  10.117
16061TIP3   OH215253   6.673   8.741  10.148
16061TIP3    H115254   6.708   8.832  10.138
16061TIP3    H215255   6.687   8.705  10.059
16062TIP3   OH215256   6.597   9.185   9.463
16062TIP3    H115257   6.591   9.279   9.434
16062TIP3    H215258   6.537   9.139   9.401
16063TIP3   OH215259   6.741   9.210  10.167
16063TIP3    H115260   6.837   9.222  10.168
16063TIP3    H215261   6.716   9.297  10.130
16064TIP3   OH215262   6.261   8.732   9.503
16064TIP3    H115263   6.297   8.706   9.415
16064TIP3    H215264   6.216   8.651   9.531
16065TIP3   OH215265   5.966   9.214   9.276
16065TIP3    H115266   6.043   9.154   9.289
16065TIP3    H215267   5.992   9.293   9.325
16066TIP3   OH215268   5.563   9.316  10.577
16066TIP3    H115269   5.504   9.391  10.562
16066TIP3    H215270   5.647   9.346  10.537
16067TIP3   OH215271   7.136   7.952   9.323
16067TIP3    H115272   7.203   7.993   9.264
16067TIP3    H215273   7.149   7.859   9.297
16068TIP3   OH215274   5.934   8.701  10.350
16068TIP3    H115275   5.945   8.616  10.302
16068TIP3    H215276   5.837   8.699  10.363
16069TIP3   OH215277   7.172   9.115   9.483
16069TIP3    H115278   7.127   9.028   9.483
16069TIP3    H215279   7.137   9.158   9.403
16070TIP3   OH215280   6.308   7.948   9.412
16070TIP3    H115281   6.213   7.962   9.392
16070TIP3    H215282   6.320   7.852   9.398
16071TIP3   OH215283   6.232   7.860  10.269
16071TIP3    H115284   6.188   7.891  10.351
16071TIP3    H215285   6.177   7.903  10.200
16072TIP3   OH215286   6.448   9.013  10.434
16072TIP3    H115287   6.538   9.023  10.470
16072TIP3    H215288   6.423   9.104  10.410
16073TIP3   OH215289   6.514   8.094  10.202
16073TIP3    H115290   6.423   8.132  10.202
16073TIP3    H215291   6.509   8.023  10.135
16074TIP3   OH215292   6.409   8.180   9.321
16074TIP3    H115293   6.395   8.193   9.224
16074TIP3    H215294   6.376   8.089   9.340
16075TIP3   OH215295   6.409   7.706  10.137
16075TIP3    H115296   6.472   7.778  10.117
16075TIP3    H215297   6.335   7.761  10.173
16076TIP3   OH215298   5.836   7.941   9.250
16076TIP3    H115299   5.931   7.957   9.269
16076TIP3    H215300   5.797   7.947   9.339
16077TIP3   OH215301   5.962   8.289   9.836
16077TIP3    H115302   6.031   8.237   9.790
16077TIP3    H215303   5.882   8.255   9.790
16078TIP3   OH215304   7.016   8.931  10.611
16078TIP3    H115305   6.965   8.982  10.545
16078TIP3    H215306   6.958   8.947  10.687
16079TIP3   OH215307   5.879   9.236   9.682
16079TIP3    H115308   5.883   9.311   9.746
16079TIP3    H215309   5.788   9.252   9.647
16080TIP3   OH215310   7.094   7.659   9.766
16080TIP3    H115311   7.099   7.633   9.861
16080TIP3    H215312   7.116   7.574   9.722
16081TIP3   OH215313   7.214   9.045  10.212
16081TIP3    H115314   7.298   9.073  10.174
16081TIP3    H215315   7.219   9.101  10.294
16082TIP3   OH215316   7.307   9.289   9.053
16082TIP3    H115317   7.229   9.265   8.998
16082TIP3    H215318   7.351   9.202   9.064
16083TIP3   OH215319   6.781   9.155   8.857
16083TIP3    H115320   6.696   9.110   8.844
16083TIP3    H215321   6.800   9.133   8.950
16084TIP3   OH215322   6.200   9.053   9.002
16084TIP3    H115323   6.207   8.962   8.964
16084TIP3    H215324   6.110   9.075   8.971
16085TIP3   OH215325   5.956   9.036  10.775
16085TIP3    H115326   5.983   9.088  10.698
16085TIP3    H215327   5.870   9.073  10.797
16086TIP3   OH215328   7.319   8.651   8.963
16086TIP3    H115329   7.361   8.565   8.980
16086TIP3    H215330   7.361   8.707   9.033
16087TIP3   OH215331   6.636   8.662   9.057
16087TIP3    H115332   6.674   8.722   9.125
16087TIP3    H215333   6.638   8.573   9.102
16088TIP3   OH215334   6.063   8.666   9.252
16088TIP3    H115335   5.981   8.719   9.245
16088TIP3    H215336   6.127   8.739   9.246
16089TIP3   OH215337   7.172   8.360   9.013
16089TIP3    H115338   7.126   8.290   8.965
16089TIP3    H215339   7.163   8.434   8.950
16090TIP3   OH215340   6.750   8.520  10.467
16090TIP3    H115341   6.820   8.502  10.401
16090TIP3    H215342   6.781   8.466  10.541
16091TIP3   OH215343   6.838   8.308   9.324
16091TIP3    H115344   6.904   8.380   9.324
16091TIP3    H215345   6.766   8.349   9.377
16092TIP3   OH215346   6.288   8.562   8.929
16092TIP3    H115347   6.227   8.518   8.990
16092TIP3    H215348   6.313   8.492   8.867
16093TIP3   OH215349   6.717   8.086   9.211
16093TIP3    H115350   6.708   8.016   9.278
16093TIP3    H215351   6.740   8.164   9.265
16094TIP3   OH215352   6.718   7.870   9.400
16094TIP3    H115353   6.671   7.912   9.476
16094TIP3    H215354   6.810   7.873   9.433
16095TIP3   OH215355   6.606   8.460   9.415
16095TIP3    H115356   6.516   8.481   9.445
16095TIP3    H215357   6.659   8.526   9.463
16096TIP3   OH215358   6.182   8.228   8.875
16096TIP3    H115359   6.174   8.141   8.830
16096TIP3    H215360   6.091   8.245   8.901
16097TIP3   OH215361   5.998   8.512   9.038
16097TIP3    H115362   6.036   8.560   9.114
16097TIP3    H215363   5.905   8.502   9.069
16098TIP3   OH215364   6.911   8.133   8.988
16098TIP3    H115365   6.992   8.090   9.024
16098TIP3    H215366   6.854   8.135   9.067
16099TIP3   OH215367   6.625   7.625   9.394
16099TIP3    H115368   6.661   7.716   9.386
16099TIP3    H215369   6.702   7.577   9.427
16100TIP3   OH215370   6.525   8.046   8.982
16100TIP3    H115371   6.590   8.039   8.910
16100TIP3    H215372   6.585   8.036   9.058
16101TIP3   OH215373   6.234   7.987   9.096
16101TIP3    H115374   6.328   7.975   9.079
16101TIP3    H215375   6.198   7.924   9.029
16102TIP3   OH215376   6.152   7.805   8.925
16102TIP3    H115377   6.107   7.721   8.903
16102TIP3    H215378   6.133   7.862   8.848
16103TIP3   OH215379   7.126   7.966   9.003
16103TIP3    H115380   7.143   7.881   9.048
16103TIP3    H215381   7.131   7.938   8.908
16104TIP3   OH215382   6.658   7.559   9.119
16104TIP3    H115383   6.591   7.486   9.114
16104TIP3    H215384   6.649   7.582   9.213
16105TIP3   OH215385   6.650   7.686   8.846
16105TIP3    H115386   6.656   7.643   8.934
16105TIP3    H215387   6.667   7.779   8.871
16106TIP3   OH215388   7.293   8.853  10.618
16106TIP3    H115389   7.197   8.874  10.604
16106TIP3    H215390   7.304   8.870  10.712
16107TIP3   OH215391   7.317   9.212   9.943
16107TIP3    H115392   7.382   9.168   9.886
16107TIP3    H215393   7.265   9.260   9.876
16108TIP3   OH215394   5.630   9.314   9.615
16108TIP3    H115395   5.559   9.325   9.548
16108TIP3    H215396   5.625   9.397   9.664
16109TIP3   OH215397   5.596   9.213   9.349
16109TIP3    H115398   5.643   9.153   9.411
16109TIP3    H215399   5.563   9.149   9.282
16110TIP3   OH215400   5.769   8.838   8.888
16110TIP3    H115401   5.850   8.843   8.833
16110TIP3    H215402   5.722   8.922   8.865
16111TIP3   OH215403   5.652   8.651  10.350
16111TIP3    H115404   5.571   8.706  10.358
16111TIP3    H215405   5.634   8.605  10.264
16112TIP3   OH215406   5.599   8.489  10.138
16112TIP3    H115407   5.676   8.433  10.116
16112TIP3    H215408   5.547   8.478  10.056
16113TIP3   OH215409   5.663   8.732   9.695
16113TIP3    H115410   5.592   8.665   9.708
16113TIP3    H215411   5.613   8.815   9.709
16114TIP3   OH215412   5.771   9.030   9.435
16114TIP3    H115413   5.833   9.086   9.385
16114TIP3    H215414   5.822   9.013   9.517
16115TIP3   OH215415   5.554   8.458  10.505
16115TIP3    H115416   5.596   8.494  10.584
16115TIP3    H215417   5.591   8.520  10.437
16116TIP3   OH215418   5.810   8.344  10.051
16116TIP3    H115419   5.836   8.255  10.081
16116TIP3    H215420   5.852   8.344   9.962
16117TIP3   OH215421   7.341   8.546   9.688
16117TIP3    H115422   7.352   8.515   9.780
16117TIP3    H215423   7.248   8.516   9.672
16118TIP3   OH215424   5.724   8.520   9.129
16118TIP3    H115425   5.669   8.438   9.127
16118TIP3    H215426   5.659   8.588   9.156
16119TIP3   OH215427   5.608   8.285   9.055
16119TIP3    H115428   5.688   8.232   9.078
16119TIP3    H215429   5.535   8.219   9.066
16120TIP3   OH215430   5.843   8.095  10.230
16120TIP3    H115431   5.837   7.998  10.226
16120TIP3    H215432   5.766   8.112  10.289
16121TIP3   OH215433   5.773   8.150   9.692
16121TIP3    H115434   5.674   8.152   9.702
16121TIP3    H215435   5.779   8.171   9.596
16122TIP3   OH215436   5.770   8.223   9.436
16122TIP3    H115437   5.858   8.252   9.405
16122TIP3    H215438   5.728   8.309   9.462
16123TIP3   OH215439   7.345   8.070   9.115
16123TIP3    H115440   7.265   8.041   9.066
16123TIP3    H215441   7.405   7.992   9.098
16124TIP3   OH215442   5.573   7.648   8.931
16124TIP3    H115443   5.523   7.576   8.974
16124TIP3    H215444   5.571   7.718   9.001
16125TIP3   OH215445   5.783   7.828  10.268
16125TIP3    H115446   5.752   7.791  10.183
16125TIP3    H215447   5.849   7.759  10.289
16126TIP3   OH215448   7.245   7.886   9.735
16126TIP3    H115449   7.198   7.799   9.741
16126TIP3    H215450   7.171   7.949   9.741
16127TIP3   OH215451   7.409   8.200   9.688
16127TIP3    H115452   7.352   8.179   9.764
16127TIP3    H215453   7.358   8.271   9.648
16128TIP3   OH215454   5.632   7.863   9.082
16128TIP3    H115455   5.700   7.880   9.013
16128TIP3    H215456   5.688   7.829   9.155
16129TIP3   OH215457   7.368   7.824  10.265
16129TIP3    H115458   7.465   7.836  10.259
16129TIP3    H215459   7.352   7.869  10.351
16130TIP3   OH215460   5.898   9.281  10.078
16130TIP3    H115461   5.821   9.258  10.134
16130TIP3    H215462   5.855   9.321  10.000
16131TIP3   OH215463   7.382   7.671   9.455
16131TIP3    H115464   7.447   7.648   9.386
16131TIP3    H215465   7.429   7.731   9.515
16132TIP3   OH215466   7.162   8.972   9.036
16132TIP3    H115467   7.249   8.992   9.074
16132TIP3    H215468   7.171   9.011   8.948
16133TIP3   OH215469   6.860   9.098   9.404
16133TIP3    H115470   6.876   9.189   9.430
16133TIP3    H215471   6.762   9.093   9.410
16134TIP3   OH215472   6.470   9.229   9.107
16134TIP3    H115473   6.475   9.204   9.013
16134TIP3    H215474   6.377   9.257   9.112
16135TIP3   OH215475   5.712   7.600   9.271
16135TIP3    H115476   5.793   7.628   9.315
16135TIP3    H215477   5.700   7.509   9.308
16136TIP3   OH215478   6.213   9.233   9.411
16136TIP3    H115479   6.276   9.294   9.453
16136TIP3    H215480   6.141   9.238   9.475
16137TIP3   OH215481   7.179   9.268   9.710
16137TIP3    H115482   7.188   9.244   9.615
16137TIP3    H215483   7.104   9.209   9.739
16138TIP3   OH215484   6.973   9.155   9.836
16138TIP3    H115485   6.978   9.058   9.826
16138TIP3    H215486   6.882   9.171   9.800
16139TIP3   OH215487   6.736   9.154   9.712
16139TIP3    H115488   6.719   9.060   9.730
16139TIP3    H215489   6.687   9.172   9.630
16140TIP3   OH215490   6.391   7.770   9.833
16140TIP3    H115491   6.479   7.733   9.813
16140TIP3    H215492   6.360   7.709   9.901
16141TIP3   OH215493   5.843   7.579   9.856
16141TIP3    H115494   5.773   7.639   9.889
16141TIP3    H215495   5.921   7.616   9.901
16142TIP3   OH215496   5.684   7.723  10.019
16142TIP3    H115497   5.623   7.658  10.059
16142TIP3    H215498   5.622   7.796   9.997
16143TIP3   OH215499   7.130   7.610  10.041
16143TIP3    H115500   7.221   7.602  10.076
16143TIP3    H215501   7.094   7.520  10.062
16144TIP3   OH215502   7.290   7.618  10.454
16144TIP3    H115503   7.264   7.700  10.409
16144TIP3    H215504   7.364   7.590  10.397
16145TIP3   OH215505   6.709   7.588  10.075
16145TIP3    H115506   6.646   7.632  10.133
16145TIP3    H215507   6.669   7.601   9.987
16146TIP3   OH215508   6.119   7.635   9.960
16146TIP3    H115509   6.133   7.626  10.055
16146TIP3    H215510   6.163   7.555   9.924
16147TIP3   OH215511   5.931   7.605  10.329
16147TIP3    H115512   5.962   7.638  10.415
16147TIP3    H215513   5.991   7.527  10.327
16148TIP3   OH215514   7.295   9.223  10.399
16148TIP3    H115515   7.370   9.181  10.445
16148TIP3    H215516   7.245   9.260  10.474
16149TIP3   OH215517   6.608   7.841  10.349
16149TIP3    H115518   6.540   7.779  10.324
16149TIP3    H215519   6.555   7.908  10.396
16150TIP3   OH215520   6.381   9.294  10.439
16150TIP3    H115521   6.349   9.385  10.438
16150TIP3    H215522   6.372   9.271  10.533
16151TIP3   OH215523   5.702   9.248  10.263
16151TIP3    H115524   5.713   9.164  10.313
16151TIP3    H215525   5.730   9.317  10.325
16152TIP3   OH215526   7.165   7.694   9.138
16152TIP3    H115527   7.216   7.613   9.121
16152TIP3    H215528   7.088   7.682   9.078
16153TIP3   OH215529   6.966   7.635   8.949
16153TIP3    H115530   6.889   7.582   8.976
16153TIP3    H215531   7.015   7.572   8.893
16154TIP3   OH215532   7.125   9.265  10.637
16154TIP3    H115533   7.123   9.358  10.662
16154TIP3    H215534   7.032   9.241  10.649
16155TIP3   OH215535   6.102   7.544   8.890
16155TIP3    H115536   6.089   7.500   8.804
16155TIP3    H215537   6.016   7.528   8.934
16156TIP3   OH215538   5.795   9.167   9.073
16156TIP3    H115539   5.853   9.179   9.152
16156TIP3    H215540   5.747   9.251   9.075
16157TIP3   OH215541   4.325   8.555  10.074
16157TIP3    H115542   4.330   8.644  10.034
16157TIP3    H215543   4.397   8.561  10.138
16158TIP3   OH215544   4.438   8.442   9.741
16158TIP3    H115545   4.434   8.399   9.653
16158TIP3    H215546   4.507   8.388   9.786
16159TIP3   OH215547   5.239   8.437   9.618
16159TIP3    H115548   5.239   8.365   9.554
16159TIP3    H215549   5.183   8.501   9.570
16160TIP3   OH215550   4.090   8.751   9.896
16160TIP3    H115551   4.095   8.691   9.819
16160TIP3    H215552   4.073   8.834   9.852
16161TIP3   OH215553   5.141   8.906   9.777
16161TIP3    H115554   5.169   8.812   9.784
16161TIP3    H215555   5.045   8.888   9.773
16162TIP3   OH215556   5.454   8.181  10.183
16162TIP3    H115557   5.465   8.274  10.160
16162TIP3    H215558   5.521   8.169  10.253
16163TIP3   OH215559   5.417   8.450   9.922
16163TIP3    H115560   5.364   8.367   9.911
16163TIP3    H215561   5.355   8.507   9.970
16164TIP3   OH215562   4.363   9.255   9.802
16164TIP3    H115563   4.299   9.220   9.868
16164TIP3    H215564   4.388   9.172   9.759
16165TIP3   OH215565   4.609   8.685   9.657
16165TIP3    H115566   4.579   8.636   9.735
16165TIP3    H215567   4.526   8.729   9.630
16166TIP3   OH215568   3.760   7.857   9.652
16166TIP3    H115569   3.750   7.912   9.571
16166TIP3    H215570   3.677   7.880   9.698
16167TIP3   OH215571   4.261   8.157   9.628
16167TIP3    H115572   4.245   8.061   9.629
16167TIP3    H215573   4.290   8.168   9.721
16168TIP3   OH215574   4.969   7.931   9.956
16168TIP3    H115575   4.961   8.018  10.002
16168TIP3    H215576   5.017   7.882  10.025
16169TIP3   OH215577   4.202   7.961  10.083
16169TIP3    H115578   4.161   7.938   9.998
16169TIP3    H215579   4.147   8.035  10.112
16170TIP3   OH215580   5.311   8.204   9.875
16170TIP3    H115581   5.249   8.168   9.809
16170TIP3    H215582   5.278   8.162   9.957
16171TIP3   OH215583   4.829   8.356   9.916
16171TIP3    H115584   4.748   8.306   9.893
16171TIP3    H215585   4.871   8.290   9.976
16172TIP3   OH215586   3.739   8.000   9.413
16172TIP3    H115587   3.770   8.086   9.450
16172TIP3    H215588   3.728   8.026   9.320
16173TIP3   OH215589   5.058   7.869   9.529
16173TIP3    H115590   5.107   7.913   9.601
16173TIP3    H215591   5.120   7.881   9.454
16174TIP3   OH215592   4.401   8.829  10.175
16174TIP3    H115593   4.441   8.821  10.263
16174TIP3    H215594   4.424   8.920  10.150
16175TIP3   OH215595   4.854   8.620   9.552
16175TIP3    H115596   4.913   8.697   9.537
16175TIP3    H215597   4.776   8.664   9.593
16176TIP3   OH215598   4.032   7.965   9.845
16176TIP3    H115599   3.992   7.881   9.818
16176TIP3    H215600   3.980   8.028   9.788
16177TIP3   OH215601   5.125   8.053   9.736
16177TIP3    H115602   5.063   8.116   9.691
16177TIP3    H215603   5.069   8.022   9.811
16178TIP3   OH215604   4.987   8.830   9.449
16178TIP3    H115605   4.990   8.924   9.476
16178TIP3    H215606   5.079   8.818   9.414
16179TIP3   OH215607   5.409   8.779  10.358
16179TIP3    H115608   5.403   8.843  10.432
16179TIP3    H215609   5.387   8.836  10.281
16180TIP3   OH215610   4.035   8.968   9.639
16180TIP3    H115611   4.132   8.967   9.628
16180TIP3    H215612   4.022   9.059   9.673
16181TIP3   OH215613   4.043   7.796   9.546
16181TIP3    H115614   4.117   7.845   9.589
16181TIP3    H215615   3.965   7.819   9.598
16182TIP3   OH215616   4.729   7.604   9.789
16182TIP3    H115617   4.754   7.511   9.797
16182TIP3    H215618   4.814   7.644   9.756
16183TIP3   OH215619   4.199   9.146  10.001
16183TIP3    H115620   4.173   9.064  10.048
16183TIP3    H215621   4.129   9.208  10.032
16184TIP3   OH215622   4.092   8.911  10.158
16184TIP3    H115623   4.077   8.845  10.229
16184TIP3    H215624   4.108   8.852  10.082
16185TIP3   OH215625   3.931   8.800   9.297
16185TIP3    H115626   3.932   8.733   9.370
16185TIP3    H215627   3.912   8.880   9.350
16186TIP3   OH215628   4.465   8.476  10.344
16186TIP3    H115629   4.537   8.541  10.364
16186TIP3    H215630   4.453   8.438  10.432
16187TIP3   OH215631   4.401   8.327  10.622
16187TIP3    H115632   4.349   8.267  10.567
16187TIP3    H215633   4.461   8.262  10.665
16188TIP3   OH215634   3.728   8.436   9.506
16188TIP3    H115635   3.787   8.514   9.496
16188TIP3    H215636   3.669   8.470   9.577
16189TIP3   OH215637   4.078   8.528  10.204
16189TIP3    H115638   4.164   8.528  10.155
16189TIP3    H215639   4.025   8.473  10.141
16190TIP3   OH215640   4.121   8.341   9.319
16190TIP3    H115641   4.118   8.430   9.280
16190TIP3    H215642   4.195   8.352   9.381
16191TIP3   OH215643   4.982   8.550  10.042
16191TIP3    H115644   5.022   8.527  10.129
16191TIP3    H215645   4.916   8.479  10.030
16192TIP3   OH215646   4.842   8.892   9.776
16192TIP3    H115647   4.849   8.899   9.873
16192TIP3    H215648   4.764   8.837   9.760
16193TIP3   OH215649   4.947   8.410   9.676
16193TIP3    H115650   4.905   8.414   9.765
16193TIP3    H215651   4.904   8.486   9.631
16194TIP3   OH215652   4.307   8.991   9.601
16194TIP3    H115653   4.350   9.056   9.543
16194TIP3    H215654   4.328   8.907   9.556
16195TIP3   OH215655   4.836   8.860   9.223
16195TIP3    H115656   4.903   8.918   9.179
16195TIP3    H215657   4.880   8.843   9.310
16196TIP3   OH215658   4.186   8.421  10.435
16196TIP3    H115659   4.160   8.468  10.353
16196TIP3    H215660   4.210   8.493  10.494
16197TIP3   OH215661   5.144   8.518   9.356
16197TIP3    H115662   5.130   8.603   9.312
16197TIP3    H215663   5.197   8.472   9.289
16198TIP3   OH215664   4.475   9.131  10.149
16198TIP3    H115665   4.425   9.157  10.070
16198TIP3    H215666   4.550   9.192  10.148
16199TIP3   OH215667   5.023   9.044   9.134
16199TIP3    H115668   5.048   9.060   9.227
16199TIP3    H215669   5.105   9.001   9.100
16200TIP3   OH215670   3.872   7.594  10.427
16200TIP3    H115671   3.955   7.645  10.431
16200TIP3    H215672   3.815   7.642  10.489
16201TIP3   OH215673   5.099   8.435  10.257
16201TIP3    H115674   5.143   8.508  10.304
16201TIP3    H215675   5.068   8.381  10.330
16202TIP3   OH215676   3.746   8.989  10.605
16202TIP3    H115677   3.736   9.082  10.631
16202TIP3    H215678   3.690   8.947  10.673
16203TIP3   OH215679   5.428   8.700   9.377
16203TIP3    H115680   5.476   8.690   9.461
16203TIP3    H215681   5.418   8.605   9.352
16204TIP3   OH215682   5.478   8.983   9.717
16204TIP3    H115683   5.385   8.973   9.738
16204TIP3    H215684   5.474   9.052   9.650
16205TIP3   OH215685   3.676   9.056   9.124
16205TIP3    H115686   3.685   8.960   9.105
16205TIP3    H215687   3.764   9.088   9.095
16206TIP3   OH215688   4.592   9.004   9.277
16206TIP3    H115689   4.582   9.073   9.208
16206TIP3    H215690   4.671   8.954   9.249
16207TIP3   OH215691   5.130   9.227  10.089
16207TIP3    H115692   5.113   9.231   9.992
16207TIP3    H215693   5.204   9.163  10.091
16208TIP3   OH215694   4.275   9.256  10.293
16208TIP3    H115695   4.348   9.220  10.241
16208TIP3    H215696   4.197   9.211  10.257
16209TIP3   OH215697   3.961   8.163   9.105
16209TIP3    H115698   4.018   8.210   9.168
16209TIP3    H215699   3.965   8.073   9.144
16210TIP3   OH215700   5.214   8.843   9.307
16210TIP3    H115701   5.210   8.809   9.214
16210TIP3    H215702   5.300   8.803   9.336
16211TIP3   OH215703   4.955   7.699   9.700
16211TIP3    H115704   5.040   7.712   9.747
16211TIP3    H215705   4.972   7.752   9.619
16212TIP3   OH215706   4.458   7.637   9.390
16212TIP3    H115707   4.416   7.601   9.308
16212TIP3    H215708   4.553   7.646   9.364
16213TIP3   OH215709   4.197   8.072   9.311
16213TIP3    H115710   4.255   8.054   9.232
16213TIP3    H215711   4.213   8.166   9.329
16214TIP3   OH215712   4.477   7.919  10.590
16214TIP3    H115713   4.545   7.870  10.540
16214TIP3    H215714   4.476   7.877  10.677
16215TIP3   OH215715   4.942   8.169   9.579
16215TIP3    H115716   5.022   8.175   9.523
16215TIP3    H215717   4.941   8.262   9.616
16216TIP3   OH215718   4.951   8.169  10.071
16216TIP3    H115719   5.046   8.180  10.089
16216TIP3    H215720   4.915   8.153  10.162
16217TIP3   OH215721   4.380   8.265  10.197
16217TIP3    H115722   4.414   8.344  10.246
16217TIP3    H215723   4.317   8.226  10.259
16218TIP3   OH215724   4.495   8.266   9.070
16218TIP3    H115725   4.542   8.187   9.036
16218TIP3    H215726   4.414   8.264   9.014
16219TIP3   OH215727   4.296   8.218   9.889
16219TIP3    H115728   4.317   8.307   9.924
16219TIP3    H215729   4.310   8.165   9.969
16220TIP3   OH215730   5.190   8.180   9.455
16220TIP3    H115731   5.162   8.220   9.371
16220TIP3    H215732   5.223   8.093   9.424
16221TIP3   OH215733   5.494   7.930   9.986
16221TIP3    H115734   5.441   7.923   9.905
16221TIP3    H215735   5.488   8.024  10.009
16222TIP3   OH215736   4.381   8.353   9.490
16222TIP3    H115737   4.328   8.280   9.530
16222TIP3    H215738   4.446   8.304   9.434
16223TIP3   OH215739   4.693   7.969   9.994
16223TIP3    H115740   4.786   7.950   9.970
16223TIP3    H215741   4.643   7.904   9.940
16224TIP3   OH215742   5.216   8.088  10.105
16224TIP3    H115743   5.289   8.122  10.162
16224TIP3    H215744   5.194   8.001  10.146
16225TIP3   OH215745   4.877   8.127  10.337
16225TIP3    H115746   4.780   8.134  10.341
16225TIP3    H215747   4.903   8.198  10.401
16226TIP3   OH215748   4.270   7.875   9.672
16226TIP3    H115749   4.348   7.829   9.637
16226TIP3    H215750   4.260   7.834   9.760
16227TIP3   OH215751   5.184   8.676   9.075
16227TIP3    H115752   5.120   8.707   9.007
16227TIP3    H215753   5.262   8.655   9.020
16228TIP3   OH215754   4.596   8.222   9.816
16228TIP3    H115755   4.524   8.181   9.866
16228TIP3    H215756   4.628   8.148   9.762
16229TIP3   OH215757   5.117   7.841  10.174
16229TIP3    H115758   5.165   7.771  10.124
16229TIP3    H215759   5.073   7.788  10.242
16230TIP3   OH215760   4.703   8.032   9.587
16230TIP3    H115761   4.782   8.087   9.598
16230TIP3    H215762   4.652   8.082   9.522
16231TIP3   OH215763   4.671   8.636  10.396
16231TIP3    H115764   4.748   8.584  10.422
16231TIP3    H215765   4.704   8.689  10.321
16232TIP3   OH215766   3.918   8.624   9.494
16232TIP3    H115767   3.872   8.665   9.572
16232TIP3    H215768   4.009   8.618   9.529
16233TIP3   OH215769   4.511   8.702   9.250
16233TIP3    H115770   4.545   8.659   9.170
16233TIP3    H215771   4.553   8.789   9.246
16234TIP3   OH215772   4.202   8.145  10.383
16234TIP3    H115773   4.124   8.140  10.323
16234TIP3    H215774   4.195   8.236  10.418
16235TIP3   OH215775   5.129   8.634   9.823
16235TIP3    H115776   5.083   8.614   9.908
16235TIP3    H215777   5.120   8.550   9.775
16236TIP3   OH215778   5.454   8.451   9.273
16236TIP3    H115779   5.454   8.383   9.203
16236TIP3    H215780   5.510   8.411   9.342
16237TIP3   OH215781   4.734   8.401   9.114
16237TIP3    H115782   4.786   8.333   9.159
16237TIP3    H215783   4.644   8.360   9.118
16238TIP3   OH215784   4.251   8.975   9.272
16238TIP3    H115785   4.329   8.972   9.329
16238TIP3    H215786   4.293   9.002   9.188
16239TIP3   OH215787   3.761   8.182  10.387
16239TIP3    H115788   3.749   8.103  10.441
16239TIP3    H215789   3.711   8.252  10.437
16240TIP3   OH215790   3.695   8.781   9.159
16240TIP3    H115791   3.788   8.799   9.186
16240TIP3    H215792   3.650   8.773   9.246
16241TIP3   OH215793   3.949   9.068  10.404
16241TIP3    H115794   3.956   9.023  10.318
16241TIP3    H215795   3.887   9.010  10.452
16242TIP3   OH215796   4.160   8.540   9.691
16242TIP3    H115797   4.252   8.515   9.709
16242TIP3    H215798   4.110   8.480   9.750
16243TIP3   OH215799   4.923   8.962  10.027
16243TIP3    H115800   4.889   9.048  10.059
16243TIP3    H215801   5.013   8.962  10.064
16244TIP3   OH215802   5.300   8.436  10.606
16244TIP3    H115803   5.244   8.491  10.547
16244TIP3    H215804   5.389   8.447  10.566
16245TIP3   OH215805   4.758   8.751  10.124
16245TIP3    H115806   4.815   8.829  10.116
16245TIP3    H215807   4.791   8.693  10.053
16246TIP3   OH215808   4.726   9.182   9.448
16246TIP3    H115809   4.711   9.277   9.426
16246TIP3    H215810   4.658   9.135   9.396
16247TIP3   OH215811   4.863   9.197  10.151
16247TIP3    H115812   4.957   9.217  10.136
16247TIP3    H215813   4.827   9.285  10.127
16248TIP3   OH215814   4.378   8.732   9.506
16248TIP3    H115815   4.419   8.706   9.420
16248TIP3    H215816   4.340   8.649   9.539
16249TIP3   OH215817   4.086   9.218   9.286
16249TIP3    H115818   4.161   9.155   9.297
16249TIP3    H215819   4.107   9.290   9.347
16250TIP3   OH215820   3.735   9.274  10.657
16250TIP3    H115821   3.767   9.336  10.725
16250TIP3    H215822   3.795   9.297  10.583
16251TIP3   OH215823   5.240   7.949   9.322
16251TIP3    H115824   5.311   7.985   9.266
16251TIP3    H215825   5.237   7.856   9.292
16252TIP3   OH215826   4.027   8.717  10.381
16252TIP3    H115827   4.043   8.639  10.321
16252TIP3    H215828   3.931   8.705  10.395
16253TIP3   OH215829   5.301   9.098   9.484
16253TIP3    H115830   5.248   9.017   9.487
16253TIP3    H215831   5.259   9.148   9.412
16254TIP3   OH215832   4.846   8.912  10.517
16254TIP3    H115833   4.757   8.893  10.551
16254TIP3    H215834   4.834   8.999  10.475
16255TIP3   OH215835   5.186   8.631  10.444
16255TIP3    H115836   5.275   8.670  10.427
16255TIP3    H215837   5.143   8.710  10.485
16256TIP3   OH215838   4.420   7.926   9.388
16256TIP3    H115839   4.325   7.949   9.388
16256TIP3    H215840   4.420   7.830   9.375
16257TIP3   OH215841   4.335   7.860  10.305
16257TIP3    H115842   4.326   7.942  10.358
16257TIP3    H215843   4.282   7.885  10.225
16258TIP3   OH215844   4.552   9.087  10.482
16258TIP3    H115845   4.639   9.114  10.449
16258TIP3    H215846   4.493   9.141  10.427
16259TIP3   OH215847   4.627   8.065  10.241
16259TIP3    H115848   4.559   8.121  10.201
16259TIP3    H215849   4.675   8.031  10.162
16260TIP3   OH215850   4.515   8.175   9.334
16260TIP3    H115851   4.500   8.191   9.238
16260TIP3    H215852   4.480   8.083   9.347
16261TIP3   OH215853   4.527   7.736  10.158
16261TIP3    H115854   4.535   7.771  10.066
16261TIP3    H215855   4.463   7.802  10.195
16262TIP3   OH215856   4.815   9.203  10.438
16262TIP3    H115857   4.784   9.294  10.443
16262TIP3    H215858   4.870   9.203  10.358
16263TIP3   OH215859   4.994   7.872  10.459
16263TIP3    H115860   4.985   7.963  10.424
16263TIP3    H215861   4.904   7.840  10.444
16264TIP3   OH215862   3.959   7.941   9.257
16264TIP3    H115863   4.051   7.964   9.281
16264TIP3    H215864   3.915   7.942   9.343
16265TIP3   OH215865   4.027   8.323   9.835
16265TIP3    H115866   4.108   8.271   9.825
16265TIP3    H215867   3.962   8.266   9.789
16266TIP3   OH215868   5.119   8.881  10.573
16266TIP3    H115869   5.021   8.884  10.560
16266TIP3    H215870   5.129   8.915  10.663
16267TIP3   OH215871   5.402   8.172  10.656
16267TIP3    H115872   5.330   8.229  10.622
16267TIP3    H215873   5.389   8.183  10.751
16268TIP3   OH215874   4.007   9.239   9.664
16268TIP3    H115875   4.000   9.289   9.748
16268TIP3    H215876   3.914   9.244   9.634
16269TIP3   OH215877   5.215   7.651   9.769
16269TIP3    H115878   5.217   7.644   9.866
16269TIP3    H215879   5.240   7.560   9.743
16270TIP3   OH215880   5.339   9.024  10.195
16270TIP3    H115881   5.421   9.066  10.165
16270TIP3    H215882   5.330   9.069  10.282
16271TIP3   OH215883   5.426   9.287   9.048
16271TIP3    H115884   5.350   9.261   8.990
16271TIP3    H215885   5.466   9.198   9.068
16272TIP3   OH215886   4.894   9.153   8.855
16272TIP3    H115887   4.810   9.106   8.842
16272TIP3    H215888   4.911   9.135   8.949
16273TIP3   OH215889   4.314   9.056   9.005
16273TIP3    H115890   4.324   8.964   8.971
16273TIP3    H215891   4.224   9.075   8.972
16274TIP3   OH215892   5.435   8.672   8.959
16274TIP3    H115893   5.462   8.579   8.970
16274TIP3    H215894   5.480   8.715   9.034
16275TIP3   OH215895   4.747   8.659   9.064
16275TIP3    H115896   4.788   8.719   9.130
16275TIP3    H215897   4.747   8.571   9.108
16276TIP3   OH215898   4.176   8.668   9.245
16276TIP3    H115899   4.090   8.716   9.246
16276TIP3    H215900   4.234   8.745   9.240
16277TIP3   OH215901   5.289   8.368   9.012
16277TIP3    H115902   5.229   8.300   8.979
16277TIP3    H215903   5.288   8.429   8.935
16278TIP3   OH215904   4.955   8.306   9.322
16278TIP3    H115905   5.010   8.386   9.321
16278TIP3    H215906   4.882   8.336   9.378
16279TIP3   OH215907   4.399   8.561   8.928
16279TIP3    H115908   4.340   8.515   8.989
16279TIP3    H215909   4.428   8.491   8.867
16280TIP3   OH215910   4.817   8.070   9.201
16280TIP3    H115911   4.820   7.999   9.270
16280TIP3    H215912   4.841   8.148   9.254
16281TIP3   OH215913   4.821   7.882   9.403
16281TIP3    H115914   4.770   7.913   9.481
16281TIP3    H215915   4.911   7.887   9.442
16282TIP3   OH215916   4.708   8.447   9.414
16282TIP3    H115917   4.623   8.482   9.443
16282TIP3    H215918   4.769   8.515   9.449
16283TIP3   OH215919   4.297   8.225   8.882
16283TIP3    H115920   4.289   8.136   8.838
16283TIP3    H215921   4.202   8.243   8.898
16284TIP3   OH215922   4.109   8.504   9.040
16284TIP3    H115923   4.147   8.559   9.113
16284TIP3    H215924   4.015   8.500   9.068
16285TIP3   OH215925   5.021   8.138   8.989
16285TIP3    H115926   5.101   8.092   9.021
16285TIP3    H215927   4.964   8.136   9.067
16286TIP3   OH215928   4.741   7.623   9.401
16286TIP3    H115929   4.778   7.713   9.387
16286TIP3    H215930   4.820   7.574   9.429
16287TIP3   OH215931   4.632   8.035   8.985
16287TIP3    H115932   4.698   8.030   8.914
16287TIP3    H215933   4.693   8.030   9.062
16288TIP3   OH215934   4.356   7.989   9.100
16288TIP3    H115935   4.449   7.991   9.071
16288TIP3    H215936   4.320   7.920   9.038
16289TIP3   OH215937   4.261   7.810   8.931
16289TIP3    H115938   4.217   7.727   8.904
16289TIP3    H215939   4.250   7.869   8.852
16290TIP3   OH215940   5.233   7.971   9.003
16290TIP3    H115941   5.237   7.883   9.045
16290TIP3    H215942   5.246   7.946   8.908
16291TIP3   OH215943   4.781   7.570   9.141
16291TIP3    H115944   4.696   7.528   9.119
16291TIP3    H215945   4.770   7.572   9.239
16292TIP3   OH215946   4.760   7.681   8.853
16292TIP3    H115947   4.780   7.643   8.941
16292TIP3    H215948   4.765   7.776   8.874
16293TIP3   OH215949   5.426   8.880  10.659
16293TIP3    H115950   5.339   8.896  10.700
16293TIP3    H215951   5.463   8.820  10.728
16294TIP3   OH215952   5.421   9.232   9.923
16294TIP3    H115953   5.501   9.203   9.875
16294TIP3    H215954   5.365   9.263   9.851
16295TIP3   OH215955   3.746   9.302   9.615
16295TIP3    H115956   3.681   9.307   9.542
16295TIP3    H215957   3.730   9.386   9.661
16296TIP3   OH215958   3.707   9.212   9.360
16296TIP3    H115959   3.758   9.148   9.414
16296TIP3    H215960   3.686   9.159   9.282
16297TIP3   OH215961   3.879   8.833   8.885
16297TIP3    H115962   3.960   8.836   8.830
16297TIP3    H215963   3.833   8.918   8.862
16298TIP3   OH215964   3.738   8.628  10.366
16298TIP3    H115965   3.656   8.682  10.361
16298TIP3    H215966   3.737   8.586  10.276
16299TIP3   OH215967   3.706   8.474  10.135
16299TIP3    H115968   3.792   8.435  10.110
16299TIP3    H215969   3.653   8.467  10.053
16300TIP3   OH215970   3.775   8.713   9.694
16300TIP3    H115971   3.692   8.659   9.695
16300TIP3    H215972   3.740   8.800   9.721
16301TIP3   OH215973   3.886   9.030   9.431
16301TIP3    H115974   3.951   9.083   9.381
16301TIP3    H215975   3.940   9.003   9.510
16302TIP3   OH215976   3.678   8.400  10.527
16302TIP3    H115977   3.740   8.452  10.578
16302TIP3    H215978   3.653   8.468  10.461
16303TIP3   OH215979   3.937   8.331  10.092
16303TIP3    H115980   3.969   8.247  10.129
16303TIP3    H215981   3.955   8.320   9.996
16304TIP3   OH215982   5.459   8.549   9.678
16304TIP3    H115983   5.466   8.515   9.771
16304TIP3    H215984   5.366   8.522   9.661
16305TIP3   OH215985   3.833   8.518   9.124
16305TIP3    H115986   3.788   8.431   9.123
16305TIP3    H215987   3.768   8.577   9.165
16306TIP3   OH215988   3.723   8.278   9.051
16306TIP3    H115989   3.806   8.230   9.075
16306TIP3    H215990   3.653   8.212   9.072
16307TIP3   OH215991   3.980   8.103  10.235
16307TIP3    H115992   3.959   8.008  10.224
16307TIP3    H215993   3.894   8.131  10.273
16308TIP3   OH215994   3.888   8.132   9.700
16308TIP3    H115995   3.789   8.145   9.700
16308TIP3    H215996   3.907   8.155   9.608
16309TIP3   OH215997   3.893   8.220   9.444
16309TIP3    H115998   3.984   8.249   9.423
16309TIP3    H215999   3.848   8.305   9.463
16310TIP3   OH216000   5.458   8.056   9.122
16310TIP3    H116001   5.380   8.024   9.072
16310TIP3    H216002   5.520   7.981   9.110
16311TIP3   OH216003   3.684   7.644   8.926
16311TIP3    H116004   3.638   7.572   8.975
16311TIP3    H216005   3.687   7.714   8.994
16312TIP3   OH216006   3.918   7.846  10.228
16312TIP3    H116007   3.880   7.798  10.151
16312TIP3    H216008   3.985   7.782  10.257
16313TIP3   OH216009   5.349   7.889   9.714
16313TIP3    H116010   5.309   7.800   9.725
16313TIP3    H216011   5.273   7.949   9.723
16314TIP3   OH216012   5.515   8.202   9.700
16314TIP3    H116013   5.448   8.173   9.766
16314TIP3    H216014   5.469   8.279   9.666
16315TIP3   OH216015   3.744   7.860   9.075
16315TIP3    H116016   3.816   7.884   9.014
16315TIP3    H216017   3.793   7.825   9.151
16316TIP3   OH216018   3.668   7.784  10.603
16316TIP3    H116019   3.702   7.728  10.677
16316TIP3    H216020   3.575   7.794  10.634
16317TIP3   OH216021   4.033   9.301  10.138
16317TIP3    H116022   3.942   9.292  10.172
16317TIP3    H216023   4.018   9.363  10.063
16318TIP3   OH216024   5.499   7.672   9.451
16318TIP3    H116025   5.566   7.638   9.389
16318TIP3    H216026   5.539   7.753   9.486
16319TIP3   OH216027   5.272   8.968   9.032
16319TIP3    H116028   5.359   8.965   9.073
16319TIP3    H216029   5.290   9.012   8.947
16320TIP3   OH216030   4.985   9.105   9.401
16320TIP3    H116031   4.989   9.201   9.408
16320TIP3    H216032   4.888   9.094   9.402
16321TIP3   OH216033   4.569   9.222   9.114
16321TIP3    H116034   4.579   9.197   9.021
16321TIP3    H216035   4.474   9.246   9.115
16322TIP3   OH216036   3.826   7.601   9.271
16322TIP3    H116037   3.905   7.640   9.311
16322TIP3    H216038   3.822   7.513   9.316
16323TIP3   OH216039   4.331   9.226   9.430
16323TIP3    H116040   4.390   9.292   9.473
16323TIP3    H216041   4.255   9.233   9.489
16324TIP3   OH216042   5.269   9.283   9.685
16324TIP3    H116043   5.289   9.232   9.603
16324TIP3    H216044   5.193   9.231   9.721
16325TIP3   OH216045   5.085   9.169   9.839
16325TIP3    H116046   5.096   9.071   9.829
16325TIP3    H216047   5.004   9.182   9.785
16326TIP3   OH216048   4.864   9.158   9.696
16326TIP3    H116049   4.828   9.070   9.721
16326TIP3    H216050   4.823   9.172   9.609
16327TIP3   OH216051   4.526   7.763   9.901
16327TIP3    H116052   4.597   7.740   9.838
16327TIP3    H216053   4.473   7.682   9.899
16328TIP3   OH216054   3.957   7.575   9.856
16328TIP3    H116055   3.896   7.642   9.895
16328TIP3    H216056   4.045   7.604   9.891
16329TIP3   OH216057   3.799   7.710  10.022
16329TIP3    H116058   3.746   7.641  10.068
16329TIP3    H216059   3.729   7.778  10.007
16330TIP3   OH216060   5.243   7.635  10.050
16330TIP3    H116061   5.335   7.635  10.082
16330TIP3    H216062   5.216   7.542  10.067
16331TIP3   OH216063   5.356   7.598  10.484
16331TIP3    H116064   5.301   7.649  10.548
16331TIP3    H216065   5.385   7.667  10.423
16332TIP3   OH216066   4.810   7.582  10.065
16332TIP3    H116067   4.732   7.616  10.111
16332TIP3    H216068   4.795   7.614   9.974
16333TIP3   OH216069   4.220   7.639   9.941
16333TIP3    H116070   4.229   7.647  10.036
16333TIP3    H216071   4.266   7.554   9.922
16334TIP3   OH216072   4.133   7.693  10.353
16334TIP3    H116073   4.209   7.755  10.354
16334TIP3    H216074   4.177   7.607  10.348
16335TIP3   OH216075   5.388   9.185  10.397
16335TIP3    H116076   5.483   9.183  10.418
16335TIP3    H216077   5.358   9.264  10.444
16336TIP3   OH216078   5.207   7.756  10.637
16336TIP3    H116079   5.163   7.747  10.723
16336TIP3    H216080   5.143   7.813  10.590
16337TIP3   OH216081   4.676   7.834  10.416
16337TIP3    H116082   4.642   7.805  10.329
16337TIP3    H216083   4.659   7.930  10.404
16338TIP3   OH216084   4.477   9.367  10.545
16338TIP3    H116085   4.386   9.354  10.574
16338TIP3    H216086   4.527   9.306  10.599
16339TIP3   OH216087   3.809   9.270  10.293
16339TIP3    H116088   3.864   9.196  10.327
16339TIP3    H216089   3.836   9.342  10.354
16340TIP3   OH216090   5.272   7.693   9.133
16340TIP3    H116091   5.325   7.612   9.118
16340TIP3    H216092   5.194   7.679   9.075
16341TIP3   OH216093   5.079   7.637   8.947
16341TIP3    H116094   5.001   7.583   8.970
16341TIP3    H216095   5.131   7.572   8.895
16342TIP3   OH216096   4.225   7.547   8.898
16342TIP3    H116097   4.211   7.505   8.811
16342TIP3    H216098   4.139   7.530   8.942
16343TIP3   OH216099   3.912   9.168   9.077
16343TIP3    H116100   3.974   9.180   9.153
16343TIP3    H216101   3.864   9.252   9.077
16344TIP3   OH216102   2.412   8.571  10.081
16344TIP3    H116103   2.394   8.653  10.032
16344TIP3    H216104   2.485   8.602  10.136
16345TIP3   OH216105   2.549   8.448   9.756
16345TIP3    H116106   2.545   8.396   9.672
16345TIP3    H216107   2.618   8.399   9.806
16346TIP3   OH216108   3.347   8.433   9.606
16346TIP3    H116109   3.347   8.362   9.541
16346TIP3    H216110   3.295   8.501   9.559
16347TIP3   OH216111   2.222   8.788   9.864
16347TIP3    H116112   2.204   8.709   9.811
16347TIP3    H216113   2.209   8.858   9.798
16348TIP3   OH216114   3.244   8.903   9.761
16348TIP3    H116115   3.270   8.809   9.773
16348TIP3    H216116   3.148   8.887   9.761
16349TIP3   OH216117   3.565   8.215  10.199
16349TIP3    H116118   3.604   8.299  10.169
16349TIP3    H216119   3.628   8.187  10.269
16350TIP3   OH216120   3.519   8.467   9.943
16350TIP3    H116121   3.473   8.383   9.920
16350TIP3    H216122   3.454   8.516   9.994
16351TIP3   OH216123   2.476   9.261   9.795
16351TIP3    H116124   2.414   9.233   9.866
16351TIP3    H216125   2.498   9.175   9.758
16352TIP3   OH216126   2.718   8.692   9.678
16352TIP3    H116127   2.675   8.627   9.736
16352TIP3    H216128   2.641   8.737   9.638
16353TIP3   OH216129   1.877   7.868   9.675
16353TIP3    H116130   1.862   7.927   9.598
16353TIP3    H216131   1.802   7.892   9.733
16354TIP3   OH216132   2.389   8.163   9.634
16354TIP3    H116133   2.369   8.068   9.623
16354TIP3    H216134   2.403   8.164   9.731
16355TIP3   OH216135   3.084   7.941   9.965
16355TIP3    H116136   3.075   8.026  10.013
16355TIP3    H216137   3.134   7.889  10.031
16356TIP3   OH216138   2.332   7.976  10.083
16356TIP3    H116139   2.293   7.942   9.999
16356TIP3    H216140   2.261   8.034  10.115
16357TIP3   OH216141   3.429   8.223   9.857
16357TIP3    H116142   3.368   8.174   9.799
16357TIP3    H216143   3.407   8.185   9.944
16358TIP3   OH216144   2.950   8.355   9.920
16358TIP3    H116145   2.864   8.310   9.905
16358TIP3    H216146   2.999   8.285   9.969
16359TIP3   OH216147   1.859   7.997   9.420
16359TIP3    H116148   1.896   8.080   9.459
16359TIP3    H216149   1.836   8.029   9.331
16360TIP3   OH216150   3.168   7.861   9.551
16360TIP3    H116151   3.216   7.920   9.614
16360TIP3    H216152   3.225   7.868   9.473
16361TIP3   OH216153   2.499   8.831  10.188
16361TIP3    H116154   2.528   8.834  10.282
16361TIP3    H216155   2.522   8.921  10.159
16362TIP3   OH216156   2.968   8.628   9.565
16362TIP3    H116157   3.026   8.702   9.537
16362TIP3    H216158   2.891   8.674   9.603
16363TIP3   OH216159   2.162   7.929   9.870
16363TIP3    H116160   2.103   7.854   9.857
16363TIP3    H216161   2.098   8.001   9.855
16364TIP3   OH216162   3.236   8.048   9.737
16364TIP3    H116163   3.177   8.113   9.693
16364TIP3    H216164   3.180   8.018   9.812
16365TIP3   OH216165   3.101   8.833   9.454
16365TIP3    H116166   3.104   8.930   9.465
16365TIP3    H216167   3.192   8.816   9.419
16366TIP3   OH216168   3.520   8.785  10.390
16366TIP3    H116169   3.509   8.851  10.462
16366TIP3    H216170   3.510   8.844  10.314
16367TIP3   OH216171   2.150   8.970   9.660
16367TIP3    H116172   2.244   8.989   9.641
16367TIP3    H216173   2.125   9.056   9.700
16368TIP3   OH216174   2.153   7.792   9.567
16368TIP3    H116175   2.226   7.823   9.624
16368TIP3    H216176   2.074   7.827   9.611
16369TIP3   OH216177   2.848   7.598   9.789
16369TIP3    H116178   2.871   7.506   9.809
16369TIP3    H216179   2.939   7.635   9.770
16370TIP3   OH216180   2.324   9.169  10.005
16370TIP3    H116181   2.319   9.086  10.057
16370TIP3    H216182   2.270   9.228  10.062
16371TIP3   OH216183   2.187   8.942  10.172
16371TIP3    H116184   2.209   8.868  10.233
16371TIP3    H216185   2.197   8.896  10.087
16372TIP3   OH216186   2.040   8.798   9.293
16372TIP3    H116187   2.034   8.728   9.362
16372TIP3    H216188   2.025   8.877   9.349
16373TIP3   OH216189   1.843   8.437   9.500
16373TIP3    H116190   1.903   8.513   9.483
16373TIP3    H216191   1.790   8.472   9.575
16374TIP3   OH216192   2.194   8.483  10.237
16374TIP3    H116193   2.271   8.515  10.185
16374TIP3    H216194   2.137   8.447  10.165
16375TIP3   OH216195   2.243   8.323   9.302
16375TIP3    H116196   2.243   8.418   9.284
16375TIP3    H216197   2.310   8.319   9.371
16376TIP3   OH216198   3.091   8.539  10.056
16376TIP3    H116199   3.102   8.503  10.145
16376TIP3    H216200   3.028   8.474  10.017
16377TIP3   OH216201   2.951   8.893   9.805
16377TIP3    H116202   2.943   8.896   9.902
16377TIP3    H216203   2.878   8.834   9.779
16378TIP3   OH216204   3.065   8.416   9.685
16378TIP3    H116205   3.025   8.418   9.776
16378TIP3    H216206   3.023   8.496   9.645
16379TIP3   OH216207   2.413   9.011   9.610
16379TIP3    H116208   2.460   9.069   9.548
16379TIP3    H216209   2.421   8.923   9.568
16380TIP3   OH216210   2.947   8.850   9.226
16380TIP3    H116211   3.010   8.908   9.176
16380TIP3    H216212   2.996   8.838   9.310
16381TIP3   OH216213   3.261   8.508   9.343
16381TIP3    H116214   3.241   8.589   9.294
16381TIP3    H216215   3.312   8.460   9.276
16382TIP3   OH216216   2.569   9.143  10.175
16382TIP3    H116217   2.562   9.201  10.098
16382TIP3    H216218   2.651   9.170  10.219
16383TIP3   OH216219   3.123   9.045   9.125
16383TIP3    H116220   3.136   9.065   9.219
16383TIP3    H216221   3.210   9.006   9.101
16384TIP3   OH216222   1.944   7.578  10.435
16384TIP3    H116223   2.039   7.598  10.419
16384TIP3    H216224   1.925   7.632  10.515
16385TIP3   OH216225   3.172   8.435  10.323
16385TIP3    H116226   3.209   8.526  10.339
16385TIP3    H216227   3.250   8.379  10.326
16386TIP3   OH216228   3.552   8.708   9.376
16386TIP3    H116229   3.595   8.692   9.460
16386TIP3    H216230   3.532   8.615   9.349
16387TIP3   OH216231   3.570   8.979   9.711
16387TIP3    H116232   3.479   8.994   9.740
16387TIP3    H216233   3.581   9.051   9.647
16388TIP3   OH216234   1.788   9.059   9.125
16388TIP3    H116235   1.795   8.963   9.107
16388TIP3    H216236   1.878   9.087   9.096
16389TIP3   OH216237   2.703   9.010   9.276
16389TIP3    H116238   2.698   9.078   9.205
16389TIP3    H216239   2.778   8.953   9.249
16390TIP3   OH216240   3.261   9.230  10.095
16390TIP3    H116241   3.213   9.225  10.009
16390TIP3    H216242   3.333   9.165  10.078
16391TIP3   OH216243   2.343   9.326  10.584
16391TIP3    H116244   2.302   9.245  10.616
16391TIP3    H216245   2.337   9.318  10.487
16392TIP3   OH216246   2.376   9.288  10.308
16392TIP3    H116247   2.462   9.243  10.298
16392TIP3    H216248   2.317   9.226  10.264
16393TIP3   OH216249   2.074   8.165   9.103
16393TIP3    H116250   2.132   8.200   9.174
16393TIP3    H216251   2.072   8.070   9.124
16394TIP3   OH216252   3.331   8.840   9.312
16394TIP3    H116253   3.329   8.815   9.218
16394TIP3    H216254   3.417   8.799   9.338
16395TIP3   OH216255   3.084   7.690   9.733
16395TIP3    H116256   3.175   7.670   9.760
16395TIP3    H216257   3.098   7.769   9.677
16396TIP3   OH216258   2.585   7.648   9.397
16396TIP3    H116259   2.554   7.604   9.314
16396TIP3    H216260   2.682   7.660   9.381
16397TIP3   OH216261   2.306   8.047   9.268
16397TIP3    H116262   2.370   8.008   9.203
16397TIP3    H216263   2.306   8.140   9.243
16398TIP3   OH216264   2.630   7.986  10.614
16398TIP3    H116265   2.649   7.925  10.540
16398TIP3    H216266   2.700   7.961  10.675
16399TIP3   OH216267   3.055   8.176   9.580
16399TIP3    H116268   3.134   8.184   9.523
16399TIP3    H216269   3.058   8.266   9.621
16400TIP3   OH216270   3.084   8.176  10.085
16400TIP3    H116271   3.178   8.165  10.110
16400TIP3    H216272   3.036   8.151  10.166
16401TIP3   OH216273   2.509   8.282  10.210
16401TIP3    H116274   2.525   8.360  10.264
16401TIP3    H216275   2.436   8.238  10.258
16402TIP3   OH216276   2.609   8.264   9.060
16402TIP3    H116277   2.653   8.186   9.021
16402TIP3    H216278   2.525   8.262   9.009
16403TIP3   OH216279   2.390   8.226   9.905
16403TIP3    H116280   2.423   8.311   9.939
16403TIP3    H216281   2.401   8.169   9.983
16404TIP3   OH216282   3.303   8.184   9.459
16404TIP3    H116283   3.271   8.216   9.374
16404TIP3    H216284   3.347   8.101   9.432
16405TIP3   OH216285   3.605   7.899   9.998
16405TIP3    H116286   3.520   7.883   9.957
16405TIP3    H216287   3.583   7.920  10.090
16406TIP3   OH216288   2.503   8.357   9.489
16406TIP3    H116289   2.452   8.286   9.534
16406TIP3    H216290   2.559   8.303   9.428
16407TIP3   OH216291   2.792   7.971  10.005
16407TIP3    H116292   2.885   7.948   9.989
16407TIP3    H216293   2.744   7.906   9.950
16408TIP3   OH216294   3.347   8.102  10.097
16408TIP3    H116295   3.423   8.128  10.156
16408TIP3    H216296   3.321   8.013  10.132
16409TIP3   OH216297   2.966   8.124  10.338
16409TIP3    H116298   2.872   8.134  10.312
16409TIP3    H216299   2.980   8.194  10.402
16410TIP3   OH216300   2.389   7.875   9.677
16410TIP3    H116301   2.459   7.841   9.619
16410TIP3    H216302   2.385   7.810   9.750
16411TIP3   OH216303   3.297   8.673   9.072
16411TIP3    H116304   3.232   8.706   9.008
16411TIP3    H216305   3.377   8.665   9.016
16412TIP3   OH216306   2.708   8.251   9.849
16412TIP3    H116307   2.639   8.185   9.869
16412TIP3    H216308   2.736   8.224   9.761
16413TIP3   OH216309   3.246   7.857  10.173
16413TIP3    H116310   3.285   7.781  10.122
16413TIP3    H216311   3.219   7.814  10.257
16414TIP3   OH216312   2.820   8.039   9.567
16414TIP3    H116313   2.901   8.094   9.574
16414TIP3    H216314   2.763   8.093   9.510
16415TIP3   OH216315   2.748   8.666  10.391
16415TIP3    H116316   2.831   8.629  10.429
16415TIP3    H216317   2.785   8.716  10.315
16416TIP3   OH216318   2.028   8.622   9.490
16416TIP3    H116319   1.989   8.664   9.570
16416TIP3    H216320   2.121   8.617   9.518
16417TIP3   OH216321   2.618   8.694   9.232
16417TIP3    H116322   2.662   8.657   9.154
16417TIP3    H216323   2.661   8.780   9.243
16418TIP3   OH216324   2.309   8.205  10.381
16418TIP3    H116325   2.233   8.162  10.337
16418TIP3    H216326   2.276   8.295  10.389
16419TIP3   OH216327   3.232   8.635   9.804
16419TIP3    H116328   3.182   8.615   9.886
16419TIP3    H216329   3.235   8.547   9.761
16420TIP3   OH216330   2.570   8.858  10.456
16420TIP3    H116331   2.615   8.944  10.466
16420TIP3    H216332   2.645   8.796  10.441
16421TIP3   OH216333   3.566   8.457   9.275
16421TIP3    H116334   3.561   8.394   9.201
16421TIP3    H216335   3.620   8.410   9.341
16422TIP3   OH216336   2.832   8.407   9.123
16422TIP3    H116337   2.881   8.336   9.166
16422TIP3    H216338   2.742   8.368   9.123
16423TIP3   OH216339   2.362   8.967   9.277
16423TIP3    H116340   2.436   8.985   9.334
16423TIP3    H216341   2.402   8.990   9.191
16424TIP3   OH216342   1.819   8.165  10.416
16424TIP3    H116343   1.885   8.137  10.480
16424TIP3    H216344   1.841   8.259  10.402
16425TIP3   OH216345   1.803   8.782   9.159
16425TIP3    H116346   1.894   8.796   9.197
16425TIP3    H216347   1.749   8.769   9.240
16426TIP3   OH216348   2.006   9.038  10.365
16426TIP3    H116349   2.074   9.031  10.297
16426TIP3    H216350   1.992   8.943  10.379
16427TIP3   OH216351   2.283   8.551   9.704
16427TIP3    H116352   2.373   8.520   9.725
16427TIP3    H216353   2.229   8.483   9.747
16428TIP3   OH216354   3.055   8.972  10.109
16428TIP3    H116355   3.000   9.050  10.135
16428TIP3    H216356   3.119   8.972  10.181
16429TIP3   OH216357   2.888   8.754  10.146
16429TIP3    H116358   2.937   8.838  10.145
16429TIP3    H216359   2.941   8.699  10.085
16430TIP3   OH216360   2.833   9.194   9.479
16430TIP3    H116361   2.820   9.284   9.441
16430TIP3    H216362   2.771   9.140   9.429
16431TIP3   OH216363   2.962   9.210  10.186
16431TIP3    H116364   3.057   9.224  10.170
16431TIP3    H216365   2.928   9.291  10.144
16432TIP3   OH216366   2.489   8.729   9.507
16432TIP3    H116367   2.512   8.691   9.419
16432TIP3    H216368   2.437   8.656   9.545
16433TIP3   OH216369   2.194   9.219   9.276
16433TIP3    H116370   2.272   9.160   9.287
16433TIP3    H216371   2.218   9.297   9.328
16434TIP3   OH216372   3.362   7.953   9.325
16434TIP3    H116373   3.424   8.000   9.265
16434TIP3    H216374   3.389   7.861   9.306
16435TIP3   OH216375   2.155   8.734  10.364
16435TIP3    H116376   2.185   8.645  10.336
16435TIP3    H216377   2.064   8.713  10.393
16436TIP3   OH216378   3.402   9.119   9.493
16436TIP3    H116379   3.361   9.030   9.491
16436TIP3    H216380   3.370   9.159   9.411
16437TIP3   OH216381   3.268   8.673  10.434
16437TIP3    H116382   3.363   8.694  10.439
16437TIP3    H216383   3.235   8.723  10.512
16438TIP3   OH216384   2.536   7.935   9.401
16438TIP3    H116385   2.444   7.952   9.372
16438TIP3    H216386   2.547   7.840   9.387
16439TIP3   OH216387   2.434   7.842  10.288
16439TIP3    H116388   2.429   7.918  10.347
16439TIP3    H216389   2.383   7.876  10.211
16440TIP3   OH216390   2.665   9.131  10.476
16440TIP3    H116391   2.762   9.123  10.488
16440TIP3    H216392   2.644   9.193  10.548
16441TIP3   OH216393   2.695   8.070  10.251
16441TIP3    H116394   2.634   8.142  10.225
16441TIP3    H216395   2.718   8.026  10.166
16442TIP3   OH216396   2.637   8.180   9.325
16442TIP3    H116397   2.622   8.190   9.228
16442TIP3    H216398   2.602   8.091   9.345
16443TIP3   OH216399   2.660   7.754  10.181
16443TIP3    H116400   2.669   7.780  10.087
16443TIP3    H216401   2.574   7.797  10.204
16444TIP3   OH216402   3.054   7.852  10.401
16444TIP3    H116403   3.075   7.945  10.419
16444TIP3    H216404   2.958   7.850  10.403
16445TIP3   OH216405   2.057   7.928   9.245
16445TIP3    H116406   2.150   7.959   9.251
16445TIP3    H216407   2.026   7.940   9.336
16446TIP3   OH216408   2.148   8.335   9.822
16446TIP3    H116409   2.233   8.287   9.830
16446TIP3    H216410   2.091   8.270   9.777
16447TIP3   OH216411   3.434   8.195  10.709
16447TIP3    H116412   3.401   8.224  10.624
16447TIP3    H216413   3.423   8.098  10.702
16448TIP3   OH216414   2.110   9.240   9.663
16448TIP3    H116415   2.105   9.297   9.742
16448TIP3    H216416   2.016   9.247   9.633
16449TIP3   OH216417   3.347   7.639   9.781
16449TIP3    H116418   3.357   7.633   9.879
16449TIP3    H216419   3.377   7.549   9.754
16450TIP3   OH216420   3.482   9.030  10.172
16450TIP3    H116421   3.567   9.077  10.164
16450TIP3    H216422   3.445   9.076  10.248
16451TIP3   OH216423   3.538   9.287   9.051
16451TIP3    H116424   3.464   9.258   8.992
16451TIP3    H216425   3.583   9.201   9.069
16452TIP3   OH216426   3.010   9.152   8.844
16452TIP3    H116427   2.923   9.108   8.839
16452TIP3    H216428   3.034   9.133   8.936
16453TIP3   OH216429   2.426   9.053   9.007
16453TIP3    H116430   2.434   8.961   8.971
16453TIP3    H216431   2.336   9.074   8.975
16454TIP3   OH216432   3.550   8.668   8.961
16454TIP3    H116433   3.581   8.578   8.975
16454TIP3    H216434   3.590   8.718   9.036
16455TIP3   OH216435   2.872   8.657   9.051
16455TIP3    H116436   2.902   8.715   9.124
16455TIP3    H216437   2.868   8.568   9.093
16456TIP3   OH216438   2.296   8.670   9.253
16456TIP3    H116439   2.215   8.725   9.246
16456TIP3    H216440   2.363   8.741   9.249
16457TIP3   OH216441   3.398   8.365   9.012
16457TIP3    H116442   3.335   8.305   8.969
16457TIP3    H216443   3.397   8.439   8.946
16458TIP3   OH216444   2.976   8.529  10.494
16458TIP3    H116445   3.052   8.495  10.442
16458TIP3    H216446   2.971   8.473  10.573
16459TIP3   OH216447   3.072   8.308   9.327
16459TIP3    H116448   3.133   8.385   9.330
16459TIP3    H216449   2.998   8.343   9.380
16460TIP3   OH216450   2.860   8.350  10.695
16460TIP3    H116451   2.846   8.387  10.783
16460TIP3    H216452   2.789   8.284  10.689
16461TIP3   OH216453   2.515   8.560   8.925
16461TIP3    H116454   2.455   8.514   8.986
16461TIP3    H216455   2.543   8.490   8.864
16462TIP3   OH216456   2.950   8.083   9.209
16462TIP3    H116457   2.938   8.013   9.277
16462TIP3    H216458   2.973   8.160   9.265
16463TIP3   OH216459   2.940   7.882   9.397
16463TIP3    H116460   2.888   7.921   9.471
16463TIP3    H216461   3.028   7.872   9.438
16464TIP3   OH216462   2.824   8.447   9.417
16464TIP3    H116463   2.733   8.474   9.434
16464TIP3    H216464   2.874   8.522   9.455
16465TIP3   OH216465   2.416   8.225   8.888
16465TIP3    H116466   2.396   8.136   8.849
16465TIP3    H216467   2.328   8.264   8.895
16466TIP3   OH216468   2.226   8.513   9.041
16466TIP3    H116469   2.267   8.558   9.118
16466TIP3    H216470   2.133   8.503   9.073
16467TIP3   OH216471   3.136   8.132   8.989
16467TIP3    H116472   3.219   8.088   9.020
16467TIP3    H216473   3.081   8.129   9.070
16468TIP3   OH216474   2.865   7.627   9.405
16468TIP3    H116475   2.900   7.718   9.392
16468TIP3    H216476   2.945   7.580   9.433
16469TIP3   OH216477   2.750   8.035   8.980
16469TIP3    H116478   2.818   8.029   8.910
16469TIP3    H216479   2.808   8.028   9.059
16470TIP3   OH216480   2.494   7.979   9.091
16470TIP3    H116481   2.584   7.987   9.056
16470TIP3    H216482   2.455   7.918   9.024
16471TIP3   OH216483   2.380   7.811   8.928
16471TIP3    H116484   2.336   7.727   8.907
16471TIP3    H216485   2.361   7.869   8.851
16472TIP3   OH216486   3.348   7.969   9.001
16472TIP3    H116487   3.365   7.886   9.050
16472TIP3    H216488   3.358   7.938   8.907
16473TIP3   OH216489   2.890   7.576   9.128
16473TIP3    H116490   2.809   7.524   9.113
16473TIP3    H216491   2.889   7.579   9.226
16474TIP3   OH216492   2.875   7.685   8.846
16474TIP3    H116493   2.889   7.644   8.934
16474TIP3    H216494   2.878   7.779   8.870
16475TIP3   OH216495   3.575   9.222   9.946
16475TIP3    H116496   3.648   9.195   9.889
16475TIP3    H216497   3.509   9.248   9.878
16476TIP3   OH216498   1.858   9.304   9.617
16476TIP3    H116499   1.806   9.316   9.535
16476TIP3    H216500   1.812   9.365   9.676
16477TIP3   OH216501   1.817   9.209   9.359
16477TIP3    H116502   1.867   9.145   9.414
16477TIP3    H216503   1.800   9.153   9.280
16478TIP3   OH216504   1.992   8.836   8.884
16478TIP3    H116505   2.077   8.848   8.836
16478TIP3    H216506   1.945   8.921   8.866
16479TIP3   OH216507   1.904   8.642  10.395
16479TIP3    H116508   1.814   8.679  10.384
16479TIP3    H216509   1.909   8.589  10.313
16480TIP3   OH216510   1.828   8.476  10.164
16480TIP3    H116511   1.911   8.443  10.123
16480TIP3    H216512   1.770   8.482  10.086
16481TIP3   OH216513   1.896   8.720   9.697
16481TIP3    H116514   1.817   8.662   9.706
16481TIP3    H216515   1.860   8.806   9.725
16482TIP3   OH216516   2.004   9.021   9.433
16482TIP3    H116517   2.062   9.084   9.388
16482TIP3    H216518   2.054   9.008   9.518
16483TIP3   OH216519   2.038   8.322  10.083
16483TIP3    H116520   2.068   8.236  10.116
16483TIP3    H216521   2.061   8.318   9.988
16484TIP3   OH216522   3.564   8.546   9.689
16484TIP3    H116523   3.565   8.522   9.785
16484TIP3    H216524   3.470   8.521   9.670
16485TIP3   OH216525   1.952   8.508   9.125
16485TIP3    H116526   1.911   8.419   9.117
16485TIP3    H216527   1.880   8.562   9.165
16486TIP3   OH216528   1.838   8.274   9.032
16486TIP3    H116529   1.920   8.232   9.064
16486TIP3    H216530   1.770   8.208   9.059
16487TIP3   OH216531   2.092   8.091  10.247
16487TIP3    H116532   2.090   7.993  10.236
16487TIP3    H216533   1.998   8.101  10.268
16488TIP3   OH216534   1.994   8.138   9.709
16488TIP3    H116535   1.897   8.156   9.700
16488TIP3    H216536   2.023   8.152   9.617
16489TIP3   OH216537   2.003   8.217   9.447
16489TIP3    H116538   2.091   8.247   9.421
16489TIP3    H216539   1.958   8.303   9.466
16490TIP3   OH216540   3.570   8.060   9.116
16490TIP3    H116541   3.494   8.043   9.056
16490TIP3    H216542   3.629   7.984   9.094
16491TIP3   OH216543   1.806   7.649   8.931
16491TIP3    H116544   1.760   7.574   8.974
16491TIP3    H216545   1.802   7.717   9.002
16492TIP3   OH216546   2.067   7.825  10.240
16492TIP3    H116547   2.003   7.795  10.172
16492TIP3    H216548   2.095   7.742  10.282
16493TIP3   OH216549   3.469   7.881   9.698
16493TIP3    H116550   3.427   7.796   9.718
16493TIP3    H216551   3.404   7.947   9.727
16494TIP3   OH216552   3.637   8.207   9.695
16494TIP3    H116553   3.568   8.177   9.759
16494TIP3    H216554   3.606   8.297   9.682
16495TIP3   OH216555   1.852   7.866   9.076
16495TIP3    H116556   1.916   7.870   9.003
16495TIP3    H216557   1.911   7.842   9.151
16496TIP3   OH216558   1.802   7.776  10.601
16496TIP3    H116559   1.767   7.704  10.656
16496TIP3    H216560   1.741   7.848  10.623
16497TIP3   OH216561   3.634   7.848  10.277
16497TIP3    H116562   3.731   7.842  10.277
16497TIP3    H216563   3.614   7.822  10.369
16498TIP3   OH216564   2.152   9.328  10.139
16498TIP3    H116565   2.062   9.303  10.169
16498TIP3    H216566   2.134   9.372  10.054
16499TIP3   OH216567   3.602   7.666   9.455
16499TIP3    H116568   3.673   7.638   9.394
16499TIP3    H216569   3.646   7.729   9.515
16500TIP3   OH216570   3.386   8.967   9.036
16500TIP3    H116571   3.470   8.979   9.081
16500TIP3    H216572   3.402   9.004   8.948
16501TIP3   OH216573   3.083   9.101   9.396
16501TIP3    H116574   3.105   9.188   9.431
16501TIP3    H216575   2.986   9.105   9.396
16502TIP3   OH216576   2.693   9.225   9.111
16502TIP3    H116577   2.695   9.193   9.018
16502TIP3    H216578   2.599   9.250   9.117
16503TIP3   OH216579   1.931   7.607   9.269
16503TIP3    H116580   2.006   7.647   9.314
16503TIP3    H216581   1.927   7.517   9.310
16504TIP3   OH216582   2.436   9.229   9.420
16504TIP3    H116583   2.499   9.290   9.464
16504TIP3    H216584   2.361   9.240   9.481
16505TIP3   OH216585   3.412   9.268   9.724
16505TIP3    H116586   3.427   9.238   9.632
16505TIP3    H216587   3.331   9.217   9.750
16506TIP3   OH216588   3.199   9.165   9.840
16506TIP3    H116589   3.210   9.068   9.831
16506TIP3    H216590   3.110   9.178   9.800
16507TIP3   OH216591   2.963   9.166   9.722
16507TIP3    H116592   2.946   9.072   9.744
16507TIP3    H216593   2.917   9.176   9.636
16508TIP3   OH216594   2.651   7.762   9.908
16508TIP3    H116595   2.711   7.751   9.833
16508TIP3    H216596   2.594   7.684   9.896
16509TIP3   OH216597   2.084   7.565   9.852
16509TIP3    H116598   2.014   7.620   9.895
16509TIP3    H216599   2.164   7.617   9.866
16510TIP3   OH216600   1.926   7.706  10.019
16510TIP3    H116601   1.870   7.639  10.067
16510TIP3    H216602   1.860   7.778  10.008
16511TIP3   OH216603   3.376   7.648  10.062
16511TIP3    H116604   3.448   7.640  10.128
16511TIP3    H216605   3.334   7.559  10.072
16512TIP3   OH216606   2.933   7.595  10.062
16512TIP3    H116607   2.851   7.602  10.113
16512TIP3    H216608   2.910   7.643   9.980
16513TIP3   OH216609   2.349   7.650   9.949
16513TIP3    H116610   2.372   7.653  10.043
16513TIP3    H216611   2.387   7.563   9.924
16514TIP3   OH216612   2.201   7.620  10.376
16514TIP3    H116613   2.276   7.673  10.342
16514TIP3    H216614   2.237   7.531  10.354
16515TIP3   OH216615   3.514   9.202  10.420
16515TIP3    H116616   3.594   9.257  10.411
16515TIP3    H216617   3.441   9.265  10.431
16516TIP3   OH216618   2.770   7.846  10.407
16516TIP3    H116619   2.736   7.806  10.323
16516TIP3    H216620   2.771   7.940  10.380
16517TIP3   OH216621   1.920   9.277  10.273
16517TIP3    H116622   1.949   9.196  10.319
16517TIP3    H216623   1.934   9.348  10.341
16518TIP3   OH216624   3.397   7.691   9.131
16518TIP3    H116625   3.445   7.608   9.113
16518TIP3    H216626   3.317   7.680   9.074
16519TIP3   OH216627   3.197   7.635   8.944
16519TIP3    H116628   3.116   7.588   8.967
16519TIP3    H216629   3.244   7.567   8.891
16520TIP3   OH216630   2.338   7.549   8.888
16520TIP3    H116631   2.324   7.509   8.800
16520TIP3    H216632   2.255   7.524   8.933
16521TIP3   OH216633   2.021   9.173   9.073
16521TIP3    H116634   2.079   9.182   9.152
16521TIP3    H216635   1.973   9.256   9.076
16522TIP3   OH216636   0.536   8.561  10.087
16522TIP3    H116637   0.554   8.653  10.061
16522TIP3    H216638   0.617   8.541  10.137
16523TIP3   OH216639   0.674   8.432   9.753
16523TIP3    H116640   0.660   8.394   9.665
16523TIP3    H216641   0.748   8.378   9.790
16524TIP3   OH216642   1.470   8.433   9.605
16524TIP3    H116643   1.469   8.353   9.548
16524TIP3    H216644   1.409   8.489   9.553
16525TIP3   OH216645   0.294   8.795   9.857
16525TIP3    H116646   0.291   8.713   9.805
16525TIP3    H216647   0.306   8.863   9.787
16526TIP3   OH216648   1.349   8.892   9.740
16526TIP3    H116649   1.380   8.807   9.777
16526TIP3    H216650   1.254   8.869   9.732
16527TIP3   OH216651   1.663   8.214  10.202
16527TIP3    H116652   1.711   8.290  10.165
16527TIP3    H216653   1.722   8.183  10.273
16528TIP3   OH216654   1.629   8.473   9.944
16528TIP3    H116655   1.575   8.395   9.916
16528TIP3    H216656   1.561   8.538   9.968
16529TIP3   OH216657   0.611   9.256   9.814
16529TIP3    H116658   0.539   9.228   9.876
16529TIP3    H216659   0.626   9.172   9.768
16530TIP3   OH216660   0.830   8.704   9.715
16530TIP3    H116661   0.784   8.626   9.750
16530TIP3    H216662   0.760   8.749   9.663
16531TIP3   OH216663  -0.014   7.919   9.584
16531TIP3    H116664  -0.029   8.015   9.580
16531TIP3    H216665  -0.094   7.894   9.635
16532TIP3   OH216666   0.525   8.165   9.634
16532TIP3    H116667   0.491   8.076   9.625
16532TIP3    H216668   0.540   8.170   9.729
16533TIP3   OH216669   1.214   7.955   9.961
16533TIP3    H116670   1.188   8.034  10.012
16533TIP3    H216671   1.268   7.909  10.029
16534TIP3   OH216672   0.430   7.997  10.071
16534TIP3    H116673   0.379   7.947  10.003
16534TIP3    H216674   0.359   8.051  10.109
16535TIP3   OH216675   1.530   8.222   9.874
16535TIP3    H116676   1.477   8.173   9.809
16535TIP3    H216677   1.505   8.181   9.959
16536TIP3   OH216678   1.061   8.372   9.915
16536TIP3    H116679   0.979   8.329   9.884
16536TIP3    H216680   1.089   8.305   9.982
16537TIP3   OH216681   1.312   7.861   9.534
16537TIP3    H116682   1.344   7.915   9.609
16537TIP3    H216683   1.370   7.893   9.461
16538TIP3   OH216684   0.631   8.812  10.178
16538TIP3    H116685   0.651   8.816  10.274
16538TIP3    H216686   0.638   8.906  10.156
16539TIP3   OH216687   1.075   8.629   9.561
16539TIP3    H116688   1.136   8.703   9.538
16539TIP3    H216689   1.004   8.676   9.609
16540TIP3   OH216690   0.255   7.946   9.873
16540TIP3    H116691   0.292   7.886   9.806
16540TIP3    H216692   0.203   8.008   9.819
16541TIP3   OH216693   1.353   8.055   9.733
16541TIP3    H116694   1.295   8.124   9.694
16541TIP3    H216695   1.302   8.027   9.811
16542TIP3   OH216696   1.211   8.834   9.450
16542TIP3    H116697   1.214   8.930   9.471
16542TIP3    H216698   1.304   8.820   9.419
16543TIP3   OH216699   1.655   8.784  10.400
16543TIP3    H116700   1.636   8.848  10.469
16543TIP3    H216701   1.625   8.836  10.322
16544TIP3   OH216702   0.297   8.984   9.659
16544TIP3    H116703   0.388   9.018   9.656
16544TIP3    H216704   0.243   9.061   9.688
16545TIP3   OH216705   0.218   7.781   9.554
16545TIP3    H116706   0.293   7.806   9.612
16545TIP3    H216707   0.152   7.850   9.577
16546TIP3   OH216708   0.957   7.610   9.798
16546TIP3    H116709   0.985   7.517   9.798
16546TIP3    H216710   1.041   7.653   9.765
16547TIP3   OH216711   0.440   9.145   9.992
16547TIP3    H116712   0.409   9.062  10.035
16547TIP3    H216713   0.375   9.209  10.032
16548TIP3   OH216714   0.326   8.910  10.128
16548TIP3    H116715   0.340   8.840  10.194
16548TIP3    H216716   0.305   8.860  10.047
16549TIP3   OH216717   0.182   8.782   9.281
16549TIP3    H116718   0.172   8.720   9.356
16549TIP3    H216719   0.148   8.864   9.324
16550TIP3   OH216720   0.691   8.487  10.344
16550TIP3    H116721   0.779   8.529  10.354
16550TIP3    H216722   0.636   8.565  10.364
16551TIP3   OH216723   0.689   8.342  10.624
16551TIP3    H116724   0.620   8.351  10.557
16551TIP3    H216725   0.665   8.263  10.675
16552TIP3   OH216726  -0.015   8.411   9.538
16552TIP3    H116727   0.061   8.471   9.518
16552TIP3    H216728  -0.067   8.470   9.597
16553TIP3   OH216729   0.347   8.454  10.261
16553TIP3    H116730   0.419   8.490  10.206
16553TIP3    H216731   0.285   8.423  10.191
16554TIP3   OH216732   0.372   8.308   9.314
16554TIP3    H116733   0.386   8.378   9.248
16554TIP3    H216734   0.436   8.339   9.380
16555TIP3   OH216735   1.217   8.545  10.064
16555TIP3    H116736   1.228   8.510  10.155
16555TIP3    H216737   1.151   8.484  10.027
16556TIP3   OH216738   1.054   8.874   9.780
16556TIP3    H116739   1.044   8.893   9.875
16556TIP3    H216740   0.973   8.822   9.761
16557TIP3   OH216741   1.175   8.419   9.677
16557TIP3    H116742   1.138   8.427   9.768
16557TIP3    H216743   1.127   8.490   9.629
16558TIP3   OH216744   0.595   9.005   9.596
16558TIP3    H116745   0.603   9.064   9.519
16558TIP3    H216746   0.588   8.918   9.551
16559TIP3   OH216747   1.053   8.864   9.223
16559TIP3    H116748   1.118   8.922   9.178
16559TIP3    H216749   1.102   8.839   9.304
16560TIP3   OH216750   1.369   8.511   9.344
16560TIP3    H116751   1.356   8.596   9.298
16560TIP3    H216752   1.426   8.467   9.280
16561TIP3   OH216753   0.684   9.103  10.144
16561TIP3    H116754   0.650   9.130  10.057
16561TIP3    H216755   0.761   9.158  10.160
16562TIP3   OH216756   1.250   9.049   9.129
16562TIP3    H116757   1.268   9.060   9.225
16562TIP3    H216758   1.334   9.008   9.099
16563TIP3   OH216759   0.113   7.532  10.467
16563TIP3    H116760   0.197   7.581  10.451
16563TIP3    H216761   0.080   7.577  10.547
16564TIP3   OH216762   1.294   8.436  10.303
16564TIP3    H116763   1.356   8.508  10.321
16564TIP3    H216764   1.349   8.356  10.314
16565TIP3   OH216765   0.030   9.015  10.637
16565TIP3    H116766   0.065   9.104  10.653
16565TIP3    H216767  -0.063   9.035  10.624
16566TIP3   OH216768   1.667   8.711   9.382
16566TIP3    H116769   1.701   8.702   9.472
16566TIP3    H216770   1.649   8.616   9.360
16567TIP3   OH216771   1.696   8.979   9.712
16567TIP3    H116772   1.603   8.988   9.736
16567TIP3    H216773   1.705   9.045   9.642
16568TIP3   OH216774   0.818   9.011   9.254
16568TIP3    H116775   0.829   9.080   9.186
16568TIP3    H216776   0.902   8.959   9.251
16569TIP3   OH216777   1.414   9.195  10.073
16569TIP3    H116778   1.356   9.184   9.995
16569TIP3    H216779   1.500   9.205  10.025
16570TIP3   OH216780   0.518   9.272  10.284
16570TIP3    H116781   0.609   9.273  10.253
16570TIP3    H216782   0.494   9.180  10.264
16571TIP3   OH216783   0.188   8.207   9.115
16571TIP3    H116784   0.241   8.223   9.194
16571TIP3    H216785   0.136   8.129   9.139
16572TIP3   OH216786   1.442   8.842   9.315
16572TIP3    H116787   1.442   8.811   9.223
16572TIP3    H216788   1.529   8.809   9.345
16573TIP3   OH216789   1.183   7.717   9.725
16573TIP3    H116790   1.271   7.699   9.764
16573TIP3    H216791   1.210   7.760   9.641
16574TIP3   OH216792   0.697   7.646   9.384
16574TIP3    H116793   0.659   7.606   9.302
16574TIP3    H216794   0.793   7.649   9.364
16575TIP3   OH216795   0.384   8.016   9.344
16575TIP3    H116796   0.445   8.003   9.268
16575TIP3    H216797   0.362   8.111   9.338
16576TIP3   OH216798   1.170   8.180   9.573
16576TIP3    H116799   1.244   8.194   9.511
16576TIP3    H216800   1.170   8.268   9.617
16577TIP3   OH216801   1.158   8.187  10.098
16577TIP3    H116802   1.256   8.177  10.110
16577TIP3    H216803   1.128   8.173  10.190
16578TIP3   OH216804   0.636   8.262  10.213
16578TIP3    H116805   0.660   8.347  10.257
16578TIP3    H216806   0.565   8.231  10.272
16579TIP3   OH216807   0.744   8.269   9.084
16579TIP3    H116808   0.792   8.189   9.052
16579TIP3    H216809   0.658   8.258   9.040
16580TIP3   OH216810   0.545   8.227   9.915
16580TIP3    H116811   0.566   8.313   9.957
16580TIP3    H216812   0.525   8.172   9.994
16581TIP3   OH216813   1.430   8.192   9.454
16581TIP3    H116814   1.394   8.224   9.370
16581TIP3    H216815   1.460   8.103   9.427
16582TIP3   OH216816   1.744   7.920   9.991
16582TIP3    H116817   1.666   7.910   9.934
16582TIP3    H216818   1.710   7.908  10.081
16583TIP3   OH216819   1.616   7.958  10.467
16583TIP3    H116820   1.586   7.950  10.558
16583TIP3    H216821   1.656   8.047  10.466
16584TIP3   OH216822   0.606   8.387   9.495
16584TIP3    H116823   0.561   8.310   9.537
16584TIP3    H216824   0.660   8.336   9.431
16585TIP3   OH216825   0.925   7.940   9.987
16585TIP3    H116826   1.021   7.941   9.967
16585TIP3    H216827   0.884   7.916   9.902
16586TIP3   OH216828   1.427   8.123  10.116
16586TIP3    H116829   1.511   8.150  10.160
16586TIP3    H216830   1.420   8.028  10.139
16587TIP3   OH216831   1.113   8.104  10.353
16587TIP3    H116832   1.016   8.120  10.354
16587TIP3    H216833   1.144   8.156  10.430
16588TIP3   OH216834   0.438   7.848   9.697
16588TIP3    H116835   0.507   7.845   9.629
16588TIP3    H216836   0.483   7.805   9.773
16589TIP3   OH216837   1.185   8.223  10.600
16589TIP3    H116838   1.187   8.159  10.672
16589TIP3    H216839   1.103   8.274  10.623
16590TIP3   OH216840   1.401   8.652   9.069
16590TIP3    H116841   1.343   8.687   8.998
16590TIP3    H216842   1.488   8.646   9.024
16591TIP3   OH216843   0.836   8.219   9.833
16591TIP3    H116844   0.750   8.185   9.862
16591TIP3    H216845   0.874   8.142   9.788
16592TIP3   OH216846   1.370   7.859  10.155
16592TIP3    H116847   1.409   7.772  10.129
16592TIP3    H216848   1.331   7.838  10.241
16593TIP3   OH216849   0.942   8.032   9.563
16593TIP3    H116850   1.015   8.098   9.567
16593TIP3    H216851   0.873   8.081   9.515
16594TIP3   OH216852   0.895   8.659  10.366
16594TIP3    H116853   0.974   8.615  10.404
16594TIP3    H216854   0.934   8.704  10.288
16595TIP3   OH216855   0.156   8.617   9.491
16595TIP3    H116856   0.114   8.686   9.547
16595TIP3    H216857   0.241   8.605   9.536
16596TIP3   OH216858   0.502   7.959  10.562
16596TIP3    H116859   0.557   7.968  10.641
16596TIP3    H216860   0.491   8.051  10.532
16597TIP3   OH216861   0.776   8.705   9.263
16597TIP3    H116862   0.778   8.663   9.176
16597TIP3    H216863   0.790   8.798   9.242
16598TIP3   OH216864   0.430   8.187  10.404
16598TIP3    H116865   0.369   8.145  10.340
16598TIP3    H216866   0.378   8.264  10.427
16599TIP3   OH216867   1.374   8.646   9.834
16599TIP3    H116868   1.301   8.621   9.893
16599TIP3    H216869   1.371   8.574   9.770
16600TIP3   OH216870   0.693   8.831  10.434
16600TIP3    H116871   0.734   8.920  10.444
16600TIP3    H216872   0.772   8.774  10.422
16601TIP3   OH216873   1.687   8.455   9.261
16601TIP3    H116874   1.676   8.384   9.196
16601TIP3    H216875   1.735   8.411   9.334
16602TIP3   OH216876   0.970   8.409   9.112
16602TIP3    H116877   1.010   8.353   9.180
16602TIP3    H216878   0.878   8.372   9.110
16603TIP3   OH216879   0.541   8.996   9.277
16603TIP3    H116880   0.630   9.033   9.292
16603TIP3    H216881   0.535   9.000   9.180
16604TIP3   OH216882   0.135   9.043  10.384
16604TIP3    H116883   0.200   8.986  10.340
16604TIP3    H216884   0.129   9.007  10.475
16605TIP3   OH216885   0.358   8.531   9.661
16605TIP3    H116886   0.454   8.520   9.652
16605TIP3    H216887   0.342   8.480   9.744
16606TIP3   OH216888   1.136   8.953  10.043
16606TIP3    H116889   1.091   9.030  10.083
16606TIP3    H216890   1.226   8.965  10.077
16607TIP3   OH216891   1.006   8.743  10.136
16607TIP3    H116892   1.053   8.827  10.111
16607TIP3    H216893   1.039   8.681  10.069
16608TIP3   OH216894   0.944   9.185   9.443
16608TIP3    H116895   0.938   9.281   9.424
16608TIP3    H216896   0.870   9.147   9.392
16609TIP3   OH216897   1.103   9.192  10.170
16609TIP3    H116898   1.198   9.209  10.158
16609TIP3    H216899   1.071   9.275  10.131
16610TIP3   OH216900   0.625   8.734   9.518
16610TIP3    H116901   0.651   8.720   9.425
16610TIP3    H216902   0.594   8.646   9.544
16611TIP3   OH216903   0.371   8.866  10.577
16611TIP3    H116904   0.339   8.819  10.497
16611TIP3    H216905   0.466   8.853  10.565
16612TIP3   OH216906   0.334   9.200   9.284
16612TIP3    H116907   0.417   9.151   9.303
16612TIP3    H216908   0.350   9.292   9.310
16613TIP3   OH216909   1.476   7.953   9.325
16613TIP3    H116910   1.547   7.988   9.267
16613TIP3    H216911   1.475   7.860   9.296
16614TIP3   OH216912   0.272   8.701  10.372
16614TIP3    H116913   0.310   8.617  10.338
16614TIP3    H216914   0.177   8.683  10.359
16615TIP3   OH216915   1.517   9.115   9.487
16615TIP3    H116916   1.466   9.033   9.474
16615TIP3    H216917   1.485   9.172   9.415
16616TIP3   OH216918   1.107   8.923  10.517
16616TIP3    H116919   1.028   8.868  10.518
16616TIP3    H216920   1.073   9.011  10.491
16617TIP3   OH216921   0.631   7.924   9.405
16617TIP3    H116922   0.536   7.929   9.386
16617TIP3    H216923   0.649   7.829   9.388
16618TIP3   OH216924   0.566   7.892  10.279
16618TIP3    H116925   0.554   7.940  10.362
16618TIP3    H216926   0.526   7.953  10.213
16619TIP3   OH216927   0.783   9.078  10.479
16619TIP3    H116928   0.870   9.120  10.462
16619TIP3    H216929   0.773   9.100  10.575
16620TIP3   OH216930   0.828   8.070  10.273
16620TIP3    H116931   0.767   8.139  10.238
16620TIP3    H216932   0.868   8.033  10.193
16621TIP3   OH216933   0.736   8.172   9.344
16621TIP3    H116934   0.731   8.197   9.249
16621TIP3    H216935   0.699   8.081   9.348
16622TIP3   OH216936   0.766   7.737  10.182
16622TIP3    H116937   0.803   7.784  10.105
16622TIP3    H216938   0.685   7.793  10.198
16623TIP3   OH216939   1.038   9.180  10.437
16623TIP3    H116940   1.045   9.262  10.488
16623TIP3    H216941   1.087   9.200  10.354
16624TIP3   OH216942   1.187   7.839  10.401
16624TIP3    H116943   1.197   7.936  10.395
16624TIP3    H216944   1.090   7.830  10.400
16625TIP3   OH216945   0.140   7.918   9.249
16625TIP3    H116946   0.232   7.940   9.273
16625TIP3    H216947   0.095   7.931   9.333
16626TIP3   OH216948   0.313   8.343   9.851
16626TIP3    H116949   0.405   8.310   9.851
16626TIP3    H216950   0.266   8.275   9.798
16627TIP3   OH216951   0.099   9.198   9.660
16627TIP3    H116952   0.139   9.246   9.735
16627TIP3    H216953   0.069   9.274   9.608
16628TIP3   OH216954   1.436   7.651   9.784
16628TIP3    H116955   1.453   7.632   9.879
16628TIP3    H216956   1.474   7.573   9.739
16629TIP3   OH216957   1.590   9.020  10.257
16629TIP3    H116958   1.657   9.080  10.224
16629TIP3    H216959   1.510   9.060  10.217
16630TIP3   OH216960   1.650   9.294   9.051
16630TIP3    H116961   1.573   9.270   8.994
16630TIP3    H216962   1.691   9.206   9.067
16631TIP3   OH216963   1.137   9.148   8.860
16631TIP3    H116964   1.050   9.108   8.844
16631TIP3    H216965   1.151   9.126   8.954
16632TIP3   OH216966   0.781   9.110  10.739
16632TIP3    H116967   0.811   9.038  10.800
16632TIP3    H216968   0.774   9.189  10.794
16633TIP3   OH216969   0.540   9.051   9.000
16633TIP3    H116970   0.548   8.963   8.956
16633TIP3    H216971   0.449   9.075   8.972
16634TIP3   OH216972   1.661   8.653   8.971
16634TIP3    H116973   1.704   8.566   8.974
16634TIP3    H216974   1.711   8.704   9.039
16635TIP3   OH216975   0.992   8.664   9.046
16635TIP3    H116976   1.010   8.727   9.119
16635TIP3    H216977   0.983   8.577   9.092
16636TIP3   OH216978   0.435   8.682   9.249
16636TIP3    H116979   0.347   8.727   9.248
16636TIP3    H216980   0.495   8.758   9.242
16637TIP3   OH216981   1.510   8.357   9.011
16637TIP3    H116982   1.429   8.313   8.980
16637TIP3    H216983   1.512   8.435   8.951
16638TIP3   OH216984   1.092   8.531  10.493
16638TIP3    H116985   1.141   8.469  10.437
16638TIP3    H216986   1.043   8.475  10.556
16639TIP3   OH216987   1.176   8.305   9.321
16639TIP3    H116988   1.227   8.384   9.302
16639TIP3    H216989   1.104   8.341   9.376
16640TIP3   OH216990   0.960   8.345  10.661
16640TIP3    H116991   0.959   8.317  10.754
16640TIP3    H216992   0.863   8.351  10.645
16641TIP3   OH216993   0.645   8.544   8.920
16641TIP3    H116994   0.581   8.514   8.987
16641TIP3    H216995   0.677   8.459   8.885
16642TIP3   OH216996   1.056   8.085   9.212
16642TIP3    H116997   1.061   8.010   9.276
16642TIP3    H216998   1.082   8.161   9.268
16643TIP3   OH216999   1.078   7.864   9.411
16643TIP3    H117000   1.033   7.917   9.481
16643TIP3    H217001   1.172   7.866   9.439
16644TIP3   OH217002   0.951   8.450   9.411
16644TIP3    H117003   0.866   8.496   9.422
16644TIP3    H217004   1.011   8.517   9.451
16645TIP3   OH217005   0.462   8.200   8.900
16645TIP3    H117006   0.474   8.106   8.877
16645TIP3    H217007   0.378   8.197   8.950
16646TIP3   OH217008   0.324   8.506   9.052
16646TIP3    H117009   0.342   8.575   9.119
16646TIP3    H217010   0.231   8.482   9.072
16647TIP3   OH217011   1.258   8.130   8.982
16647TIP3    H117012   1.338   8.087   9.020
16647TIP3    H217013   1.199   8.132   9.059
16648TIP3   OH217014   0.968   7.622   9.410
16648TIP3    H117015   1.004   7.713   9.397
16648TIP3    H217016   1.047   7.577   9.441
16649TIP3   OH217017   0.872   8.039   8.989
16649TIP3    H117018   0.932   8.032   8.914
16649TIP3    H217019   0.934   8.030   9.064
16650TIP3   OH217020   0.576   7.964   9.111
16650TIP3    H117021   0.659   7.924   9.081
16650TIP3    H217022   0.510   7.910   9.062
16651TIP3   OH217023   0.412   7.815   8.948
16651TIP3    H117024   0.436   7.721   8.933
16651TIP3    H217025   0.446   7.858   8.866
16652TIP3   OH217026   1.469   7.964   9.002
16652TIP3    H117027   1.480   7.878   9.048
16652TIP3    H217028   1.478   7.937   8.908
16653TIP3   OH217029   1.030   7.572   9.149
16653TIP3    H117030   0.951   7.519   9.128
16653TIP3    H217031   1.019   7.574   9.246
16654TIP3   OH217032   0.989   7.680   8.856
16654TIP3    H117033   1.018   7.639   8.940
16654TIP3    H217034   0.999   7.774   8.879
16655TIP3   OH217035   1.659   9.216   9.937
16655TIP3    H117036   1.746   9.207   9.895
16655TIP3    H217037   1.605   9.242   9.859
16656TIP3   OH217038  -0.029   9.213   9.345
16656TIP3    H117039   0.014   9.154   9.409
16656TIP3    H217040  -0.059   9.151   9.277
16657TIP3   OH217041   0.127   8.838   8.866
16657TIP3    H117042   0.216   8.850   8.824
16657TIP3    H217043   0.080   8.923   8.850
16658TIP3   OH217044   0.001   8.630  10.349
16658TIP3    H117045  -0.060   8.706  10.362
16658TIP3    H217046   0.005   8.625  10.252
16659TIP3   OH217047   9.327   8.764   9.631
16659TIP3    H117048   9.267   8.692   9.662
16659TIP3    H217049   9.297   8.839   9.687
16660TIP3   OH217050   0.128   8.998   9.422
16660TIP3    H117051   0.198   9.056   9.387
16660TIP3    H217052   0.147   8.998   9.517
16661TIP3   OH217053   0.186   8.323  10.096
16661TIP3    H117054   0.188   8.227  10.106
16661TIP3    H217055   0.214   8.337  10.003
16662TIP3   OH217056   1.684   8.554   9.688
16662TIP3    H117057   1.681   8.524   9.782
16662TIP3    H217058   1.593   8.526   9.662
16663TIP3   OH217059   0.050   8.499   9.098
16663TIP3    H117060   0.040   8.402   9.086
16663TIP3    H217061   0.013   8.513   9.188
16664TIP3   OH217062   0.223   8.081  10.252
16664TIP3    H117063   0.228   7.982  10.249
16664TIP3    H217064   0.129   8.093  10.270
16665TIP3   OH217065   0.172   8.150   9.712
16665TIP3    H117066   0.073   8.150   9.707
16665TIP3    H217067   0.192   8.153   9.617
16666TIP3   OH217068   0.133   8.218   9.426
16666TIP3    H117069   0.207   8.276   9.401
16666TIP3    H217070   0.064   8.283   9.453
16667TIP3   OH217071   1.687   8.066   9.114
16667TIP3    H117072   1.610   8.034   9.063
16667TIP3    H217073   1.752   7.994   9.095
16668TIP3   OH217074   0.177   7.816  10.256
16668TIP3    H117075   0.145   7.776  10.172
16668TIP3    H217076   0.217   7.740  10.302
16669TIP3   OH217077   1.573   7.890   9.782
16669TIP3    H117078   1.528   7.804   9.771
16669TIP3    H217079   1.501   7.953   9.765
16670TIP3   OH217080   1.737   8.204   9.696
16670TIP3    H117081   1.678   8.177   9.769
16670TIP3    H217082   1.688   8.281   9.664
16671TIP3   OH217083   1.757   7.823  10.261
16671TIP3    H117084   1.837   7.798  10.307
16671TIP3    H217085   1.698   7.835  10.337
16672TIP3   OH217086   0.238   9.297  10.093
16672TIP3    H117087   0.162   9.270  10.147
16672TIP3    H217088   0.193   9.330  10.014
16673TIP3   OH217089   1.719   7.666   9.459
16673TIP3    H117090   1.782   7.642   9.389
16673TIP3    H217091   1.762   7.738   9.507
16674TIP3   OH217092   1.505   8.978   9.038
16674TIP3    H117093   1.590   9.004   9.075
16674TIP3    H217094   1.518   9.000   8.944
16675TIP3   OH217095   1.201   9.104   9.398
16675TIP3    H117096   1.225   9.197   9.410
16675TIP3    H217097   1.103   9.110   9.402
16676TIP3   OH217098   0.806   9.231   9.098
16676TIP3    H117099   0.802   9.214   9.001
16676TIP3    H217100   0.713   9.257   9.113
16677TIP3   OH217101   0.113   7.623   9.249
16677TIP3    H117102   0.167   7.689   9.295
16677TIP3    H217103   0.101   7.554   9.317
16678TIP3   OH217104   0.574   9.233   9.425
16678TIP3    H117105   0.640   9.294   9.465
16678TIP3    H217106   0.496   9.263   9.474
16679TIP3   OH217107   1.522   9.260   9.710
16679TIP3    H117108   1.538   9.221   9.621
16679TIP3    H217109   1.444   9.205   9.741
16680TIP3   OH217110   1.316   9.149   9.832
16680TIP3    H117111   1.317   9.051   9.820
16680TIP3    H217112   1.230   9.170   9.787
16681TIP3   OH217113   1.083   9.147   9.698
16681TIP3    H117114   1.047   9.059   9.717
16681TIP3    H217115   1.051   9.164   9.608
16682TIP3   OH217116   0.720   7.753   9.883
16682TIP3    H117117   0.810   7.736   9.855
16682TIP3    H217118   0.685   7.665   9.899
16683TIP3   OH217119   0.191   7.563   9.841
16683TIP3    H117120   0.143   7.626   9.900
16683TIP3    H217121   0.283   7.592   9.860
16684TIP3   OH217122   0.063   7.710  10.023
16684TIP3    H117123  -0.005   7.663  10.077
16684TIP3    H217124   0.010   7.785   9.988
16685TIP3   OH217125   1.481   7.627  10.057
16685TIP3    H117126   1.568   7.614  10.100
16685TIP3    H217127   1.439   7.541  10.077
16686TIP3   OH217128   1.562   7.592  10.458
16686TIP3    H117129   1.533   7.636  10.541
16686TIP3    H217130   1.656   7.610  10.453
16687TIP3   OH217131   1.014   7.548  10.069
16687TIP3    H117132   0.971   7.613  10.125
16687TIP3    H217133   1.004   7.587   9.981
16688TIP3   OH217134   0.438   7.637   9.924
16688TIP3    H117135   0.450   7.650  10.018
16688TIP3    H217136   0.492   7.555   9.910
16689TIP3   OH217137   0.343   7.621  10.370
16689TIP3    H117138   0.408   7.686  10.339
16689TIP3    H217139   0.386   7.535  10.351
16690TIP3   OH217140   1.439   7.763  10.655
16690TIP3    H117141   1.498   7.793  10.729
16690TIP3    H217142   1.387   7.842  10.636
16691TIP3   OH217143   0.908   7.832  10.394
16691TIP3    H117144   0.850   7.792  10.327
16691TIP3    H217145   0.877   7.925  10.386
16692TIP3   OH217146   0.026   9.254  10.266
16692TIP3    H117147   0.069   9.177  10.309
16692TIP3    H217148   0.054   9.327  10.326
16693TIP3   OH217149   1.500   7.689   9.140
16693TIP3    H117150   1.554   7.609   9.122
16693TIP3    H217151   1.422   7.675   9.082
16694TIP3   OH217152   1.313   7.633   8.947
16694TIP3    H117153   1.236   7.580   8.968
16694TIP3    H217154   1.365   7.572   8.891
16695TIP3   OH217155   1.391   9.273  10.630
16695TIP3    H117156   1.428   9.344  10.576
16695TIP3    H217157   1.380   9.314  10.718
16696TIP3   OH217158   0.460   7.553   8.919
16696TIP3    H117159   0.448   7.512   8.830
16696TIP3    H217160   0.371   7.533   8.956
16697TIP3   OH217161   0.160   9.182   9.064
16697TIP3    H117162   0.236   9.173   9.125
16697TIP3    H217163   0.115   9.260   9.103
16698TIP3   OH217164   8.252   0.820   8.759
16698TIP3    H117165   8.179   0.856   8.704
16698TIP3    H217166   8.205   0.743   8.797
16699TIP3   OH217167   8.018   0.890   8.636
16699TIP3    H117168   7.996   0.921   8.546
16699TIP3    H217169   7.954   0.941   8.692
16700TIP3   OH217170   7.642   0.056   8.553
16700TIP3    H117171   7.736   0.033   8.561
16700TIP3    H217172   7.631   0.134   8.614
16701TIP3   OH217173   7.534   1.514   8.785
16701TIP3    H117174   7.510   1.609   8.776
16701TIP3    H217175   7.456   1.475   8.741
16702TIP3   OH217176   7.943   1.738   8.678
16702TIP3    H117177   7.920   1.680   8.754
16702TIP3    H217178   7.898   1.690   8.606
16703TIP3   OH217179   7.835   1.038   8.756
16703TIP3    H117180   7.872   1.063   8.842
16703TIP3    H217181   7.741   1.027   8.782
16704TIP3   OH217182   8.303   0.404   8.772
16704TIP3    H117183   8.322   0.398   8.677
16704TIP3    H217184   8.338   0.318   8.802
16705TIP3   OH217185   8.683   0.410   8.841
16705TIP3    H117186   8.720   0.364   8.763
16705TIP3    H217187   8.715   0.501   8.832
16706TIP3   OH217188   9.220   0.431   8.614
16706TIP3    H117189   9.127   0.422   8.638
16706TIP3    H217190   9.232   0.527   8.623
16707TIP3   OH217191   8.735   0.705   8.711
16707TIP3    H117192   8.804   0.679   8.775
16707TIP3    H217193   8.666   0.738   8.772
16708TIP3   OH217194   8.026   0.411   8.693
16708TIP3    H117195   8.121   0.432   8.701
16708TIP3    H217196   7.991   0.486   8.639
16709TIP3   OH217197   7.959   0.630   8.549
16709TIP3    H117198   7.870   0.629   8.511
16709TIP3    H217199   7.956   0.707   8.608
16710TIP3   OH217200   8.201   1.280   8.602
16710TIP3    H117201   8.259   1.358   8.599
16710TIP3    H217202   8.259   1.211   8.568
16711TIP3   OH217203   7.476   0.641   8.560
16711TIP3    H117204   7.516   0.582   8.626
16711TIP3    H217205   7.482   0.727   8.607
16712TIP3   OH217206   9.123   0.952   8.782
16712TIP3    H117207   9.071   0.974   8.701
16712TIP3    H217208   9.214   0.965   8.753
16713TIP3   OH217209   7.863   1.336   8.716
16713TIP3    H117210   7.881   1.364   8.626
16713TIP3    H217211   7.949   1.297   8.741
16714TIP3   OH217212   7.459   1.752   8.699
16714TIP3    H117213   7.388   1.817   8.700
16714TIP3    H217214   7.521   1.795   8.637
16715TIP3   OH217215   8.456   1.432   8.892
16715TIP3    H117216   8.497   1.367   8.950
16715TIP3    H217217   8.498   1.408   8.806
16716TIP3   OH217218   8.593   1.353   8.654
16716TIP3    H117219   8.611   1.301   8.574
16716TIP3    H217220   8.623   1.441   8.625
16717TIP3   OH217221   9.001   1.055   8.567
16717TIP3    H117222   8.998   1.056   8.471
16717TIP3    H217223   8.935   1.123   8.591
16718TIP3   OH217224   8.378   1.541   8.609
16718TIP3    H117225   8.468   1.571   8.587
16718TIP3    H217226   8.337   1.623   8.642
16719TIP3   OH217227   8.641   1.603   8.539
16719TIP3    H117228   8.641   1.657   8.621
16719TIP3    H217229   8.631   1.673   8.474
16720TIP3   OH217230   8.793   0.304   8.616
16720TIP3    H117231   8.841   0.366   8.559
16720TIP3    H217232   8.704   0.307   8.574
16721TIP3   OH217233   8.895   1.303   8.689
16721TIP3    H117234   8.835   1.361   8.642
16721TIP3    H217235   8.836   1.266   8.758
16722TIP3   OH217236   9.060   0.632   8.791
16722TIP3    H117237   9.071   0.723   8.761
16722TIP3    H217238   9.141   0.618   8.841
16723TIP3   OH217239   8.280   1.632   8.873
16723TIP3    H117240   8.335   1.550   8.875
16723TIP3    H217241   8.199   1.599   8.918
16724TIP3   OH217242   7.845   1.571   8.877
16724TIP3    H117243   7.819   1.511   8.804
16724TIP3    H217244   7.763   1.571   8.931
16725TIP3   OH217245   8.728   1.163   8.872
16725TIP3    H117246   8.676   1.132   8.795
16725TIP3    H217247   8.663   1.140   8.942
16726TIP3   OH217248   8.141   1.290   8.874
16726TIP3    H117249   8.164   1.286   8.778
16726TIP3    H217250   8.176   1.201   8.903
16727TIP3   OH217251   8.624   0.986   8.660
16727TIP3    H117252   8.645   0.923   8.590
16727TIP3    H217253   8.604   0.923   8.732
16728TIP3   OH217254   8.520   0.829   8.845
16728TIP3    H117255   8.522   0.862   8.938
16728TIP3    H217256   8.424   0.819   8.828
16729TIP3   OH217257   7.585   1.031   8.865
16729TIP3    H117258   7.598   0.998   8.956
16729TIP3    H217259   7.583   1.129   8.880
16730TIP3   OH217260   8.513   1.830   8.614
16730TIP3    H117261   8.418   1.850   8.609
16730TIP3    H217262   8.539   1.882   8.691
16731TIP3   OH217263   9.156   1.332   8.684
16731TIP3    H117264   9.061   1.310   8.697
16731TIP3    H217265   9.195   1.309   8.769
16732TIP3   OH217266   7.427   0.918   8.674
16732TIP3    H117267   7.479   0.947   8.753
16732TIP3    H217268   7.458   0.981   8.607
16733TIP3   OH217269   7.649   0.641   8.810
16733TIP3    H117270   7.613   0.689   8.886
16733TIP3    H217271   7.673   0.554   8.849
16734TIP3   OH217272   7.685   0.386   8.898
16734TIP3    H117273   7.619   0.340   8.843
16734TIP3    H217274   7.766   0.348   8.862
16735TIP3   OH217275   7.515   0.256   8.703
16735TIP3    H117276   7.483   0.201   8.779
16735TIP3    H217277   7.430   0.293   8.671
16736TIP3   OH217278   9.145   0.101   8.642
16736TIP3    H117279   9.129   0.179   8.700
16736TIP3    H217280   9.177   0.145   8.562
16737TIP3   OH217281   8.995   0.271   8.781
16737TIP3    H117282   8.948   0.220   8.851
16737TIP3    H217283   8.924   0.266   8.713
16738TIP3   OH217284   8.225   1.786   8.666
16738TIP3    H117285   8.130   1.797   8.678
16738TIP3    H217286   8.248   1.744   8.753
16739TIP3   OH217287   9.001   1.742   8.814
16739TIP3    H117288   9.020   1.760   8.720
16739TIP3    H217289   8.924   1.683   8.806
16740TIP3   OH217290   6.377   0.816   8.759
16740TIP3    H117291   6.306   0.857   8.706
16740TIP3    H217292   6.324   0.746   8.803
16741TIP3   OH217293   6.131   0.888   8.637
16741TIP3    H117294   6.108   0.913   8.545
16741TIP3    H217295   6.071   0.944   8.693
16742TIP3   OH217296   5.746   0.059   8.551
16742TIP3    H117297   5.839   0.033   8.559
16742TIP3    H217298   5.735   0.134   8.614
16743TIP3   OH217299   5.643   1.510   8.793
16743TIP3    H117300   5.624   1.605   8.778
16743TIP3    H217301   5.570   1.472   8.741
16744TIP3   OH217302   6.062   1.732   8.682
16744TIP3    H117303   6.035   1.676   8.758
16744TIP3    H217304   6.016   1.684   8.610
16745TIP3   OH217305   5.952   1.042   8.754
16745TIP3    H117306   5.989   1.065   8.841
16745TIP3    H217307   5.858   1.031   8.779
16746TIP3   OH217308   6.425   0.396   8.771
16746TIP3    H117309   6.436   0.391   8.675
16746TIP3    H217310   6.447   0.305   8.796
16747TIP3   OH217311   6.808   0.406   8.840
16747TIP3    H117312   6.841   0.360   8.760
16747TIP3    H217313   6.843   0.496   8.829
16748TIP3   OH217314   7.328   0.411   8.605
16748TIP3    H117315   7.241   0.435   8.640
16748TIP3    H217316   7.361   0.498   8.575
16749TIP3   OH217317   6.842   0.701   8.706
16749TIP3    H117318   6.921   0.701   8.763
16749TIP3    H217319   6.772   0.732   8.767
16750TIP3   OH217320   6.130   0.426   8.710
16750TIP3    H117321   6.228   0.436   8.707
16750TIP3    H217322   6.100   0.485   8.638
16751TIP3   OH217323   6.075   0.637   8.547
16751TIP3    H117324   5.978   0.632   8.544
16751TIP3    H217325   6.090   0.712   8.607
16752TIP3   OH217326   6.332   1.279   8.605
16752TIP3    H117327   6.385   1.361   8.598
16752TIP3    H217328   6.397   1.210   8.584
16753TIP3   OH217329   5.588   0.646   8.557
16753TIP3    H117330   5.622   0.583   8.623
16753TIP3    H217331   5.597   0.730   8.606
16754TIP3   OH217332   7.157   0.928   8.753
16754TIP3    H117333   7.132   1.009   8.703
16754TIP3    H217334   7.251   0.921   8.725
16755TIP3   OH217335   5.980   1.339   8.715
16755TIP3    H117336   5.987   1.358   8.620
16755TIP3    H217337   6.071   1.309   8.733
16756TIP3   OH217338   5.573   1.745   8.695
16756TIP3    H117339   5.503   1.812   8.698
16756TIP3    H217340   5.636   1.789   8.635
16757TIP3   OH217341   6.591   1.424   8.887
16757TIP3    H117342   6.629   1.372   8.960
16757TIP3    H217343   6.639   1.384   8.811
16758TIP3   OH217344   6.729   1.357   8.641
16758TIP3    H117345   6.693   1.316   8.560
16758TIP3    H217346   6.747   1.448   8.608
16759TIP3   OH217347   7.095   1.110   8.572
16759TIP3    H117348   7.107   1.033   8.514
16759TIP3    H217349   6.998   1.124   8.563
16760TIP3   OH217350   6.486   1.526   8.605
16760TIP3    H117351   6.580   1.549   8.594
16760TIP3    H217352   6.454   1.605   8.651
16761TIP3   OH217353   6.754   1.602   8.533
16761TIP3    H117354   6.758   1.673   8.601
16761TIP3    H217355   6.735   1.655   8.454
16762TIP3   OH217356   6.924   0.307   8.615
16762TIP3    H117357   6.923   0.391   8.565
16762TIP3    H217358   6.845   0.269   8.571
16763TIP3   OH217359   7.043   1.374   8.718
16763TIP3    H117360   6.971   1.411   8.665
16763TIP3    H217361   6.996   1.300   8.759
16764TIP3   OH217362   7.202   0.640   8.752
16764TIP3    H117363   7.180   0.735   8.742
16764TIP3    H217364   7.284   0.643   8.802
16765TIP3   OH217365   6.402   1.626   8.873
16765TIP3    H117366   6.456   1.544   8.877
16765TIP3    H217367   6.319   1.595   8.917
16766TIP3   OH217368   5.959   1.570   8.877
16766TIP3    H117369   5.942   1.503   8.808
16766TIP3    H217370   5.876   1.565   8.929
16767TIP3   OH217371   6.846   1.139   8.884
16767TIP3    H117372   6.801   1.112   8.802
16767TIP3    H217373   6.774   1.129   8.950
16768TIP3   OH217374   6.259   1.289   8.876
16768TIP3    H117375   6.280   1.282   8.780
16768TIP3    H217376   6.290   1.201   8.908
16769TIP3   OH217377   6.721   0.976   8.656
16769TIP3    H117378   6.768   0.910   8.603
16769TIP3    H217379   6.681   0.917   8.726
16770TIP3   OH217380   6.632   0.818   8.846
16770TIP3    H117381   6.634   0.856   8.937
16770TIP3    H217382   6.535   0.808   8.832
16771TIP3   OH217383   5.699   1.027   8.854
16771TIP3    H117384   5.712   0.996   8.946
16771TIP3    H217385   5.695   1.126   8.867
16772TIP3   OH217386   6.633   1.830   8.626
16772TIP3    H117387   6.536   1.823   8.641
16772TIP3    H217388   6.658   1.893   8.696
16773TIP3   OH217389   7.318   1.324   8.733
16773TIP3    H117390   7.221   1.336   8.728
16773TIP3    H217391   7.323   1.257   8.805
16774TIP3   OH217392   5.537   0.917   8.671
16774TIP3    H117393   5.591   0.948   8.747
16774TIP3    H217394   5.569   0.976   8.600
16775TIP3   OH217395   5.765   0.647   8.811
16775TIP3    H117396   5.726   0.689   8.889
16775TIP3    H217397   5.787   0.557   8.845
16776TIP3   OH217398   5.797   0.385   8.883
16776TIP3    H117399   5.734   0.340   8.823
16776TIP3    H217400   5.882   0.349   8.854
16777TIP3   OH217401   5.627   0.255   8.700
16777TIP3    H117402   5.599   0.197   8.775
16777TIP3    H217403   5.540   0.291   8.670
16778TIP3   OH217404   7.253   0.084   8.609
16778TIP3    H117405   7.212   0.149   8.670
16778TIP3    H217406   7.255   0.136   8.527
16779TIP3   OH217407   7.117   0.222   8.790
16779TIP3    H117408   7.063   0.187   8.865
16779TIP3    H217409   7.042   0.236   8.728
16780TIP3   OH217410   6.368   1.791   8.673
16780TIP3    H117411   6.276   1.819   8.683
16780TIP3    H217412   6.379   1.742   8.759
16781TIP3   OH217413   7.147   1.762   8.838
16781TIP3    H117414   7.170   1.813   8.758
16781TIP3    H217415   7.078   1.704   8.805
16782TIP3   OH217416   4.486   0.813   8.759
16782TIP3    H117417   4.413   0.858   8.712
16782TIP3    H217418   4.436   0.736   8.791
16783TIP3   OH217419   4.246   0.889   8.643
16783TIP3    H117420   4.228   0.918   8.552
16783TIP3    H217421   4.183   0.943   8.697
16784TIP3   OH217422   3.865   0.055   8.548
16784TIP3    H117423   3.958   0.030   8.549
16784TIP3    H217424   3.856   0.129   8.612
16785TIP3   OH217425   3.756   1.498   8.784
16785TIP3    H117426   3.736   1.592   8.766
16785TIP3    H217427   3.675   1.457   8.748
16786TIP3   OH217428   4.174   1.737   8.685
16786TIP3    H117429   4.146   1.681   8.761
16786TIP3    H217430   4.132   1.687   8.613
16787TIP3   OH217431   4.066   1.044   8.756
16787TIP3    H117432   4.104   1.067   8.843
16787TIP3    H217433   3.972   1.029   8.782
16788TIP3   OH217434   4.535   0.400   8.772
16788TIP3    H117435   4.550   0.394   8.677
16788TIP3    H217436   4.562   0.311   8.800
16789TIP3   OH217437   4.916   0.403   8.838
16789TIP3    H117438   4.954   0.354   8.762
16789TIP3    H217439   4.959   0.490   8.833
16790TIP3   OH217440   5.433   0.402   8.599
16790TIP3    H117441   5.346   0.416   8.639
16790TIP3    H217442   5.454   0.493   8.572
16791TIP3   OH217443   4.959   0.697   8.705
16791TIP3    H117444   5.037   0.700   8.762
16791TIP3    H217445   4.889   0.727   8.767
16792TIP3   OH217446   4.243   0.426   8.707
16792TIP3    H117447   4.341   0.435   8.710
16792TIP3    H217448   4.217   0.486   8.634
16793TIP3   OH217449   4.191   0.639   8.545
16793TIP3    H117450   4.094   0.635   8.543
16793TIP3    H217451   4.207   0.710   8.610
16794TIP3   OH217452   4.439   1.271   8.595
16794TIP3    H117453   4.490   1.354   8.592
16794TIP3    H217454   4.508   1.205   8.579
16795TIP3   OH217455   3.700   0.647   8.563
16795TIP3    H117456   3.742   0.584   8.625
16795TIP3    H217457   3.710   0.731   8.612
16796TIP3   OH217458   5.273   0.926   8.755
16796TIP3    H117459   5.244   1.005   8.703
16796TIP3    H217460   5.365   0.917   8.722
16797TIP3   OH217461   4.095   1.342   8.715
16797TIP3    H117462   4.100   1.362   8.621
16797TIP3    H217463   4.186   1.311   8.732
16798TIP3   OH217464   3.697   1.744   8.703
16798TIP3    H117465   3.625   1.808   8.698
16798TIP3    H217466   3.762   1.787   8.644
16799TIP3   OH217467   4.713   1.426   8.886
16799TIP3    H117468   4.748   1.379   8.963
16799TIP3    H217469   4.759   1.377   8.813
16800TIP3   OH217470   4.841   1.352   8.645
16800TIP3    H117471   4.798   1.313   8.566
16800TIP3    H217472   4.858   1.443   8.612
16801TIP3   OH217473   5.206   1.109   8.582
16801TIP3    H117474   5.222   1.036   8.518
16801TIP3    H217475   5.112   1.124   8.567
16802TIP3   OH217476   4.591   1.512   8.593
16802TIP3    H117477   4.684   1.541   8.593
16802TIP3    H217478   4.549   1.583   8.645
16803TIP3   OH217479   4.860   1.596   8.536
16803TIP3    H117480   4.870   1.664   8.606
16803TIP3    H217481   4.841   1.654   8.461
16804TIP3   OH217482   5.033   0.298   8.613
16804TIP3    H117483   5.036   0.383   8.566
16804TIP3    H217484   4.950   0.266   8.574
16805TIP3   OH217485   5.153   1.369   8.723
16805TIP3    H117486   5.084   1.400   8.663
16805TIP3    H217487   5.107   1.296   8.765
16806TIP3   OH217488   5.316   0.637   8.751
16806TIP3    H117489   5.279   0.726   8.746
16806TIP3    H217490   5.394   0.650   8.806
16807TIP3   OH217491   4.514   1.623   8.870
16807TIP3    H117492   4.572   1.545   8.881
16807TIP3    H217493   4.433   1.594   8.917
16808TIP3   OH217494   4.070   1.571   8.877
16808TIP3    H117495   4.051   1.510   8.803
16808TIP3    H217496   3.987   1.563   8.929
16809TIP3   OH217497   4.959   1.157   8.877
16809TIP3    H117498   4.921   1.131   8.791
16809TIP3    H217499   4.885   1.138   8.939
16810TIP3   OH217500   4.375   1.291   8.874
16810TIP3    H117501   4.397   1.284   8.779
16810TIP3    H217502   4.406   1.202   8.905
16811TIP3   OH217503   4.838   0.979   8.654
16811TIP3    H117504   4.900   0.916   8.612
16811TIP3    H217505   4.799   0.923   8.725
16812TIP3   OH217506   4.745   0.820   8.841
16812TIP3    H117507   4.748   0.858   8.931
16812TIP3    H217508   4.648   0.804   8.829
16813TIP3   OH217509   3.816   1.027   8.859
16813TIP3    H117510   3.827   0.999   8.953
16813TIP3    H217511   3.812   1.126   8.871
16814TIP3   OH217512   4.752   1.832   8.621
16814TIP3    H117513   4.656   1.822   8.640
16814TIP3    H217514   4.778   1.893   8.692
16815TIP3   OH217515   5.429   1.326   8.731
16815TIP3    H117516   5.332   1.333   8.725
16815TIP3    H217517   5.438   1.263   8.805
16816TIP3   OH217518   3.656   0.917   8.670
16816TIP3    H117519   3.709   0.944   8.748
16816TIP3    H217520   3.684   0.985   8.606
16817TIP3   OH217521   3.886   0.633   8.810
16817TIP3    H117522   3.844   0.678   8.885
16817TIP3    H217523   3.909   0.546   8.849
16818TIP3   OH217524   3.924   0.383   8.903
16818TIP3    H117525   3.853   0.342   8.852
16818TIP3    H217526   4.003   0.351   8.857
16819TIP3   OH217527   3.745   0.253   8.700
16819TIP3    H117528   3.715   0.196   8.775
16819TIP3    H217529   3.660   0.291   8.668
16820TIP3   OH217530   5.365   0.091   8.620
16820TIP3    H117531   5.344   0.152   8.694
16820TIP3    H217532   5.362   0.154   8.547
16821TIP3   OH217533   5.224   0.230   8.796
16821TIP3    H117534   5.173   0.189   8.869
16821TIP3    H217535   5.152   0.231   8.729
16822TIP3   OH217536   4.484   1.792   8.673
16822TIP3    H117537   4.394   1.825   8.687
16822TIP3    H217538   4.494   1.738   8.755
16823TIP3   OH217539   5.248   1.760   8.831
16823TIP3    H117540   5.264   1.810   8.748
16823TIP3    H217541   5.178   1.698   8.804
16824TIP3   OH217542   2.598   0.810   8.764
16824TIP3    H117543   2.528   0.852   8.709
16824TIP3    H217544   2.547   0.732   8.794
16825TIP3   OH217545   2.364   0.889   8.635
16825TIP3    H117546   2.343   0.918   8.545
16825TIP3    H217547   2.303   0.941   8.692
16826TIP3   OH217548   1.978   0.058   8.547
16826TIP3    H117549   2.071   0.032   8.554
16826TIP3    H217550   1.967   0.133   8.610
16827TIP3   OH217551   1.868   1.507   8.789
16827TIP3    H117552   1.850   1.600   8.769
16827TIP3    H217553   1.792   1.467   8.742
16828TIP3   OH217554   2.282   1.739   8.680
16828TIP3    H117555   2.255   1.681   8.755
16828TIP3    H217556   2.243   1.687   8.606
16829TIP3   OH217557   2.183   1.042   8.755
16829TIP3    H117558   2.219   1.060   8.843
16829TIP3    H217559   2.089   1.031   8.778
16830TIP3   OH217560   2.645   0.397   8.774
16830TIP3    H117561   2.662   0.393   8.678
16830TIP3    H217562   2.671   0.307   8.799
16831TIP3   OH217563   3.032   0.400   8.851
16831TIP3    H117564   3.073   0.360   8.772
16831TIP3    H217565   3.071   0.489   8.855
16832TIP3   OH217566   3.553   0.408   8.600
16832TIP3    H117567   3.463   0.425   8.635
16832TIP3    H217568   3.578   0.498   8.571
16833TIP3   OH217569   3.074   0.703   8.707
16833TIP3    H117570   3.152   0.699   8.764
16833TIP3    H217571   3.006   0.734   8.771
16834TIP3   OH217572   2.355   0.419   8.705
16834TIP3    H117573   2.451   0.436   8.700
16834TIP3    H217574   2.322   0.472   8.629
16835TIP3   OH217575   2.301   0.635   8.540
16835TIP3    H117576   2.204   0.631   8.540
16835TIP3    H217577   2.317   0.704   8.606
16836TIP3   OH217578   2.561   1.291   8.602
16836TIP3    H117579   2.617   1.370   8.593
16836TIP3    H217580   2.622   1.220   8.579
16837TIP3   OH217581   1.818   0.641   8.557
16837TIP3    H117582   1.867   0.583   8.618
16837TIP3    H217583   1.819   0.724   8.608
16838TIP3   OH217584   3.390   0.929   8.751
16838TIP3    H117585   3.361   1.010   8.703
16838TIP3    H217586   3.482   0.922   8.718
16839TIP3   OH217587   2.207   1.328   8.705
16839TIP3    H117588   2.229   1.356   8.615
16839TIP3    H217589   2.291   1.289   8.735
16840TIP3   OH217590   1.805   1.745   8.687
16840TIP3    H117591   1.732   1.808   8.686
16840TIP3    H217592   1.871   1.795   8.635
16841TIP3   OH217593   2.831   1.420   8.880
16841TIP3    H117594   2.869   1.373   8.956
16841TIP3    H217595   2.876   1.375   8.805
16842TIP3   OH217596   2.962   1.356   8.637
16842TIP3    H117597   2.926   1.318   8.556
16842TIP3    H217598   2.974   1.450   8.608
16843TIP3   OH217599   3.320   1.109   8.576
16843TIP3    H117600   3.338   1.036   8.514
16843TIP3    H217601   3.224   1.122   8.561
16844TIP3   OH217602   2.719   1.534   8.599
16844TIP3    H117603   2.810   1.567   8.590
16844TIP3    H217604   2.679   1.607   8.649
16845TIP3   OH217605   2.983   1.602   8.532
16845TIP3    H117606   2.990   1.673   8.599
16845TIP3    H217607   2.962   1.653   8.453
16846TIP3   OH217608   3.145   0.312   8.623
16846TIP3    H117609   3.141   0.399   8.579
16846TIP3    H217610   3.067   0.273   8.579
16847TIP3   OH217611   3.267   1.368   8.727
16847TIP3    H117612   3.207   1.391   8.654
16847TIP3    H217613   3.209   1.308   8.776
16848TIP3   OH217614   3.434   0.642   8.754
16848TIP3    H117615   3.405   0.735   8.744
16848TIP3    H217616   3.523   0.652   8.791
16849TIP3   OH217617   2.630   1.621   8.871
16849TIP3    H117618   2.688   1.541   8.874
16849TIP3    H217619   2.549   1.586   8.914
16850TIP3   OH217620   2.186   1.572   8.872
16850TIP3    H117621   2.163   1.512   8.798
16850TIP3    H217622   2.104   1.564   8.926
16851TIP3   OH217623   3.079   1.144   8.880
16851TIP3    H117624   3.046   1.103   8.798
16851TIP3    H217625   3.002   1.132   8.940
16852TIP3   OH217626   2.482   1.288   8.871
16852TIP3    H117627   2.510   1.287   8.777
16852TIP3    H217628   2.517   1.200   8.901
16853TIP3   OH217629   2.954   0.984   8.656
16853TIP3    H117630   2.991   0.916   8.596
16853TIP3    H217631   2.916   0.927   8.727
16854TIP3   OH217632   2.857   0.822   8.840
16854TIP3    H117633   2.856   0.858   8.931
16854TIP3    H217634   2.761   0.808   8.826
16855TIP3   OH217635   1.932   1.028   8.861
16855TIP3    H117636   1.942   0.995   8.953
16855TIP3    H217637   1.929   1.126   8.876
16856TIP3   OH217638   2.863   1.829   8.629
16856TIP3    H117639   2.769   1.820   8.652
16856TIP3    H217640   2.891   1.893   8.698
16857TIP3   OH217641   3.543   1.321   8.731
16857TIP3    H117642   3.445   1.330   8.727
16857TIP3    H217643   3.552   1.259   8.805
16858TIP3   OH217644   1.767   0.911   8.671
16858TIP3    H117645   1.819   0.943   8.748
16858TIP3    H217646   1.794   0.976   8.603
16859TIP3   OH217647   1.995   0.650   8.802
16859TIP3    H117648   1.955   0.687   8.882
16859TIP3    H217649   2.020   0.559   8.832
16860TIP3   OH217650   2.030   0.388   8.881
16860TIP3    H117651   1.966   0.340   8.824
16860TIP3    H217652   2.113   0.349   8.851
16861TIP3   OH217653   1.860   0.252   8.694
16861TIP3    H117654   1.826   0.193   8.766
16861TIP3    H217655   1.776   0.295   8.666
16862TIP3   OH217656   3.485   0.087   8.616
16862TIP3    H117657   3.470   0.153   8.688
16862TIP3    H217658   3.476   0.146   8.539
16863TIP3   OH217659   3.351   0.237   8.795
16863TIP3    H117660   3.301   0.196   8.869
16863TIP3    H217661   3.275   0.240   8.733
16864TIP3   OH217662   2.588   1.783   8.672
16864TIP3    H117663   2.500   1.819   8.687
16864TIP3    H217664   2.600   1.734   8.756
16865TIP3   OH217665   3.353   1.774   8.831
16865TIP3    H117666   3.382   1.819   8.748
16865TIP3    H217667   3.291   1.708   8.797
16866TIP3   OH217668   0.712   0.774   8.780
16866TIP3    H117669   0.649   0.808   8.714
16866TIP3    H217670   0.691   0.679   8.780
16867TIP3   OH217671   0.494   0.890   8.623
16867TIP3    H117672   0.488   0.965   8.561
16867TIP3    H217673   0.444   0.928   8.701
16868TIP3   OH217674   0.152   0.059   8.536
16868TIP3    H117675   0.242   0.029   8.552
16868TIP3    H217676   0.135   0.118   8.612
16869TIP3   OH217677   9.347   1.508   8.810
16869TIP3    H117678   9.350   1.601   8.837
16869TIP3    H217679   9.279   1.508   8.739
16870TIP3   OH217680   0.378   1.784   8.694
16870TIP3    H117681   0.350   1.701   8.737
16870TIP3    H217682   0.387   1.758   8.602
16871TIP3   OH217683   0.337   1.015   8.788
16871TIP3    H117684   0.350   0.999   8.884
16871TIP3    H217685   0.241   1.032   8.784
16872TIP3   OH217686   0.766   0.381   8.771
16872TIP3    H117687   0.782   0.371   8.676
16872TIP3    H217688   0.821   0.312   8.810
16873TIP3   OH217689   1.147   0.398   8.841
16873TIP3    H117690   1.191   0.356   8.764
16873TIP3    H217691   1.187   0.487   8.842
16874TIP3   OH217692   1.671   0.413   8.602
16874TIP3    H117693   1.586   0.434   8.643
16874TIP3    H217694   1.700   0.503   8.575
16875TIP3   OH217695   1.174   0.714   8.708
16875TIP3    H117696   1.244   0.703   8.774
16875TIP3    H217697   1.099   0.737   8.767
16876TIP3   OH217698   0.499   0.434   8.733
16876TIP3    H117699   0.596   0.421   8.740
16876TIP3    H217700   0.491   0.482   8.649
16877TIP3   OH217701   0.449   0.633   8.559
16877TIP3    H117702   0.367   0.612   8.606
16877TIP3    H217703   0.462   0.727   8.585
16878TIP3   OH217704   0.686   1.291   8.599
16878TIP3    H117705   0.737   1.374   8.592
16878TIP3    H217706   0.752   1.224   8.581
16879TIP3   OH217707   1.502   0.920   8.758
16879TIP3    H117708   1.473   0.995   8.701
16879TIP3    H217709   1.595   0.912   8.727
16880TIP3   OH217710   0.322   1.361   8.694
16880TIP3    H117711   0.314   1.331   8.603
16880TIP3    H217712   0.419   1.369   8.703
16881TIP3   OH217713   0.942   1.428   8.889
16881TIP3    H117714   0.984   1.375   8.959
16881TIP3    H217715   0.986   1.391   8.809
16882TIP3   OH217716   1.076   1.364   8.643
16882TIP3    H117717   1.046   1.308   8.569
16882TIP3    H217718   1.082   1.451   8.599
16883TIP3   OH217719   1.426   1.102   8.592
16883TIP3    H117720   1.425   1.040   8.517
16883TIP3    H217721   1.334   1.133   8.595
16884TIP3   OH217722   0.839   1.529   8.600
16884TIP3    H117723   0.925   1.571   8.581
16884TIP3    H217724   0.804   1.588   8.668
16885TIP3   OH217725   1.103   1.608   8.523
16885TIP3    H117726   1.117   1.677   8.591
16885TIP3    H217727   1.081   1.664   8.447
16886TIP3   OH217728   1.268   0.306   8.614
16886TIP3    H117729   1.279   0.386   8.558
16886TIP3    H217730   1.183   0.277   8.576
16887TIP3   OH217731   1.381   1.367   8.729
16887TIP3    H117732   1.322   1.405   8.663
16887TIP3    H217733   1.322   1.301   8.767
16888TIP3   OH217734   1.550   0.638   8.751
16888TIP3    H117735   1.522   0.732   8.745
16888TIP3    H217736   1.631   0.643   8.803
16889TIP3   OH217737   0.745   1.627   8.861
16889TIP3    H117738   0.801   1.547   8.876
16889TIP3    H217739   0.665   1.599   8.910
16890TIP3   OH217740   0.302   1.573   8.869
16890TIP3    H117741   0.285   1.502   8.802
16890TIP3    H217742   0.223   1.564   8.927
16891TIP3   OH217743   1.195   1.140   8.888
16891TIP3    H117744   1.173   1.085   8.811
16891TIP3    H217745   1.116   1.127   8.946
16892TIP3   OH217746   0.602   1.298   8.866
16892TIP3    H117747   0.616   1.282   8.770
16892TIP3    H217748   0.632   1.212   8.902
16893TIP3   OH217749   1.083   0.985   8.677
16893TIP3    H117750   1.148   0.918   8.648
16893TIP3    H217751   1.034   0.933   8.744
16894TIP3   OH217752   0.963   0.821   8.849
16894TIP3    H117753   0.973   0.846   8.944
16894TIP3    H217754   0.864   0.813   8.845
16895TIP3   OH217755   0.064   1.027   8.794
16895TIP3    H117756   0.072   0.983   8.881
16895TIP3    H217757   0.074   1.122   8.824
16896TIP3   OH217758   0.977   1.835   8.623
16896TIP3    H117759   0.881   1.828   8.642
16896TIP3    H217760   1.003   1.898   8.694
16897TIP3   OH217761   1.659   1.322   8.730
16897TIP3    H117762   1.561   1.329   8.728
16897TIP3    H217763   1.670   1.258   8.803
16898TIP3   OH217764   0.045   0.658   8.738
16898TIP3    H117765   0.083   0.712   8.808
16898TIP3    H217766   0.090   0.574   8.758
16899TIP3   OH217767   0.176   0.446   8.890
16899TIP3    H117768   0.130   0.371   8.850
16899TIP3    H217769   0.245   0.398   8.941
16900TIP3   OH217770   1.600   0.084   8.606
16900TIP3    H117771   1.573   0.149   8.675
16900TIP3    H217772   1.592   0.139   8.527
16901TIP3   OH217773   1.461   0.222   8.794
16901TIP3    H117774   1.408   0.178   8.865
16901TIP3    H217775   1.389   0.235   8.729
16902TIP3   OH217776   0.716   1.799   8.669
16902TIP3    H117777   0.633   1.844   8.690
16902TIP3    H217778   0.724   1.743   8.750
16903TIP3   OH217779   1.481   1.765   8.834
16903TIP3    H117780   1.504   1.807   8.749
16903TIP3    H217781   1.417   1.697   8.806
16904TIP3   OH217782   8.258   2.705   8.739
16904TIP3    H117783   8.182   2.730   8.681
16904TIP3    H217784   8.212   2.636   8.791
16905TIP3   OH217785   8.006   2.768   8.639
16905TIP3    H117786   8.027   2.819   8.559
16905TIP3    H217787   7.945   2.827   8.689
16906TIP3   OH217788   7.633   1.937   8.561
16906TIP3    H117789   7.705   1.924   8.624
16906TIP3    H217790   7.587   2.015   8.600
16907TIP3   OH217791   7.531   3.392   8.789
16907TIP3    H117792   7.511   3.486   8.770
16907TIP3    H217793   7.454   3.352   8.744
16908TIP3   OH217794   7.943   3.624   8.686
16908TIP3    H117795   7.920   3.562   8.759
16908TIP3    H217796   7.901   3.578   8.611
16909TIP3   OH217797   7.835   2.926   8.759
16909TIP3    H117798   7.868   2.939   8.851
16909TIP3    H217799   7.739   2.919   8.779
16910TIP3   OH217800   8.277   2.236   8.713
16910TIP3    H117801   8.355   2.267   8.666
16910TIP3    H217802   8.312   2.170   8.774
16911TIP3   OH217803   8.637   2.277   8.854
16911TIP3    H117804   8.696   2.247   8.781
16911TIP3    H217805   8.691   2.345   8.899
16912TIP3   OH217806   9.203   2.295   8.615
16912TIP3    H117807   9.110   2.311   8.636
16912TIP3    H217808   9.238   2.385   8.603
16913TIP3   OH217809   8.729   2.556   8.696
16913TIP3    H117810   8.779   2.513   8.769
16913TIP3    H217811   8.663   2.605   8.749
16914TIP3   OH217812   8.030   2.348   8.744
16914TIP3    H117813   8.121   2.327   8.714
16914TIP3    H217814   7.993   2.388   8.662
16915TIP3   OH217815   7.958   2.520   8.557
16915TIP3    H117816   7.873   2.528   8.512
16915TIP3    H217817   7.962   2.604   8.609
16916TIP3   OH217818   8.209   3.163   8.616
16916TIP3    H117819   8.261   3.245   8.609
16916TIP3    H217820   8.266   3.100   8.570
16917TIP3   OH217821   7.457   2.523   8.570
16917TIP3    H117822   7.504   2.475   8.641
16917TIP3    H217823   7.453   2.612   8.611
16918TIP3   OH217824   9.127   2.832   8.780
16918TIP3    H117825   9.081   2.854   8.696
16918TIP3    H217826   9.220   2.849   8.757
16919TIP3   OH217827   7.857   3.214   8.715
16919TIP3    H117828   7.870   3.243   8.623
16919TIP3    H217829   7.947   3.188   8.739
16920TIP3   OH217830   7.472   3.638   8.713
16920TIP3    H117831   7.391   3.687   8.695
16920TIP3    H217832   7.535   3.694   8.665
16921TIP3   OH217833   8.470   3.325   8.890
16921TIP3    H117834   8.507   3.259   8.950
16921TIP3    H217835   8.505   3.290   8.804
16922TIP3   OH217836   8.596   3.252   8.651
16922TIP3    H117837   8.619   3.184   8.586
16922TIP3    H217838   8.618   3.332   8.599
16923TIP3   OH217839   9.005   2.946   8.562
16923TIP3    H117840   9.004   2.960   8.466
16923TIP3    H217841   8.944   3.015   8.595
16924TIP3   OH217842   8.387   3.439   8.609
16924TIP3    H117843   8.473   3.473   8.579
16924TIP3    H217844   8.346   3.519   8.646
16925TIP3   OH217845   8.655   3.496   8.517
16925TIP3    H117846   8.650   3.560   8.590
16925TIP3    H217847   8.657   3.559   8.443
16926TIP3   OH217848   8.763   2.184   8.631
16926TIP3    H117849   8.787   2.253   8.569
16926TIP3    H217850   8.669   2.175   8.605
16927TIP3   OH217851   8.895   3.183   8.693
16927TIP3    H117852   8.838   3.246   8.645
16927TIP3    H217853   8.834   3.155   8.765
16928TIP3   OH217854   9.039   2.529   8.797
16928TIP3    H117855   9.049   2.614   8.750
16928TIP3    H217856   9.132   2.503   8.807
16929TIP3   OH217857   8.275   3.520   8.878
16929TIP3    H117858   8.335   3.441   8.879
16929TIP3    H217859   8.197   3.484   8.926
16930TIP3   OH217860   7.849   3.449   8.879
16930TIP3    H117861   7.823   3.382   8.813
16930TIP3    H217862   7.765   3.458   8.930
16931TIP3   OH217863   8.735   3.039   8.881
16931TIP3    H117864   8.711   2.980   8.807
16931TIP3    H217865   8.656   3.030   8.938
16932TIP3   OH217866   8.138   3.179   8.879
16932TIP3    H117867   8.165   3.169   8.785
16932TIP3    H217868   8.167   3.091   8.914
16933TIP3   OH217869   8.635   2.867   8.659
16933TIP3    H117870   8.639   2.806   8.584
16933TIP3    H217871   8.613   2.803   8.731
16934TIP3   OH217872   8.528   2.701   8.833
16934TIP3    H117873   8.536   2.703   8.931
16934TIP3    H217874   8.431   2.695   8.821
16935TIP3   OH217875   7.577   2.908   8.862
16935TIP3    H117876   7.594   2.882   8.956
16935TIP3    H217877   7.575   3.007   8.871
16936TIP3   OH217878   8.520   3.717   8.617
16936TIP3    H117879   8.425   3.740   8.611
16936TIP3    H217880   8.544   3.768   8.696
16937TIP3   OH217881   9.160   3.210   8.687
16937TIP3    H117882   9.064   3.198   8.707
16937TIP3    H217883   9.200   3.196   8.774
16938TIP3   OH217884   7.424   2.797   8.671
16938TIP3    H117885   7.475   2.825   8.750
16938TIP3    H217886   7.449   2.865   8.606
16939TIP3   OH217887   7.627   2.531   8.812
16939TIP3    H117888   7.601   2.584   8.889
16939TIP3    H217889   7.657   2.448   8.852
16940TIP3   OH217890   7.692   2.257   8.846
16940TIP3    H117891   7.630   2.209   8.785
16940TIP3    H217892   7.768   2.267   8.788
16941TIP3   OH217893   7.491   2.123   8.704
16941TIP3    H117894   7.461   2.066   8.779
16941TIP3    H217895   7.408   2.171   8.681
16942TIP3   OH217896   9.096   1.996   8.626
16942TIP3    H117897   9.094   2.066   8.694
16942TIP3    H217898   9.090   2.051   8.546
16943TIP3   OH217899   8.978   2.171   8.784
16943TIP3    H117900   8.929   2.109   8.842
16943TIP3    H217901   8.916   2.170   8.708
16944TIP3   OH217902   8.233   3.670   8.666
16944TIP3    H117903   8.143   3.697   8.685
16944TIP3    H217904   8.251   3.626   8.753
16945TIP3   OH217905   9.001   3.630   8.810
16945TIP3    H117906   9.024   3.652   8.718
16945TIP3    H217907   8.922   3.575   8.797
16946TIP3   OH217908   6.374   2.706   8.745
16946TIP3    H117909   6.305   2.745   8.690
16946TIP3    H217910   6.320   2.638   8.790
16947TIP3   OH217911   6.121   2.770   8.635
16947TIP3    H117912   6.113   2.810   8.546
16947TIP3    H217913   6.059   2.825   8.691
16948TIP3   OH217914   5.751   1.935   8.558
16948TIP3    H117915   5.833   1.922   8.606
16948TIP3    H217916   5.705   2.005   8.610
16949TIP3   OH217917   5.644   3.383   8.785
16949TIP3    H117918   5.621   3.477   8.769
16949TIP3    H217919   5.568   3.341   8.742
16950TIP3   OH217920   6.058   3.620   8.684
16950TIP3    H117921   6.028   3.561   8.757
16950TIP3    H217922   6.015   3.574   8.608
16951TIP3   OH217923   5.951   2.927   8.763
16951TIP3    H117924   5.986   2.941   8.854
16951TIP3    H217925   5.857   2.914   8.784
16952TIP3   OH217926   6.393   2.230   8.714
16952TIP3    H117927   6.478   2.271   8.691
16952TIP3    H217928   6.421   2.161   8.775
16953TIP3   OH217929   6.755   2.290   8.846
16953TIP3    H117930   6.816   2.251   8.778
16953TIP3    H217931   6.813   2.358   8.887
16954TIP3   OH217932   7.305   2.292   8.605
16954TIP3    H117933   7.245   2.343   8.663
16954TIP3    H217934   7.356   2.367   8.570
16955TIP3   OH217935   6.874   2.566   8.704
16955TIP3    H117936   6.909   2.510   8.775
16955TIP3    H217937   6.811   2.620   8.754
16956TIP3   OH217938   6.156   2.348   8.737
16956TIP3    H117939   6.243   2.321   8.699
16956TIP3    H217940   6.115   2.390   8.658
16957TIP3   OH217941   6.066   2.521   8.557
16957TIP3    H117942   5.974   2.524   8.523
16957TIP3    H217943   6.070   2.602   8.611
16958TIP3   OH217944   6.326   3.165   8.595
16958TIP3    H117945   6.377   3.248   8.592
16958TIP3    H217946   6.393   3.100   8.571
16959TIP3   OH217947   5.576   2.524   8.574
16959TIP3    H117948   5.625   2.483   8.648
16959TIP3    H217949   5.565   2.615   8.610
16960TIP3   OH217950   7.158   2.814   8.755
16960TIP3    H117951   7.135   2.891   8.699
16960TIP3    H217952   7.247   2.792   8.719
16961TIP3   OH217953   5.967   3.223   8.711
16961TIP3    H117954   5.953   3.226   8.615
16961TIP3    H217955   6.062   3.201   8.717
16962TIP3   OH217956   5.582   3.633   8.714
16962TIP3    H117957   5.508   3.694   8.699
16962TIP3    H217958   5.657   3.687   8.682
16963TIP3   OH217959   6.601   3.313   8.878
16963TIP3    H117960   6.631   3.262   8.955
16963TIP3    H217961   6.642   3.262   8.804
16964TIP3   OH217962   6.725   3.248   8.642
16964TIP3    H117963   6.704   3.199   8.562
16964TIP3    H217964   6.742   3.338   8.607
16965TIP3   OH217965   7.089   2.996   8.580
16965TIP3    H117966   7.104   2.930   8.509
16965TIP3    H217967   6.994   3.015   8.569
16966TIP3   OH217968   6.478   3.402   8.586
16966TIP3    H117969   6.568   3.441   8.585
16966TIP3    H217970   6.429   3.467   8.639
16967TIP3   OH217971   6.756   3.489   8.527
16967TIP3    H117972   6.762   3.561   8.593
16967TIP3    H217973   6.736   3.543   8.449
16968TIP3   OH217974   6.878   2.184   8.633
16968TIP3    H117975   6.868   2.249   8.560
16968TIP3    H217976   6.789   2.148   8.636
16969TIP3   OH217977   7.035   3.263   8.724
16969TIP3    H117978   6.969   3.300   8.664
16969TIP3    H217979   6.981   3.196   8.766
16970TIP3   OH217980   7.206   2.508   8.760
16970TIP3    H117981   7.150   2.588   8.763
16970TIP3    H217982   7.279   2.532   8.818
16971TIP3   OH217983   6.398   3.510   8.870
16971TIP3    H117984   6.453   3.429   8.878
16971TIP3    H217985   6.316   3.481   8.916
16972TIP3   OH217986   5.958   3.451   8.880
16972TIP3    H117987   5.941   3.379   8.815
16972TIP3    H217988   5.873   3.452   8.930
16973TIP3   OH217989   6.850   3.037   8.882
16973TIP3    H117990   6.814   3.014   8.796
16973TIP3    H217991   6.774   3.020   8.943
16974TIP3   OH217992   6.267   3.181   8.868
16974TIP3    H117993   6.288   3.170   8.773
16974TIP3    H217994   6.286   3.089   8.902
16975TIP3   OH217995   6.738   2.866   8.657
16975TIP3    H117996   6.791   2.802   8.607
16975TIP3    H217997   6.695   2.809   8.726
16976TIP3   OH217998   6.632   2.701   8.832
16976TIP3    H117999   6.625   2.731   8.925
16976TIP3    H218000   6.538   2.684   8.809
16977TIP3   OH218001   5.689   2.907   8.865
16977TIP3    H118002   5.707   2.882   8.959
16977TIP3    H218003   5.686   3.006   8.873
16978TIP3   OH218004   6.634   3.717   8.620
16978TIP3    H118005   6.536   3.714   8.631
16978TIP3    H218006   6.657   3.778   8.692
16979TIP3   OH218007   7.313   3.215   8.733
16979TIP3    H118008   7.215   3.221   8.727
16979TIP3    H218009   7.322   3.153   8.809
16980TIP3   OH218010   5.545   2.798   8.668
16980TIP3    H118011   5.598   2.823   8.748
16980TIP3    H218012   5.562   2.873   8.609
16981TIP3   OH218013   5.743   2.522   8.820
16981TIP3    H118014   5.729   2.575   8.900
16981TIP3    H218015   5.770   2.435   8.856
16982TIP3   OH218016   5.808   2.248   8.844
16982TIP3    H118017   5.743   2.208   8.782
16982TIP3    H218018   5.883   2.262   8.784
16983TIP3   OH218019   5.606   2.120   8.700
16983TIP3    H118020   5.582   2.065   8.779
16983TIP3    H218021   5.519   2.161   8.679
16984TIP3   OH218022   7.223   1.976   8.637
16984TIP3    H118023   7.213   2.055   8.694
16984TIP3    H218024   7.216   2.017   8.549
16985TIP3   OH218025   7.102   2.167   8.787
16985TIP3    H118026   7.042   2.108   8.836
16985TIP3    H218027   7.055   2.177   8.702
16986TIP3   OH218028   6.361   3.673   8.669
16986TIP3    H118029   6.271   3.705   8.689
16986TIP3    H218030   6.377   3.624   8.753
16987TIP3   OH218031   7.130   3.653   8.832
16987TIP3    H118032   7.152   3.694   8.746
16987TIP3    H218033   7.063   3.587   8.808
16988TIP3   OH218034   4.486   2.704   8.738
16988TIP3    H118035   4.410   2.744   8.690
16988TIP3    H218036   4.437   2.633   8.783
16989TIP3   OH218037   4.237   2.769   8.640
16989TIP3    H118038   4.247   2.819   8.558
16989TIP3    H218039   4.175   2.826   8.693
16990TIP3   OH218040   3.861   1.933   8.559
16990TIP3    H118041   3.945   1.928   8.606
16990TIP3    H218042   3.814   2.003   8.610
16991TIP3   OH218043   3.757   3.393   8.792
16991TIP3    H118044   3.739   3.486   8.770
16991TIP3    H218045   3.683   3.352   8.745
16992TIP3   OH218046   4.170   3.621   8.683
16992TIP3    H118047   4.147   3.561   8.758
16992TIP3    H218048   4.126   3.573   8.610
16993TIP3   OH218049   4.066   2.929   8.761
16993TIP3    H118050   4.100   2.945   8.851
16993TIP3    H218051   3.971   2.915   8.783
16994TIP3   OH218052   4.504   2.237   8.717
16994TIP3    H118053   4.588   2.274   8.686
16994TIP3    H218054   4.531   2.165   8.773
16995TIP3   OH218055   4.875   2.288   8.854
16995TIP3    H118056   4.931   2.246   8.784
16995TIP3    H218057   4.939   2.354   8.890
16996TIP3   OH218058   5.422   2.291   8.610
16996TIP3    H118059   5.358   2.342   8.665
16996TIP3    H218060   5.474   2.367   8.579
16997TIP3   OH218061   4.995   2.563   8.705
16997TIP3    H118062   5.026   2.508   8.778
16997TIP3    H218063   4.933   2.620   8.753
16998TIP3   OH218064   4.258   2.339   8.730
16998TIP3    H118065   4.350   2.318   8.697
16998TIP3    H218066   4.221   2.388   8.653
16999TIP3   OH218067   4.188   2.520   8.550
16999TIP3    H118068   4.101   2.516   8.506
16999TIP3    H218069   4.182   2.602   8.604
17000TIP3   OH218070   4.451   3.167   8.601
17000TIP3    H118071   4.503   3.250   8.594
17000TIP3    H218072   4.516   3.100   8.578
17001TIP3   OH218073   3.692   2.525   8.571
17001TIP3    H118074   3.751   2.493   8.643
17001TIP3    H218075   3.675   2.615   8.604
17002TIP3   OH218076   5.276   2.813   8.754
17002TIP3    H118077   5.256   2.895   8.704
17002TIP3    H218078   5.369   2.797   8.726
17003TIP3   OH218079   4.080   3.221   8.722
17003TIP3    H118080   4.062   3.223   8.627
17003TIP3    H218081   4.176   3.199   8.723
17004TIP3   OH218082   3.692   3.632   8.696
17004TIP3    H118083   3.620   3.695   8.700
17004TIP3    H218084   3.751   3.675   8.631
17005TIP3   OH218085   4.711   3.310   8.878
17005TIP3    H118086   4.745   3.258   8.953
17005TIP3    H218087   4.751   3.262   8.802
17006TIP3   OH218088   4.842   3.248   8.639
17006TIP3    H118089   4.812   3.199   8.562
17006TIP3    H218090   4.850   3.338   8.601
17007TIP3   OH218091   5.203   2.995   8.580
17007TIP3    H118092   5.197   2.913   8.527
17007TIP3    H218093   5.110   3.021   8.589
17008TIP3   OH218094   4.595   3.401   8.588
17008TIP3    H118095   4.684   3.441   8.588
17008TIP3    H218096   4.544   3.469   8.634
17009TIP3   OH218097   4.862   3.491   8.532
17009TIP3    H118098   4.872   3.567   8.593
17009TIP3    H218099   4.843   3.538   8.450
17010TIP3   OH218100   4.990   2.180   8.638
17010TIP3    H118101   4.984   2.245   8.564
17010TIP3    H218102   4.900   2.146   8.637
17011TIP3   OH218103   5.148   3.254   8.726
17011TIP3    H118104   5.086   3.290   8.661
17011TIP3    H218105   5.086   3.207   8.783
17012TIP3   OH218106   5.319   2.506   8.763
17012TIP3    H118107   5.262   2.585   8.765
17012TIP3    H218108   5.392   2.532   8.819
17013TIP3   OH218109   4.515   3.514   8.874
17013TIP3    H118110   4.568   3.432   8.881
17013TIP3    H218111   4.432   3.486   8.920
17014TIP3   OH218112   4.076   3.446   8.882
17014TIP3    H118113   4.064   3.370   8.821
17014TIP3    H218114   3.989   3.451   8.927
17015TIP3   OH218115   4.964   3.038   8.882
17015TIP3    H118116   4.927   3.020   8.794
17015TIP3    H218117   4.887   3.019   8.941
17016TIP3   OH218118   4.383   3.186   8.866
17016TIP3    H118119   4.411   3.178   8.773
17016TIP3    H218120   4.400   3.094   8.900
17017TIP3   OH218121   4.854   2.866   8.658
17017TIP3    H118122   4.904   2.802   8.605
17017TIP3    H218123   4.812   2.808   8.726
17018TIP3   OH218124   4.746   2.695   8.828
17018TIP3    H118125   4.738   2.726   8.920
17018TIP3    H218126   4.651   2.679   8.804
17019TIP3   OH218127   3.798   2.911   8.865
17019TIP3    H118128   3.816   2.884   8.958
17019TIP3    H218129   3.798   3.010   8.874
17020TIP3   OH218130   4.745   3.717   8.621
17020TIP3    H118131   4.651   3.708   8.645
17020TIP3    H218132   4.775   3.777   8.691
17021TIP3   OH218133   5.428   3.213   8.731
17021TIP3    H118134   5.329   3.209   8.727
17021TIP3    H218135   5.445   3.162   8.813
17022TIP3   OH218136   3.658   2.798   8.669
17022TIP3    H118137   3.707   2.827   8.749
17022TIP3    H218138   3.672   2.873   8.609
17023TIP3   OH218139   3.857   2.532   8.821
17023TIP3    H118140   3.851   2.577   8.906
17023TIP3    H218141   3.883   2.442   8.848
17024TIP3   OH218142   3.917   2.257   8.842
17024TIP3    H118143   3.858   2.211   8.779
17024TIP3    H218144   3.998   2.265   8.790
17025TIP3   OH218145   3.720   2.118   8.705
17025TIP3    H118146   3.694   2.063   8.782
17025TIP3    H218147   3.635   2.162   8.681
17026TIP3   OH218148   5.341   1.976   8.638
17026TIP3    H118149   5.333   2.048   8.703
17026TIP3    H218150   5.336   2.028   8.556
17027TIP3   OH218151   5.217   2.158   8.795
17027TIP3    H118152   5.157   2.100   8.846
17027TIP3    H218153   5.170   2.165   8.710
17028TIP3   OH218154   4.475   3.670   8.671
17028TIP3    H118155   4.385   3.703   8.687
17028TIP3    H218156   4.490   3.622   8.757
17029TIP3   OH218157   5.253   3.647   8.835
17029TIP3    H118158   5.275   3.699   8.755
17029TIP3    H218159   5.186   3.584   8.803
17030TIP3   OH218160   2.597   2.707   8.741
17030TIP3    H118161   2.527   2.746   8.685
17030TIP3    H218162   2.543   2.640   8.786
17031TIP3   OH218163   2.354   2.774   8.637
17031TIP3    H118164   2.359   2.824   8.554
17031TIP3    H218165   2.299   2.832   8.697
17032TIP3   OH218166   1.974   1.937   8.564
17032TIP3    H118167   2.062   1.928   8.603
17032TIP3    H218168   1.941   2.019   8.607
17033TIP3   OH218169   1.868   3.381   8.783
17033TIP3    H118170   1.846   3.475   8.766
17033TIP3    H218171   1.789   3.341   8.742
17034TIP3   OH218172   2.288   3.618   8.684
17034TIP3    H118173   2.258   3.558   8.756
17034TIP3    H218174   2.244   3.574   8.608
17035TIP3   OH218175   2.182   2.930   8.763
17035TIP3    H118176   2.217   2.946   8.853
17035TIP3    H218177   2.088   2.916   8.784
17036TIP3   OH218178   2.622   2.238   8.716
17036TIP3    H118179   2.709   2.277   8.699
17036TIP3    H218180   2.643   2.161   8.770
17037TIP3   OH218181   2.992   2.303   8.852
17037TIP3    H118182   3.049   2.260   8.784
17037TIP3    H218183   3.054   2.370   8.889
17038TIP3   OH218184   3.539   2.297   8.608
17038TIP3    H118185   3.479   2.350   8.664
17038TIP3    H218186   3.602   2.366   8.582
17039TIP3   OH218187   3.105   2.568   8.708
17039TIP3    H118188   3.139   2.518   8.784
17039TIP3    H218189   3.033   2.618   8.748
17040TIP3   OH218190   2.379   2.342   8.729
17040TIP3    H118191   2.469   2.320   8.696
17040TIP3    H218192   2.341   2.393   8.653
17041TIP3   OH218193   2.304   2.523   8.549
17041TIP3    H118194   2.217   2.515   8.507
17041TIP3    H218195   2.296   2.603   8.604
17042TIP3   OH218196   2.563   3.170   8.601
17042TIP3    H118197   2.616   3.252   8.594
17042TIP3    H218198   2.627   3.102   8.578
17043TIP3   OH218199   1.807   2.527   8.577
17043TIP3    H118200   1.864   2.491   8.649
17043TIP3    H218201   1.798   2.619   8.610
17044TIP3   OH218202   3.392   2.809   8.752
17044TIP3    H118203   3.372   2.889   8.698
17044TIP3    H218204   3.482   2.789   8.721
17045TIP3   OH218205   2.197   3.223   8.703
17045TIP3    H118206   2.194   3.238   8.607
17045TIP3    H218207   2.290   3.197   8.715
17046TIP3   OH218208   1.806   3.632   8.708
17046TIP3    H118209   1.735   3.696   8.692
17046TIP3    H218210   1.882   3.681   8.672
17047TIP3   OH218211   2.822   3.314   8.885
17047TIP3    H118212   2.853   3.258   8.958
17047TIP3    H218213   2.862   3.267   8.807
17048TIP3   OH218214   2.953   3.247   8.645
17048TIP3    H118215   2.937   3.196   8.565
17048TIP3    H218216   2.968   3.337   8.607
17049TIP3   OH218217   3.322   2.997   8.581
17049TIP3    H118218   3.327   2.929   8.511
17049TIP3    H218219   3.227   3.016   8.586
17050TIP3   OH218220   2.711   3.398   8.590
17050TIP3    H118221   2.803   3.429   8.592
17050TIP3    H218222   2.665   3.464   8.644
17051TIP3   OH218223   2.976   3.488   8.534
17051TIP3    H118224   2.987   3.564   8.594
17051TIP3    H218225   2.960   3.534   8.451
17052TIP3   OH218226   3.104   2.181   8.634
17052TIP3    H118227   3.076   2.241   8.560
17052TIP3    H218228   3.024   2.127   8.646
17053TIP3   OH218229   3.264   3.255   8.725
17053TIP3    H118230   3.199   3.294   8.664
17053TIP3    H218231   3.203   3.208   8.784
17054TIP3   OH218232   3.436   2.509   8.764
17054TIP3    H118233   3.379   2.588   8.764
17054TIP3    H218234   3.508   2.533   8.824
17055TIP3   OH218235   2.623   3.513   8.872
17055TIP3    H118236   2.681   3.435   8.883
17055TIP3    H218237   2.540   3.480   8.914
17056TIP3   OH218238   2.188   3.445   8.881
17056TIP3    H118239   2.167   3.376   8.814
17056TIP3    H218240   2.103   3.452   8.930
17057TIP3   OH218241   3.078   3.033   8.885
17057TIP3    H118242   3.036   3.020   8.799
17057TIP3    H218243   3.002   3.017   8.946
17058TIP3   OH218244   2.498   3.182   8.868
17058TIP3    H118245   2.523   3.177   8.774
17058TIP3    H218246   2.516   3.089   8.899
17059TIP3   OH218247   2.970   2.874   8.657
17059TIP3    H118248   3.032   2.810   8.619
17059TIP3    H218249   2.925   2.817   8.723
17060TIP3   OH218250   2.857   2.695   8.816
17060TIP3    H118251   2.856   2.711   8.912
17060TIP3    H218252   2.761   2.688   8.793
17061TIP3   OH218253   1.919   2.910   8.869
17061TIP3    H118254   1.934   2.885   8.964
17061TIP3    H218255   1.917   3.009   8.877
17062TIP3   OH218256   2.864   3.721   8.617
17062TIP3    H118257   2.766   3.717   8.623
17062TIP3    H218258   2.884   3.777   8.695
17063TIP3   OH218259   3.544   3.214   8.732
17063TIP3    H118260   3.445   3.210   8.731
17063TIP3    H218261   3.564   3.162   8.811
17064TIP3   OH218262   1.772   2.795   8.671
17064TIP3    H118263   1.822   2.827   8.750
17064TIP3    H218264   1.790   2.866   8.607
17065TIP3   OH218265   1.971   2.526   8.815
17065TIP3    H118266   1.959   2.576   8.897
17065TIP3    H218267   2.002   2.440   8.848
17066TIP3   OH218268   2.038   2.260   8.848
17066TIP3    H118269   1.975   2.212   8.790
17066TIP3    H218270   2.115   2.269   8.789
17067TIP3   OH218271   1.837   2.129   8.716
17067TIP3    H118272   1.805   2.065   8.785
17067TIP3    H218273   1.753   2.172   8.686
17068TIP3   OH218274   3.449   1.981   8.638
17068TIP3    H118275   3.434   2.060   8.696
17068TIP3    H218276   3.447   2.026   8.552
17069TIP3   OH218277   3.326   2.174   8.783
17069TIP3    H118278   3.268   2.113   8.833
17069TIP3    H218279   3.272   2.187   8.702
17070TIP3   OH218280   2.592   3.671   8.669
17070TIP3    H118281   2.502   3.702   8.688
17070TIP3    H218282   2.609   3.624   8.755
17071TIP3   OH218283   3.370   3.649   8.838
17071TIP3    H118284   3.391   3.700   8.758
17071TIP3    H218285   3.302   3.587   8.804
17072TIP3   OH218286   0.710   2.655   8.763
17072TIP3    H118287   0.650   2.707   8.707
17072TIP3    H218288   0.652   2.579   8.783
17073TIP3   OH218289   0.500   2.775   8.635
17073TIP3    H118290   0.490   2.841   8.564
17073TIP3    H218291   0.441   2.815   8.705
17074TIP3   OH218292   0.151   1.912   8.530
17074TIP3    H118293   0.237   1.904   8.573
17074TIP3    H218294   0.095   1.951   8.599
17075TIP3   OH218295   9.338   3.392   8.817
17075TIP3    H118296   9.352   3.485   8.837
17075TIP3    H218297   9.285   3.393   8.736
17076TIP3   OH218298   0.377   3.667   8.691
17076TIP3    H118299   0.349   3.584   8.735
17076TIP3    H218300   0.370   3.641   8.598
17077TIP3   OH218301   0.331   2.901   8.786
17077TIP3    H118302   0.336   2.869   8.879
17077TIP3    H218303   0.236   2.919   8.777
17078TIP3   OH218304   0.765   2.242   8.728
17078TIP3    H118305   0.828   2.268   8.660
17078TIP3    H218306   0.809   2.169   8.775
17079TIP3   OH218307   1.108   2.279   8.853
17079TIP3    H118308   1.163   2.244   8.778
17079TIP3    H218309   1.169   2.344   8.893
17080TIP3   OH218310   1.654   2.294   8.610
17080TIP3    H118311   1.592   2.343   8.668
17080TIP3    H218312   1.707   2.369   8.578
17081TIP3   OH218313   1.192   2.569   8.704
17081TIP3    H118314   1.231   2.522   8.780
17081TIP3    H218315   1.130   2.626   8.751
17082TIP3   OH218316   0.503   2.313   8.727
17082TIP3    H118317   0.599   2.303   8.707
17082TIP3    H218318   0.475   2.380   8.661
17083TIP3   OH218319   0.433   2.515   8.565
17083TIP3    H118320   0.340   2.511   8.590
17083TIP3    H218321   0.461   2.595   8.614
17084TIP3   OH218322   0.678   3.166   8.596
17084TIP3    H118323   0.726   3.252   8.595
17084TIP3    H218324   0.749   3.104   8.577
17085TIP3   OH218325   1.509   2.817   8.752
17085TIP3    H118326   1.488   2.897   8.698
17085TIP3    H218327   1.602   2.799   8.726
17086TIP3   OH218328   0.320   3.244   8.696
17086TIP3    H118329   0.311   3.216   8.604
17086TIP3    H218330   0.417   3.241   8.708
17087TIP3   OH218331   0.943   3.315   8.881
17087TIP3    H118332   0.980   3.261   8.953
17087TIP3    H218333   0.981   3.268   8.803
17088TIP3   OH218334   1.078   3.254   8.644
17088TIP3    H118335   1.055   3.196   8.569
17088TIP3    H218336   1.076   3.342   8.601
17089TIP3   OH218337   1.437   3.001   8.580
17089TIP3    H118338   1.431   2.920   8.526
17089TIP3    H218339   1.344   3.024   8.596
17090TIP3   OH218340   0.826   3.398   8.602
17090TIP3    H118341   0.911   3.445   8.589
17090TIP3    H218342   0.780   3.459   8.663
17091TIP3   OH218343   1.085   3.493   8.526
17091TIP3    H118344   1.110   3.559   8.593
17091TIP3    H218345   1.070   3.550   8.450
17092TIP3   OH218346   1.222   2.190   8.634
17092TIP3    H118347   1.226   2.260   8.567
17092TIP3    H218348   1.129   2.165   8.619
17093TIP3   OH218349   1.379   3.254   8.730
17093TIP3    H118350   1.323   3.295   8.662
17093TIP3    H218351   1.311   3.204   8.777
17094TIP3   OH218352   1.545   2.507   8.765
17094TIP3    H118353   1.498   2.591   8.773
17094TIP3    H218354   1.623   2.523   8.819
17095TIP3   OH218355   0.738   3.518   8.866
17095TIP3    H118356   0.798   3.441   8.877
17095TIP3    H218357   0.661   3.486   8.917
17096TIP3   OH218358   0.304   3.448   8.876
17096TIP3    H118359   0.290   3.378   8.809
17096TIP3    H218360   0.221   3.443   8.930
17097TIP3   OH218361   1.189   3.032   8.878
17097TIP3    H118362   1.150   3.004   8.794
17097TIP3    H218363   1.114   3.016   8.940
17098TIP3   OH218364   0.606   3.174   8.866
17098TIP3    H118365   0.624   3.161   8.771
17098TIP3    H218366   0.631   3.084   8.902
17099TIP3   OH218367   1.093   2.864   8.661
17099TIP3    H118368   1.109   2.799   8.591
17099TIP3    H218369   1.052   2.808   8.731
17100TIP3   OH218370   0.969   2.697   8.834
17100TIP3    H118371   0.971   2.717   8.931
17100TIP3    H218372   0.872   2.681   8.819
17101TIP3   OH218373   0.054   2.909   8.812
17101TIP3    H118374   0.063   2.866   8.899
17101TIP3    H218375   0.071   3.003   8.838
17102TIP3   OH218376   0.975   3.731   8.620
17102TIP3    H118377   0.879   3.712   8.631
17102TIP3    H218378   0.990   3.789   8.697
17103TIP3   OH218379   1.659   3.210   8.725
17103TIP3    H118380   1.561   3.204   8.725
17103TIP3    H218381   1.681   3.161   8.807
17104TIP3   OH218382   0.095   2.581   8.738
17104TIP3    H118383   0.070   2.613   8.825
17104TIP3    H218384   0.125   2.491   8.762
17105TIP3   OH218385   0.190   2.325   8.864
17105TIP3    H118386   0.136   2.259   8.820
17105TIP3    H218387   0.264   2.272   8.900
17106TIP3   OH218388   1.574   1.976   8.630
17106TIP3    H118389   1.577   2.046   8.698
17106TIP3    H218390   1.545   2.028   8.552
17107TIP3   OH218391   1.453   2.158   8.793
17107TIP3    H118392   1.393   2.100   8.844
17107TIP3    H218393   1.406   2.168   8.709
17108TIP3   OH218394   0.718   3.671   8.659
17108TIP3    H118395   0.637   3.722   8.678
17108TIP3    H218396   0.727   3.623   8.745
17109TIP3   OH218397   1.483   3.656   8.833
17109TIP3    H118398   1.510   3.707   8.755
17109TIP3    H218399   1.419   3.593   8.797
17110TIP3   OH218400   8.258   4.590   8.752
17110TIP3    H118401   8.181   4.619   8.698
17110TIP3    H218402   8.211   4.521   8.803
17111TIP3   OH218403   8.020   4.654   8.646
17111TIP3    H118404   8.042   4.713   8.572
17111TIP3    H218405   7.964   4.711   8.704
17112TIP3   OH218406   7.631   3.825   8.564
17112TIP3    H118407   7.716   3.817   8.610
17112TIP3    H218408   7.592   3.904   8.609
17113TIP3   OH218409   7.525   5.277   8.797
17113TIP3    H118410   7.510   5.369   8.767
17113TIP3    H218411   7.454   5.234   8.746
17114TIP3   OH218412   7.937   5.503   8.687
17114TIP3    H118413   7.911   5.443   8.760
17114TIP3    H218414   7.892   5.457   8.613
17115TIP3   OH218415   7.841   4.808   8.766
17115TIP3    H118416   7.872   4.827   8.857
17115TIP3    H218417   7.745   4.795   8.786
17116TIP3   OH218418   8.282   4.119   8.713
17116TIP3    H118419   8.363   4.152   8.672
17116TIP3    H218420   8.316   4.055   8.777
17117TIP3   OH218421   8.637   4.163   8.856
17117TIP3    H118422   8.698   4.136   8.783
17117TIP3    H218423   8.693   4.227   8.907
17118TIP3   OH218424   9.199   4.164   8.605
17118TIP3    H118425   9.110   4.170   8.644
17118TIP3    H218426   9.226   4.256   8.597
17119TIP3   OH218427   8.732   4.451   8.702
17119TIP3    H118428   8.779   4.404   8.773
17119TIP3    H218429   8.665   4.498   8.754
17120TIP3   OH218430   8.031   4.231   8.726
17120TIP3    H118431   8.124   4.210   8.701
17120TIP3    H218432   7.999   4.282   8.648
17121TIP3   OH218433   7.956   4.412   8.553
17121TIP3    H118434   7.865   4.414   8.519
17121TIP3    H218435   7.959   4.495   8.606
17122TIP3   OH218436   8.202   5.050   8.603
17122TIP3    H118437   8.256   5.131   8.600
17122TIP3    H218438   8.265   4.986   8.568
17123TIP3   OH218439   7.465   4.413   8.568
17123TIP3    H118440   7.512   4.365   8.639
17123TIP3    H218441   7.458   4.501   8.610
17124TIP3   OH218442   9.133   4.716   8.782
17124TIP3    H118443   9.083   4.735   8.700
17124TIP3    H218444   9.225   4.730   8.754
17125TIP3   OH218445   7.852   5.099   8.712
17125TIP3    H118446   7.871   5.130   8.623
17125TIP3    H218447   7.939   5.064   8.738
17126TIP3   OH218448   7.473   5.515   8.685
17126TIP3    H118449   7.397   5.575   8.697
17126TIP3    H218450   7.522   5.562   8.615
17127TIP3   OH218451   8.469   5.212   8.895
17127TIP3    H118452   8.508   5.147   8.955
17127TIP3    H218453   8.508   5.182   8.809
17128TIP3   OH218454   8.605   5.137   8.641
17128TIP3    H118455   8.615   5.073   8.568
17128TIP3    H218456   8.626   5.219   8.593
17129TIP3   OH218457   9.001   4.826   8.567
17129TIP3    H118458   8.995   4.837   8.471
17129TIP3    H218459   8.942   4.897   8.600
17130TIP3   OH218460   8.383   5.313   8.613
17130TIP3    H118461   8.474   5.340   8.591
17130TIP3    H218462   8.347   5.396   8.649
17131TIP3   OH218463   8.645   5.381   8.519
17131TIP3    H118464   8.641   5.445   8.593
17131TIP3    H218465   8.641   5.444   8.446
17132TIP3   OH218466   8.761   4.076   8.630
17132TIP3    H118467   8.775   4.143   8.560
17132TIP3    H218468   8.667   4.059   8.614
17133TIP3   OH218469   8.893   5.068   8.690
17133TIP3    H118470   8.834   5.128   8.640
17133TIP3    H218471   8.832   5.043   8.763
17134TIP3   OH218472   9.036   4.416   8.809
17134TIP3    H118473   9.044   4.498   8.756
17134TIP3    H218474   9.129   4.390   8.822
17135TIP3   OH218475   8.284   5.406   8.880
17135TIP3    H118476   8.341   5.326   8.884
17135TIP3    H218477   8.201   5.369   8.918
17136TIP3   OH218478   7.846   5.330   8.884
17136TIP3    H118479   7.822   5.264   8.816
17136TIP3    H218480   7.761   5.339   8.933
17137TIP3   OH218481   8.732   4.932   8.880
17137TIP3    H118482   8.696   4.888   8.802
17137TIP3    H218483   8.658   4.919   8.943
17138TIP3   OH218484   8.147   5.062   8.874
17138TIP3    H118485   8.167   5.055   8.778
17138TIP3    H218486   8.175   4.973   8.906
17139TIP3   OH218487   8.618   4.759   8.655
17139TIP3    H118488   8.644   4.689   8.594
17139TIP3    H218489   8.582   4.706   8.730
17140TIP3   OH218490   8.516   4.591   8.831
17140TIP3    H118491   8.522   4.595   8.929
17140TIP3    H218492   8.420   4.579   8.815
17141TIP3   OH218493   7.585   4.789   8.864
17141TIP3    H118494   7.597   4.762   8.958
17141TIP3    H218495   7.579   4.887   8.873
17142TIP3   OH218496   8.513   5.603   8.616
17142TIP3    H118497   8.418   5.624   8.613
17142TIP3    H218498   8.540   5.654   8.694
17143TIP3   OH218499   9.153   5.105   8.684
17143TIP3    H118500   9.057   5.081   8.695
17143TIP3    H218501   9.189   5.084   8.771
17144TIP3   OH218502   7.427   4.679   8.667
17144TIP3    H118503   7.482   4.706   8.744
17144TIP3    H218504   7.443   4.754   8.606
17145TIP3   OH218505   7.630   4.419   8.820
17145TIP3    H118506   7.618   4.464   8.905
17145TIP3    H218507   7.656   4.329   8.849
17146TIP3   OH218508   7.694   4.146   8.845
17146TIP3    H118509   7.628   4.101   8.787
17146TIP3    H218510   7.770   4.152   8.787
17147TIP3   OH218511   7.491   4.010   8.704
17147TIP3    H118512   7.465   3.953   8.781
17147TIP3    H218513   7.406   4.052   8.679
17148TIP3   OH218514   9.099   3.882   8.627
17148TIP3    H118515   9.101   3.951   8.695
17148TIP3    H218516   9.092   3.937   8.547
17149TIP3   OH218517   8.979   4.065   8.782
17149TIP3    H118518   8.926   4.003   8.836
17149TIP3    H218519   8.921   4.064   8.703
17150TIP3   OH218520   8.231   5.551   8.668
17150TIP3    H118521   8.142   5.581   8.691
17150TIP3    H218522   8.256   5.512   8.755
17151TIP3   OH218523   8.998   5.521   8.811
17151TIP3    H118524   9.026   5.537   8.719
17151TIP3    H218525   8.922   5.463   8.798
17152TIP3   OH218526   6.370   4.587   8.740
17152TIP3    H118527   6.292   4.626   8.695
17152TIP3    H218528   6.321   4.517   8.788
17153TIP3   OH218529   6.126   4.658   8.647
17153TIP3    H118530   6.159   4.715   8.577
17153TIP3    H218531   6.065   4.716   8.699
17154TIP3   OH218532   5.751   3.819   8.562
17154TIP3    H118533   5.840   3.820   8.601
17154TIP3    H218534   5.706   3.893   8.607
17155TIP3   OH218535   5.645   5.272   8.786
17155TIP3    H118536   5.627   5.366   8.765
17155TIP3    H218537   5.569   5.233   8.740
17156TIP3   OH218538   6.053   5.509   8.679
17156TIP3    H118539   6.030   5.450   8.754
17156TIP3    H218540   6.012   5.458   8.607
17157TIP3   OH218541   5.951   4.817   8.758
17157TIP3    H118542   5.986   4.837   8.848
17157TIP3    H218543   5.857   4.803   8.782
17158TIP3   OH218544   6.391   4.119   8.714
17158TIP3    H118545   6.475   4.162   8.696
17158TIP3    H218546   6.417   4.048   8.775
17159TIP3   OH218547   6.764   4.182   8.848
17159TIP3    H118548   6.821   4.139   8.780
17159TIP3    H218549   6.822   4.256   8.878
17160TIP3   OH218550   7.308   4.181   8.609
17160TIP3    H118551   7.250   4.234   8.667
17160TIP3    H218552   7.365   4.252   8.575
17161TIP3   OH218553   6.884   4.452   8.713
17161TIP3    H118554   6.902   4.403   8.794
17161TIP3    H218555   6.815   4.511   8.745
17162TIP3   OH218556   6.152   4.232   8.730
17162TIP3    H118557   6.239   4.206   8.691
17162TIP3    H218558   6.111   4.283   8.656
17163TIP3   OH218559   6.068   4.410   8.550
17163TIP3    H118560   5.981   4.403   8.506
17163TIP3    H218561   6.058   4.491   8.605
17164TIP3   OH218562   6.326   5.053   8.592
17164TIP3    H118563   6.379   5.135   8.591
17164TIP3    H218564   6.392   4.986   8.568
17165TIP3   OH218565   5.583   4.415   8.574
17165TIP3    H118566   5.639   4.379   8.645
17165TIP3    H218567   5.566   4.505   8.610
17166TIP3   OH218568   7.154   4.696   8.754
17166TIP3    H118569   7.132   4.772   8.696
17166TIP3    H218570   7.246   4.678   8.726
17167TIP3   OH218571   5.979   5.105   8.719
17167TIP3    H118572   5.999   5.132   8.628
17167TIP3    H218573   6.060   5.056   8.742
17168TIP3   OH218574   5.582   5.513   8.694
17168TIP3    H118575   5.509   5.576   8.703
17168TIP3    H218576   5.641   5.563   8.635
17169TIP3   OH218577   6.598   5.196   8.883
17169TIP3    H118578   6.631   5.142   8.957
17169TIP3    H218579   6.640   5.151   8.806
17170TIP3   OH218580   6.723   5.135   8.640
17170TIP3    H118581   6.710   5.084   8.559
17170TIP3    H218582   6.735   5.225   8.603
17171TIP3   OH218583   7.090   4.881   8.576
17171TIP3    H118584   7.079   4.802   8.520
17171TIP3    H218585   6.998   4.906   8.594
17172TIP3   OH218586   6.479   5.288   8.594
17172TIP3    H118587   6.572   5.319   8.592
17172TIP3    H218588   6.435   5.366   8.632
17173TIP3   OH218589   6.743   5.376   8.532
17173TIP3    H118590   6.751   5.446   8.601
17173TIP3    H218591   6.729   5.432   8.455
17174TIP3   OH218592   6.880   4.065   8.640
17174TIP3    H118593   6.858   4.127   8.567
17174TIP3    H218594   6.803   4.007   8.641
17175TIP3   OH218595   7.035   5.144   8.724
17175TIP3    H118596   6.972   5.181   8.659
17175TIP3    H218597   6.973   5.091   8.775
17176TIP3   OH218598   7.209   4.396   8.765
17176TIP3    H118599   7.148   4.472   8.766
17176TIP3    H218600   7.277   4.424   8.828
17177TIP3   OH218601   6.403   5.399   8.875
17177TIP3    H118602   6.456   5.316   8.878
17177TIP3    H218603   6.320   5.367   8.917
17178TIP3   OH218604   5.957   5.337   8.881
17178TIP3    H118605   5.943   5.263   8.818
17178TIP3    H218606   5.871   5.339   8.929
17179TIP3   OH218607   6.847   4.935   8.883
17179TIP3    H118608   6.811   4.907   8.797
17179TIP3    H218609   6.771   4.912   8.943
17180TIP3   OH218610   6.266   5.069   8.866
17180TIP3    H118611   6.297   5.063   8.774
17180TIP3    H218612   6.288   4.978   8.899
17181TIP3   OH218613   6.745   4.761   8.657
17181TIP3    H118614   6.788   4.695   8.600
17181TIP3    H218615   6.703   4.703   8.725
17182TIP3   OH218616   6.628   4.587   8.820
17182TIP3    H118617   6.622   4.611   8.916
17182TIP3    H218618   6.532   4.572   8.798
17183TIP3   OH218619   5.684   4.792   8.865
17183TIP3    H118620   5.702   4.765   8.958
17183TIP3    H218621   5.683   4.891   8.872
17184TIP3   OH218622   6.632   5.605   8.624
17184TIP3    H118623   6.537   5.596   8.648
17184TIP3    H218624   6.662   5.665   8.696
17185TIP3   OH218625   7.315   5.096   8.734
17185TIP3    H118626   7.216   5.095   8.731
17185TIP3    H218627   7.333   5.042   8.813
17186TIP3   OH218628   5.540   4.677   8.672
17186TIP3    H118629   5.594   4.705   8.749
17186TIP3    H218630   5.560   4.748   8.608
17187TIP3   OH218631   5.753   4.420   8.822
17187TIP3    H118632   5.736   4.462   8.907
17187TIP3    H218633   5.777   4.329   8.849
17188TIP3   OH218634   5.802   4.140   8.839
17188TIP3    H118635   5.740   4.090   8.780
17188TIP3    H218636   5.879   4.151   8.781
17189TIP3   OH218637   5.612   4.001   8.703
17189TIP3    H118638   5.582   3.946   8.780
17189TIP3    H218639   5.528   4.045   8.678
17190TIP3   OH218640   7.228   3.865   8.630
17190TIP3    H118641   7.219   3.936   8.696
17190TIP3    H218642   7.218   3.916   8.547
17191TIP3   OH218643   7.105   4.044   8.793
17191TIP3    H118644   7.041   3.988   8.841
17191TIP3    H218645   7.059   4.058   8.708
17192TIP3   OH218646   6.360   5.549   8.668
17192TIP3    H118647   6.273   5.588   8.684
17192TIP3    H218648   6.373   5.505   8.756
17193TIP3   OH218649   7.118   5.549   8.826
17193TIP3    H118650   7.143   5.591   8.741
17193TIP3    H218651   7.061   5.476   8.798
17194TIP3   OH218652   4.482   4.589   8.741
17194TIP3    H118653   4.410   4.627   8.686
17194TIP3    H218654   4.429   4.520   8.785
17195TIP3   OH218655   4.241   4.656   8.641
17195TIP3    H118656   4.263   4.712   8.566
17195TIP3    H218657   4.188   4.715   8.700
17196TIP3   OH218658   3.858   3.819   8.558
17196TIP3    H118659   3.943   3.807   8.602
17196TIP3    H218660   3.819   3.892   8.611
17197TIP3   OH218661   3.753   5.272   8.791
17197TIP3    H118662   3.735   5.363   8.761
17197TIP3    H218663   3.674   5.227   8.754
17198TIP3   OH218664   4.172   5.503   8.688
17198TIP3    H118665   4.145   5.443   8.760
17198TIP3    H218666   4.129   5.458   8.612
17199TIP3   OH218667   4.069   4.815   8.762
17199TIP3    H118668   4.103   4.830   8.853
17199TIP3    H218669   3.975   4.798   8.785
17200TIP3   OH218670   4.506   4.117   8.710
17200TIP3    H118671   4.590   4.158   8.686
17200TIP3    H218672   4.535   4.047   8.769
17201TIP3   OH218673   4.875   4.182   8.849
17201TIP3    H118674   4.937   4.141   8.783
17201TIP3    H218675   4.935   4.244   8.895
17202TIP3   OH218676   5.428   4.177   8.610
17202TIP3    H118677   5.366   4.229   8.666
17202TIP3    H218678   5.487   4.249   8.582
17203TIP3   OH218679   4.997   4.442   8.707
17203TIP3    H118680   5.020   4.394   8.788
17203TIP3    H218681   4.928   4.501   8.741
17204TIP3   OH218682   4.260   4.223   8.733
17204TIP3    H118683   4.350   4.204   8.696
17204TIP3    H218684   4.220   4.274   8.659
17205TIP3   OH218685   4.179   4.406   8.560
17205TIP3    H118686   4.096   4.408   8.510
17205TIP3    H218687   4.176   4.490   8.611
17206TIP3   OH218688   4.438   5.044   8.598
17206TIP3    H118689   4.490   5.127   8.596
17206TIP3    H218690   4.504   4.979   8.570
17207TIP3   OH218691   3.697   4.412   8.577
17207TIP3    H118692   3.754   4.376   8.648
17207TIP3    H218693   3.686   4.504   8.609
17208TIP3   OH218694   5.262   4.696   8.758
17208TIP3    H118695   5.237   4.773   8.701
17208TIP3    H218696   5.355   4.683   8.731
17209TIP3   OH218697   4.086   5.109   8.719
17209TIP3    H118698   4.064   5.110   8.625
17209TIP3    H218699   4.181   5.085   8.717
17210TIP3   OH218700   3.692   5.516   8.689
17210TIP3    H118701   3.621   5.578   8.705
17210TIP3    H218702   3.748   5.568   8.628
17211TIP3   OH218703   4.711   5.195   8.881
17211TIP3    H118704   4.748   5.145   8.956
17211TIP3    H218705   4.752   5.148   8.805
17212TIP3   OH218706   4.842   5.138   8.640
17212TIP3    H118707   4.816   5.086   8.562
17212TIP3    H218708   4.853   5.227   8.599
17213TIP3   OH218709   5.205   4.880   8.576
17213TIP3    H118710   5.209   4.804   8.515
17213TIP3    H218711   5.111   4.905   8.573
17214TIP3   OH218712   4.591   5.280   8.592
17214TIP3    H118713   4.683   5.313   8.592
17214TIP3    H218714   4.546   5.352   8.641
17215TIP3   OH218715   4.860   5.378   8.527
17215TIP3    H118716   4.868   5.451   8.591
17215TIP3    H218717   4.842   5.429   8.448
17216TIP3   OH218718   4.990   4.071   8.638
17216TIP3    H118719   4.972   4.138   8.568
17216TIP3    H218720   4.903   4.030   8.644
17217TIP3   OH218721   5.150   5.144   8.718
17217TIP3    H118722   5.084   5.180   8.658
17217TIP3    H218723   5.092   5.086   8.770
17218TIP3   OH218724   5.323   4.395   8.763
17218TIP3    H118725   5.266   4.474   8.760
17218TIP3    H218726   5.395   4.421   8.821
17219TIP3   OH218727   4.511   5.395   8.870
17219TIP3    H118728   4.568   5.316   8.879
17219TIP3    H218729   4.429   5.366   8.915
17220TIP3   OH218730   4.072   5.334   8.883
17220TIP3    H118731   4.058   5.260   8.820
17220TIP3    H218732   3.988   5.334   8.933
17221TIP3   OH218733   4.963   4.914   8.884
17221TIP3    H118734   4.925   4.895   8.797
17221TIP3    H218735   4.886   4.901   8.944
17222TIP3   OH218736   4.383   5.068   8.868
17222TIP3    H118737   4.405   5.059   8.773
17222TIP3    H218738   4.401   4.977   8.901
17223TIP3   OH218739   4.853   4.754   8.657
17223TIP3    H118740   4.901   4.686   8.606
17223TIP3    H218741   4.812   4.699   8.728
17224TIP3   OH218742   4.741   4.583   8.827
17224TIP3    H118743   4.736   4.613   8.920
17224TIP3    H218744   4.646   4.566   8.807
17225TIP3   OH218745   3.801   4.798   8.865
17225TIP3    H118746   3.821   4.769   8.958
17225TIP3    H218747   3.801   4.897   8.876
17226TIP3   OH218748   4.748   5.605   8.622
17226TIP3    H118749   4.654   5.598   8.651
17226TIP3    H218750   4.780   5.669   8.687
17227TIP3   OH218751   5.428   5.100   8.732
17227TIP3    H118752   5.329   5.100   8.729
17227TIP3    H218753   5.445   5.046   8.811
17228TIP3   OH218754   3.660   4.690   8.667
17228TIP3    H118755   3.714   4.711   8.746
17228TIP3    H218756   3.681   4.767   8.610
17229TIP3   OH218757   3.855   4.413   8.815
17229TIP3    H118758   3.841   4.459   8.898
17229TIP3    H218759   3.890   4.326   8.845
17230TIP3   OH218760   3.921   4.145   8.841
17230TIP3    H118761   3.854   4.098   8.785
17230TIP3    H218762   3.996   4.152   8.780
17231TIP3   OH218763   3.720   4.009   8.710
17231TIP3    H118764   3.696   3.952   8.787
17231TIP3    H218765   3.633   4.046   8.684
17232TIP3   OH218766   5.339   3.871   8.638
17232TIP3    H118767   5.321   3.950   8.695
17232TIP3    H218768   5.337   3.915   8.552
17233TIP3   OH218769   5.211   4.053   8.788
17233TIP3    H118770   5.151   3.994   8.838
17233TIP3    H218771   5.159   4.066   8.706
17234TIP3   OH218772   4.480   5.559   8.670
17234TIP3    H118773   4.388   5.587   8.680
17234TIP3    H218774   4.492   5.509   8.754
17235TIP3   OH218775   5.260   5.534   8.837
17235TIP3    H118776   5.280   5.586   8.756
17235TIP3    H218777   5.189   5.476   8.805
17236TIP3   OH218778   2.599   4.599   8.745
17236TIP3    H118779   2.528   4.628   8.683
17236TIP3    H218780   2.549   4.526   8.787
17237TIP3   OH218781   2.355   4.652   8.638
17237TIP3    H118782   2.367   4.702   8.556
17237TIP3    H218783   2.291   4.709   8.689
17238TIP3   OH218784   1.977   3.820   8.557
17238TIP3    H118785   2.065   3.821   8.597
17238TIP3    H218786   1.932   3.895   8.602
17239TIP3   OH218787   1.870   5.272   8.788
17239TIP3    H118788   1.851   5.366   8.769
17239TIP3    H218789   1.790   5.234   8.747
17240TIP3   OH218790   2.286   5.505   8.683
17240TIP3    H118791   2.261   5.445   8.757
17240TIP3    H218792   2.242   5.457   8.609
17241TIP3   OH218793   2.185   4.812   8.761
17241TIP3    H118794   2.219   4.824   8.853
17241TIP3    H218795   2.089   4.801   8.782
17242TIP3   OH218796   2.623   4.118   8.716
17242TIP3    H118797   2.708   4.156   8.690
17242TIP3    H218798   2.650   4.045   8.772
17243TIP3   OH218799   2.988   4.179   8.851
17243TIP3    H118800   3.044   4.134   8.783
17243TIP3    H218801   3.051   4.247   8.885
17244TIP3   OH218802   3.536   4.179   8.610
17244TIP3    H118803   3.477   4.232   8.668
17244TIP3    H218804   3.598   4.250   8.584
17245TIP3   OH218805   3.107   4.454   8.707
17245TIP3    H118806   3.136   4.397   8.779
17245TIP3    H218807   3.045   4.511   8.757
17246TIP3   OH218808   2.381   4.228   8.733
17246TIP3    H118809   2.469   4.205   8.696
17246TIP3    H218810   2.338   4.272   8.657
17247TIP3   OH218811   2.295   4.406   8.555
17247TIP3    H118812   2.205   4.415   8.520
17247TIP3    H218813   2.304   4.487   8.609
17248TIP3   OH218814   2.557   5.052   8.600
17248TIP3    H118815   2.613   5.133   8.594
17248TIP3    H218816   2.612   4.987   8.555
17249TIP3   OH218817   1.807   4.416   8.567
17249TIP3    H118818   1.859   4.376   8.640
17249TIP3    H218819   1.797   4.506   8.606
17250TIP3   OH218820   3.394   4.699   8.756
17250TIP3    H118821   3.368   4.776   8.701
17250TIP3    H218822   3.485   4.686   8.723
17251TIP3   OH218823   2.205   5.102   8.709
17251TIP3    H118824   2.229   5.134   8.621
17251TIP3    H218825   2.289   5.061   8.738
17252TIP3   OH218826   1.814   5.521   8.710
17252TIP3    H118827   1.737   5.577   8.693
17252TIP3    H218828   1.885   5.577   8.673
17253TIP3   OH218829   2.824   5.198   8.875
17253TIP3    H118830   2.852   5.143   8.950
17253TIP3    H218831   2.867   5.150   8.800
17254TIP3   OH218832   2.954   5.133   8.644
17254TIP3    H118833   2.931   5.079   8.567
17254TIP3    H218834   2.970   5.221   8.602
17255TIP3   OH218835   3.320   4.877   8.574
17255TIP3    H118836   3.327   4.800   8.516
17255TIP3    H218837   3.224   4.894   8.575
17256TIP3   OH218838   2.708   5.283   8.585
17256TIP3    H118839   2.801   5.311   8.593
17256TIP3    H218840   2.661   5.351   8.636
17257TIP3   OH218841   2.982   5.371   8.530
17257TIP3    H118842   2.992   5.446   8.592
17257TIP3    H218843   2.952   5.417   8.452
17258TIP3   OH218844   3.107   4.067   8.638
17258TIP3    H118845   3.097   4.129   8.563
17258TIP3    H218846   3.020   4.025   8.636
17259TIP3   OH218847   3.265   5.141   8.729
17259TIP3    H118848   3.202   5.176   8.666
17259TIP3    H218849   3.204   5.089   8.784
17260TIP3   OH218850   3.439   4.395   8.767
17260TIP3    H118851   3.391   4.479   8.776
17260TIP3    H218852   3.519   4.410   8.819
17261TIP3   OH218853   2.626   5.400   8.870
17261TIP3    H118854   2.684   5.321   8.880
17261TIP3    H218855   2.545   5.371   8.918
17262TIP3   OH218856   2.193   5.332   8.879
17262TIP3    H118857   2.177   5.259   8.815
17262TIP3    H218858   2.107   5.336   8.926
17263TIP3   OH218859   3.074   4.918   8.889
17263TIP3    H118860   3.032   4.896   8.805
17263TIP3    H218861   3.002   4.897   8.954
17264TIP3   OH218862   2.491   5.064   8.867
17264TIP3    H118863   2.520   5.059   8.774
17264TIP3    H218864   2.516   4.973   8.900
17265TIP3   OH218865   2.966   4.748   8.655
17265TIP3    H118866   2.982   4.679   8.589
17265TIP3    H218867   2.926   4.696   8.729
17266TIP3   OH218868   2.861   4.585   8.832
17266TIP3    H118869   2.854   4.607   8.928
17266TIP3    H218870   2.767   4.567   8.810
17267TIP3   OH218871   1.932   4.792   8.868
17267TIP3    H118872   1.941   4.761   8.961
17267TIP3    H218873   1.931   4.890   8.881
17268TIP3   OH218874   2.863   5.601   8.618
17268TIP3    H118875   2.766   5.592   8.630
17268TIP3    H218876   2.885   5.658   8.694
17269TIP3   OH218877   3.543   5.093   8.729
17269TIP3    H118878   3.445   5.094   8.724
17269TIP3    H218879   3.556   5.041   8.811
17270TIP3   OH218880   1.769   4.688   8.672
17270TIP3    H118881   1.827   4.711   8.748
17270TIP3    H218882   1.790   4.759   8.608
17271TIP3   OH218883   1.971   4.411   8.815
17271TIP3    H118884   1.957   4.462   8.896
17271TIP3    H218885   2.003   4.326   8.851
17272TIP3   OH218886   2.037   4.138   8.844
17272TIP3    H118887   1.973   4.096   8.781
17272TIP3    H218888   2.115   4.147   8.788
17273TIP3   OH218889   1.834   4.004   8.699
17273TIP3    H118890   1.802   3.945   8.772
17273TIP3    H218891   1.752   4.050   8.672
17274TIP3   OH218892   3.452   3.866   8.635
17274TIP3    H118893   3.443   3.939   8.700
17274TIP3    H218894   3.446   3.919   8.553
17275TIP3   OH218895   3.331   4.045   8.793
17275TIP3    H118896   3.268   3.987   8.841
17275TIP3    H218897   3.283   4.057   8.708
17276TIP3   OH218898   2.577   5.548   8.662
17276TIP3    H118899   2.485   5.574   8.674
17276TIP3    H218900   2.594   5.505   8.750
17277TIP3   OH218901   3.369   5.535   8.835
17277TIP3    H118902   3.391   5.584   8.753
17277TIP3    H218903   3.297   5.477   8.806
17278TIP3   OH218904   0.704   4.531   8.768
17278TIP3    H118905   0.647   4.587   8.711
17278TIP3    H218906   0.645   4.456   8.786
17279TIP3   OH218907   0.509   4.665   8.638
17279TIP3    H118908   0.493   4.730   8.568
17279TIP3    H218909   0.454   4.705   8.710
17280TIP3   OH218910   0.155   3.796   8.529
17280TIP3    H118911   0.238   3.788   8.579
17280TIP3    H218912   0.093   3.826   8.598
17281TIP3   OH218913   9.336   5.279   8.811
17281TIP3    H118914   9.349   5.374   8.827
17281TIP3    H218915   9.268   5.276   8.741
17282TIP3   OH218916   0.386   5.533   8.698
17282TIP3    H118917   0.364   5.464   8.765
17282TIP3    H218918   0.362   5.483   8.616
17283TIP3   OH218919   0.336   4.792   8.786
17283TIP3    H118920   0.342   4.774   8.883
17283TIP3    H218921   0.241   4.811   8.775
17284TIP3   OH218922   0.766   4.118   8.721
17284TIP3    H118923   0.833   4.145   8.657
17284TIP3    H218924   0.811   4.051   8.775
17285TIP3   OH218925   1.116   4.160   8.861
17285TIP3    H118926   1.167   4.133   8.780
17285TIP3    H218927   1.173   4.231   8.896
17286TIP3   OH218928   1.655   4.185   8.609
17286TIP3    H118929   1.596   4.239   8.665
17286TIP3    H218930   1.714   4.255   8.577
17287TIP3   OH218931   1.194   4.459   8.703
17287TIP3    H118932   1.227   4.410   8.781
17287TIP3    H218933   1.132   4.518   8.748
17288TIP3   OH218934   0.504   4.208   8.742
17288TIP3    H118935   0.595   4.184   8.711
17288TIP3    H218936   0.473   4.267   8.670
17289TIP3   OH218937   0.431   4.399   8.564
17289TIP3    H118938   0.338   4.397   8.589
17289TIP3    H218939   0.460   4.478   8.615
17290TIP3   OH218940   0.681   5.058   8.598
17290TIP3    H118941   0.732   5.141   8.592
17290TIP3    H218942   0.743   4.993   8.565
17291TIP3   OH218943   1.504   4.698   8.755
17291TIP3    H118944   1.486   4.780   8.704
17291TIP3    H218945   1.596   4.681   8.726
17292TIP3   OH218946   0.328   5.128   8.696
17292TIP3    H118947   0.320   5.093   8.606
17292TIP3    H218948   0.425   5.129   8.708
17293TIP3   OH218949   0.942   5.192   8.880
17293TIP3    H118950   0.983   5.145   8.954
17293TIP3    H218951   0.984   5.146   8.804
17294TIP3   OH218952   1.073   5.139   8.644
17294TIP3    H118953   1.055   5.085   8.566
17294TIP3    H218954   1.086   5.226   8.603
17295TIP3   OH218955   1.425   4.878   8.582
17295TIP3    H118956   1.412   4.797   8.530
17295TIP3    H218957   1.334   4.904   8.601
17296TIP3   OH218958   0.833   5.291   8.590
17296TIP3    H118959   0.920   5.334   8.581
17296TIP3    H218960   0.789   5.349   8.654
17297TIP3   OH218961   1.107   5.379   8.517
17297TIP3    H118962   1.120   5.446   8.587
17297TIP3    H218963   1.080   5.438   8.446
17298TIP3   OH218964   1.221   4.068   8.639
17298TIP3    H118965   1.214   4.133   8.567
17298TIP3    H218966   1.136   4.024   8.631
17299TIP3   OH218967   1.379   5.140   8.729
17299TIP3    H118968   1.324   5.175   8.657
17299TIP3    H218969   1.312   5.093   8.780
17300TIP3   OH218970   1.554   4.396   8.765
17300TIP3    H118971   1.502   4.479   8.768
17300TIP3    H218972   1.629   4.419   8.821
17301TIP3   OH218973   0.749   5.404   8.866
17301TIP3    H118974   0.804   5.323   8.876
17301TIP3    H218975   0.669   5.374   8.916
17302TIP3   OH218976   0.308   5.338   8.876
17302TIP3    H118977   0.292   5.269   8.807
17302TIP3    H218978   0.227   5.333   8.932
17303TIP3   OH218979   1.192   4.926   8.883
17303TIP3    H118980   1.155   4.895   8.799
17303TIP3    H218981   1.119   4.904   8.946
17304TIP3   OH218982   0.608   5.060   8.865
17304TIP3    H118983   0.628   5.047   8.770
17304TIP3    H218984   0.631   4.970   8.900
17305TIP3   OH218985   1.093   4.755   8.664
17305TIP3    H118986   1.088   4.696   8.587
17305TIP3    H218987   1.053   4.698   8.733
17306TIP3   OH218988   0.966   4.581   8.827
17306TIP3    H118989   0.967   4.599   8.924
17306TIP3    H218990   0.873   4.551   8.813
17307TIP3   OH218991   0.058   4.799   8.809
17307TIP3    H118992   0.075   4.746   8.889
17307TIP3    H218993   0.071   4.892   8.842
17308TIP3   OH218994   0.976   5.601   8.613
17308TIP3    H118995   0.879   5.592   8.625
17308TIP3    H218996   0.997   5.663   8.686
17309TIP3   OH218997   1.659   5.102   8.730
17309TIP3    H118998   1.562   5.095   8.729
17309TIP3    H218999   1.681   5.050   8.810
17310TIP3   OH219000   0.098   4.467   8.736
17310TIP3    H119001   0.065   4.496   8.822
17310TIP3    H219002   0.146   4.387   8.764
17311TIP3   OH219003   0.193   4.214   8.855
17311TIP3    H119004   0.135   4.142   8.829
17311TIP3    H219005   0.269   4.165   8.893
17312TIP3   OH219006   1.583   3.862   8.631
17312TIP3    H119007   1.578   3.931   8.699
17312TIP3    H219008   1.553   3.913   8.553
17313TIP3   OH219009   1.455   4.040   8.793
17313TIP3    H119010   1.391   3.986   8.843
17313TIP3    H219011   1.408   4.053   8.708
17314TIP3   OH219012   0.715   5.556   8.659
17314TIP3    H119013   0.625   5.591   8.665
17314TIP3    H219014   0.722   5.514   8.748
17315TIP3   OH219015   1.482   5.537   8.830
17315TIP3    H119016   1.503   5.578   8.744
17315TIP3    H219017   1.413   5.473   8.807
17316TIP3   OH219018   8.256   6.469   8.739
17316TIP3    H119019   8.186   6.501   8.679
17316TIP3    H219020   8.203   6.404   8.789
17317TIP3   OH219021   8.010   6.541   8.639
17317TIP3    H119022   8.026   6.594   8.559
17317TIP3    H219023   7.947   6.596   8.691
17318TIP3   OH219024   7.628   5.706   8.556
17318TIP3    H119025   7.709   5.698   8.610
17318TIP3    H219026   7.580   5.775   8.606
17319TIP3   OH219027   7.528   7.161   8.793
17319TIP3    H119028   7.510   7.256   8.774
17319TIP3    H219029   7.452   7.122   8.747
17320TIP3   OH219030   7.942   7.383   8.680
17320TIP3    H119031   7.916   7.324   8.754
17320TIP3    H219032   7.891   7.340   8.607
17321TIP3   OH219033   7.837   6.694   8.766
17321TIP3    H119034   7.873   6.714   8.854
17321TIP3    H219035   7.743   6.682   8.790
17322TIP3   OH219036   8.278   6.004   8.711
17322TIP3    H119037   8.356   6.040   8.667
17322TIP3    H219038   8.316   5.944   8.776
17323TIP3   OH219039   8.640   6.051   8.860
17323TIP3    H119040   8.700   6.026   8.786
17323TIP3    H219041   8.692   6.121   8.906
17324TIP3   OH219042   9.198   6.052   8.617
17324TIP3    H119043   9.110   6.046   8.657
17324TIP3    H219044   9.216   6.147   8.616
17325TIP3   OH219045   8.733   6.342   8.702
17325TIP3    H119046   8.779   6.289   8.771
17325TIP3    H219047   8.672   6.392   8.759
17326TIP3   OH219048   8.027   6.108   8.731
17326TIP3    H119049   8.118   6.092   8.699
17326TIP3    H219050   7.989   6.159   8.656
17327TIP3   OH219051   7.953   6.296   8.555
17327TIP3    H119052   7.864   6.302   8.515
17327TIP3    H219053   7.957   6.378   8.609
17328TIP3   OH219054   8.196   6.930   8.606
17328TIP3    H119055   8.248   7.012   8.606
17328TIP3    H219056   8.261   6.868   8.568
17329TIP3   OH219057   7.463   6.295   8.568
17329TIP3    H119058   7.519   6.257   8.639
17329TIP3    H219059   7.453   6.386   8.601
17330TIP3   OH219060   9.134   6.602   8.777
17330TIP3    H119061   9.084   6.622   8.695
17330TIP3    H219062   9.226   6.623   8.752
17331TIP3   OH219063   7.857   6.992   8.708
17331TIP3    H119064   7.873   7.022   8.617
17331TIP3    H219065   7.946   6.962   8.733
17332TIP3   OH219066   7.468   7.406   8.709
17332TIP3    H119067   7.389   7.461   8.697
17332TIP3    H219068   7.529   7.447   8.645
17333TIP3   OH219069   8.462   7.097   8.895
17333TIP3    H119070   8.501   7.029   8.952
17333TIP3    H219071   8.493   7.066   8.807
17334TIP3   OH219072   8.591   7.021   8.646
17334TIP3    H119073   8.614   6.956   8.577
17334TIP3    H219074   8.622   7.103   8.602
17335TIP3   OH219075   9.002   6.714   8.561
17335TIP3    H119076   9.005   6.733   8.466
17335TIP3    H219077   8.940   6.781   8.595
17336TIP3   OH219078   8.385   7.204   8.609
17336TIP3    H119079   8.476   7.227   8.583
17336TIP3    H219080   8.354   7.288   8.648
17337TIP3   OH219081   8.650   7.261   8.521
17337TIP3    H119082   8.647   7.319   8.600
17337TIP3    H219083   8.643   7.329   8.452
17338TIP3   OH219084   8.766   5.961   8.632
17338TIP3    H119085   8.811   6.002   8.556
17338TIP3    H219086   8.675   5.975   8.601
17339TIP3   OH219087   8.893   6.959   8.688
17339TIP3    H119088   8.836   7.018   8.637
17339TIP3    H219089   8.832   6.932   8.759
17340TIP3   OH219090   9.039   6.302   8.803
17340TIP3    H119091   9.049   6.380   8.746
17340TIP3    H219092   9.131   6.280   8.826
17341TIP3   OH219093   8.280   7.298   8.883
17341TIP3    H119094   8.335   7.216   8.885
17341TIP3    H219095   8.198   7.263   8.925
17342TIP3   OH219096   7.850   7.214   8.882
17342TIP3    H119097   7.831   7.142   8.817
17342TIP3    H219098   7.762   7.223   8.926
17343TIP3   OH219099   8.728   6.811   8.878
17343TIP3    H119100   8.683   6.773   8.799
17343TIP3    H219101   8.659   6.794   8.946
17344TIP3   OH219102   8.143   6.953   8.872
17344TIP3    H119103   8.163   6.938   8.777
17344TIP3    H219104   8.169   6.865   8.909
17345TIP3   OH219105   8.621   6.646   8.658
17345TIP3    H119106   8.640   6.576   8.595
17345TIP3    H219107   8.586   6.593   8.734
17346TIP3   OH219108   8.526   6.486   8.841
17346TIP3    H119109   8.539   6.483   8.939
17346TIP3    H219110   8.429   6.472   8.832
17347TIP3   OH219111   7.576   6.679   8.863
17347TIP3    H119112   7.585   6.656   8.959
17347TIP3    H219113   7.576   6.778   8.868
17348TIP3   OH219114   8.516   7.485   8.618
17348TIP3    H119115   8.420   7.505   8.611
17348TIP3    H219116   8.539   7.537   8.696
17349TIP3   OH219117   9.155   6.971   8.684
17349TIP3    H119118   9.058   6.963   8.702
17349TIP3    H219119   9.192   6.964   8.773
17350TIP3   OH219120   7.425   6.569   8.670
17350TIP3    H119121   7.483   6.594   8.746
17350TIP3    H219122   7.446   6.640   8.607
17351TIP3   OH219123   7.631   6.294   8.811
17351TIP3    H119124   7.608   6.344   8.890
17351TIP3    H219125   7.662   6.209   8.847
17352TIP3   OH219126   7.690   6.026   8.847
17352TIP3    H119127   7.627   5.979   8.787
17352TIP3    H219128   7.768   6.032   8.789
17353TIP3   OH219129   7.490   5.893   8.711
17353TIP3    H119130   7.459   5.834   8.784
17353TIP3    H219131   7.406   5.936   8.683
17354TIP3   OH219132   9.100   5.758   8.626
17354TIP3    H119133   9.103   5.820   8.701
17354TIP3    H219134   9.087   5.821   8.553
17355TIP3   OH219135   8.983   5.942   8.777
17355TIP3    H119136   8.931   5.883   8.836
17355TIP3    H219137   8.920   5.941   8.702
17356TIP3   OH219138   8.242   7.446   8.668
17356TIP3    H119139   8.153   7.474   8.691
17356TIP3    H219140   8.265   7.405   8.755
17357TIP3   OH219141   8.998   7.407   8.807
17357TIP3    H119142   9.020   7.434   8.716
17357TIP3    H219143   8.922   7.349   8.794
17358TIP3   OH219144   6.371   6.480   8.743
17358TIP3    H119145   6.302   6.514   8.683
17358TIP3    H219146   6.319   6.410   8.787
17359TIP3   OH219147   6.119   6.542   8.633
17359TIP3    H119148   6.132   6.593   8.552
17359TIP3    H219149   6.052   6.594   8.684
17360TIP3   OH219150   5.749   5.706   8.564
17360TIP3    H119151   5.833   5.694   8.611
17360TIP3    H219152   5.709   5.781   8.613
17361TIP3   OH219153   5.645   7.153   8.782
17361TIP3    H119154   5.630   7.249   8.766
17361TIP3    H219155   5.563   7.119   8.740
17362TIP3   OH219156   6.052   7.385   8.680
17362TIP3    H119157   6.026   7.327   8.754
17362TIP3    H219158   6.008   7.338   8.606
17363TIP3   OH219159   5.950   6.697   8.762
17363TIP3    H119160   5.986   6.714   8.851
17363TIP3    H219161   5.855   6.683   8.786
17364TIP3   OH219162   6.394   6.002   8.717
17364TIP3    H119163   6.478   6.040   8.693
17364TIP3    H219164   6.421   5.929   8.774
17365TIP3   OH219165   6.759   6.069   8.841
17365TIP3    H119166   6.817   6.029   8.772
17365TIP3    H219167   6.821   6.132   8.884
17366TIP3   OH219168   7.312   6.068   8.608
17366TIP3    H119169   7.252   6.121   8.666
17366TIP3    H219170   7.372   6.140   8.581
17367TIP3   OH219171   6.875   6.335   8.707
17367TIP3    H119172   6.901   6.288   8.788
17367TIP3    H219173   6.803   6.389   8.744
17368TIP3   OH219174   6.147   6.105   8.725
17368TIP3    H119175   6.238   6.086   8.695
17368TIP3    H219176   6.112   6.160   8.651
17369TIP3   OH219177   6.072   6.293   8.556
17369TIP3    H119178   5.988   6.291   8.508
17369TIP3    H219179   6.068   6.377   8.606
17370TIP3   OH219180   6.335   6.939   8.600
17370TIP3    H119181   6.386   7.022   8.597
17370TIP3    H219182   6.402   6.873   8.579
17371TIP3   OH219183   5.576   6.295   8.572
17371TIP3    H119184   5.623   6.248   8.644
17371TIP3    H219185   5.571   6.385   8.611
17372TIP3   OH219186   7.159   6.584   8.754
17372TIP3    H119187   7.140   6.664   8.700
17372TIP3    H219188   7.253   6.567   8.728
17373TIP3   OH219189   5.965   6.990   8.712
17373TIP3    H119190   5.948   6.994   8.618
17373TIP3    H219191   6.060   6.966   8.715
17374TIP3   OH219192   5.586   7.399   8.701
17374TIP3    H119193   5.511   7.460   8.703
17374TIP3    H219194   5.643   7.444   8.637
17375TIP3   OH219195   6.594   7.090   8.889
17375TIP3    H119196   6.624   7.034   8.962
17375TIP3    H219197   6.637   7.043   8.813
17376TIP3   OH219198   6.725   7.018   8.644
17376TIP3    H119199   6.708   6.971   8.561
17376TIP3    H219200   6.738   7.109   8.610
17377TIP3   OH219201   7.090   6.768   8.580
17377TIP3    H119202   7.089   6.691   8.519
17377TIP3    H219203   6.996   6.788   8.588
17378TIP3   OH219204   6.482   7.176   8.593
17378TIP3    H119205   6.573   7.213   8.589
17378TIP3    H219206   6.435   7.249   8.639
17379TIP3   OH219207   6.745   7.259   8.535
17379TIP3    H119208   6.757   7.326   8.606
17379TIP3    H219209   6.732   7.318   8.459
17380TIP3   OH219210   6.881   5.950   8.636
17380TIP3    H119211   6.853   6.011   8.564
17380TIP3    H219212   6.807   5.888   8.641
17381TIP3   OH219213   7.034   7.031   8.726
17381TIP3    H119214   6.970   7.067   8.663
17381TIP3    H219215   6.976   6.972   8.774
17382TIP3   OH219216   7.208   6.280   8.759
17382TIP3    H119217   7.153   6.361   8.752
17382TIP3    H219218   7.278   6.307   8.819
17383TIP3   OH219219   6.397   7.283   8.869
17383TIP3    H119220   6.453   7.203   8.879
17383TIP3    H219221   6.315   7.252   8.913
17384TIP3   OH219222   5.959   7.213   8.885
17384TIP3    H119223   5.945   7.140   8.821
17384TIP3    H219224   5.872   7.220   8.930
17385TIP3   OH219225   6.851   6.810   8.876
17385TIP3    H119226   6.807   6.795   8.791
17385TIP3    H219227   6.776   6.794   8.938
17386TIP3   OH219228   6.270   6.955   8.870
17386TIP3    H119229   6.296   6.949   8.776
17386TIP3    H219230   6.285   6.861   8.900
17387TIP3   OH219231   6.742   6.639   8.655
17387TIP3    H119232   6.808   6.576   8.621
17387TIP3    H219233   6.699   6.585   8.726
17388TIP3   OH219234   6.631   6.466   8.822
17388TIP3    H119235   6.630   6.487   8.918
17388TIP3    H219236   6.535   6.455   8.804
17389TIP3   OH219237   5.686   6.680   8.862
17389TIP3    H119238   5.702   6.655   8.956
17389TIP3    H219239   5.691   6.779   8.868
17390TIP3   OH219240   6.630   7.491   8.620
17390TIP3    H119241   6.532   7.486   8.630
17390TIP3    H219242   6.654   7.549   8.695
17391TIP3   OH219243   7.315   6.985   8.736
17391TIP3    H119244   7.216   6.981   8.735
17391TIP3    H219245   7.335   6.929   8.813
17392TIP3   OH219246   5.545   6.566   8.665
17392TIP3    H119247   5.598   6.593   8.744
17392TIP3    H219248   5.563   6.639   8.604
17393TIP3   OH219249   5.751   6.300   8.814
17393TIP3    H119250   5.732   6.349   8.895
17393TIP3    H219251   5.778   6.213   8.850
17394TIP3   OH219252   5.807   6.032   8.843
17394TIP3    H119253   5.743   5.986   8.784
17394TIP3    H219254   5.884   6.041   8.784
17395TIP3   OH219255   5.607   5.894   8.712
17395TIP3    H119256   5.574   5.831   8.781
17395TIP3    H219257   5.523   5.934   8.681
17396TIP3   OH219258   7.223   5.749   8.635
17396TIP3    H119259   7.212   5.822   8.698
17396TIP3    H219260   7.221   5.799   8.552
17397TIP3   OH219261   7.101   5.936   8.791
17397TIP3    H119262   7.038   5.878   8.840
17397TIP3    H219263   7.049   5.951   8.709
17398TIP3   OH219264   6.359   7.442   8.668
17398TIP3    H119265   6.268   7.470   8.687
17398TIP3    H219266   6.376   7.392   8.752
17399TIP3   OH219267   7.137   7.418   8.836
17399TIP3    H119268   7.156   7.465   8.753
17399TIP3    H219269   7.069   7.355   8.809
17400TIP3   OH219270   4.486   6.475   8.739
17400TIP3    H119271   4.417   6.517   8.685
17400TIP3    H219272   4.430   6.410   8.784
17401TIP3   OH219273   4.236   6.543   8.645
17401TIP3    H119274   4.281   6.604   8.585
17401TIP3    H219275   4.178   6.601   8.700
17402TIP3   OH219276   3.863   5.702   8.557
17402TIP3    H119277   3.949   5.691   8.599
17402TIP3    H219278   3.823   5.776   8.609
17403TIP3   OH219279   3.755   7.158   8.793
17403TIP3    H119280   3.738   7.250   8.765
17403TIP3    H219281   3.681   7.115   8.746
17404TIP3   OH219282   4.170   7.387   8.683
17404TIP3    H119283   4.142   7.330   8.758
17404TIP3    H219284   4.126   7.340   8.609
17405TIP3   OH219285   4.066   6.701   8.765
17405TIP3    H119286   4.100   6.714   8.856
17405TIP3    H219287   3.972   6.688   8.786
17406TIP3   OH219288   4.508   6.007   8.720
17406TIP3    H119289   4.590   6.040   8.681
17406TIP3    H219290   4.538   5.936   8.777
17407TIP3   OH219291   4.875   6.061   8.852
17407TIP3    H119292   4.935   6.022   8.785
17407TIP3    H219293   4.934   6.129   8.893
17408TIP3   OH219294   5.423   6.063   8.609
17408TIP3    H119295   5.362   6.114   8.666
17408TIP3    H219296   5.479   6.137   8.578
17409TIP3   OH219297   4.988   6.333   8.711
17409TIP3    H119298   5.012   6.286   8.793
17409TIP3    H219299   4.921   6.392   8.748
17410TIP3   OH219300   4.263   6.111   8.731
17410TIP3    H119301   4.352   6.089   8.696
17410TIP3    H219302   4.222   6.158   8.655
17411TIP3   OH219303   4.180   6.292   8.554
17411TIP3    H119304   4.096   6.292   8.506
17411TIP3    H219305   4.176   6.374   8.607
17412TIP3   OH219306   4.445   6.931   8.600
17412TIP3    H119307   4.494   7.016   8.595
17412TIP3    H219308   4.513   6.867   8.576
17413TIP3   OH219309   3.693   6.297   8.570
17413TIP3    H119310   3.748   6.256   8.639
17413TIP3    H219311   3.686   6.389   8.605
17414TIP3   OH219312   5.273   6.581   8.751
17414TIP3    H119313   5.252   6.662   8.701
17414TIP3    H219314   5.360   6.557   8.714
17415TIP3   OH219315   4.079   6.995   8.714
17415TIP3    H119316   4.064   6.998   8.619
17415TIP3    H219317   4.173   6.967   8.719
17416TIP3   OH219318   3.702   7.399   8.687
17416TIP3    H119319   3.627   7.459   8.698
17416TIP3    H219320   3.753   7.447   8.618
17417TIP3   OH219321   4.711   7.083   8.875
17417TIP3    H119322   4.742   7.031   8.951
17417TIP3    H219323   4.753   7.034   8.801
17418TIP3   OH219324   4.842   7.016   8.641
17418TIP3    H119325   4.822   6.971   8.559
17418TIP3    H219326   4.852   7.108   8.607
17419TIP3   OH219327   5.204   6.766   8.577
17419TIP3    H119328   5.200   6.683   8.528
17419TIP3    H219329   5.109   6.787   8.588
17420TIP3   OH219330   4.592   7.169   8.591
17420TIP3    H119331   4.683   7.204   8.590
17420TIP3    H219332   4.545   7.239   8.640
17421TIP3   OH219333   4.860   7.258   8.537
17421TIP3    H119334   4.872   7.325   8.607
17421TIP3    H219335   4.844   7.315   8.461
17422TIP3   OH219336   4.992   5.953   8.636
17422TIP3    H119337   4.984   6.019   8.564
17422TIP3    H219338   4.901   5.921   8.637
17423TIP3   OH219339   5.147   7.029   8.724
17423TIP3    H119340   5.084   7.065   8.660
17423TIP3    H219341   5.088   6.969   8.771
17424TIP3   OH219342   5.318   6.278   8.763
17424TIP3    H119343   5.256   6.353   8.762
17424TIP3    H219344   5.386   6.309   8.823
17425TIP3   OH219345   4.507   7.281   8.871
17425TIP3    H119346   4.565   7.202   8.879
17425TIP3    H219347   4.426   7.249   8.916
17426TIP3   OH219348   4.072   7.215   8.884
17426TIP3    H119349   4.056   7.141   8.822
17426TIP3    H219350   3.985   7.222   8.930
17427TIP3   OH219351   4.962   6.811   8.878
17427TIP3    H119352   4.913   6.793   8.796
17427TIP3    H219353   4.892   6.793   8.945
17428TIP3   OH219354   4.382   6.956   8.869
17428TIP3    H119355   4.407   6.949   8.774
17428TIP3    H219356   4.399   6.865   8.901
17429TIP3   OH219357   4.851   6.639   8.656
17429TIP3    H119358   4.904   6.574   8.608
17429TIP3    H219359   4.810   6.585   8.727
17430TIP3   OH219360   4.748   6.465   8.825
17430TIP3    H119361   4.746   6.485   8.922
17430TIP3    H219362   4.652   6.453   8.804
17431TIP3   OH219363   3.795   6.682   8.867
17431TIP3    H119364   3.817   6.655   8.960
17431TIP3    H219365   3.799   6.781   8.874
17432TIP3   OH219366   4.747   7.492   8.617
17432TIP3    H119367   4.650   7.493   8.628
17432TIP3    H219368   4.773   7.546   8.694
17433TIP3   OH219369   5.428   6.983   8.728
17433TIP3    H119370   5.330   6.979   8.727
17433TIP3    H219371   5.449   6.930   8.807
17434TIP3   OH219372   3.658   6.570   8.670
17434TIP3    H119373   3.709   6.596   8.750
17434TIP3    H219374   3.679   6.644   8.610
17435TIP3   OH219375   3.863   6.297   8.816
17435TIP3    H119376   3.840   6.345   8.897
17435TIP3    H219377   3.890   6.209   8.851
17436TIP3   OH219378   3.920   6.025   8.843
17436TIP3    H119379   3.859   5.979   8.781
17436TIP3    H219380   4.000   6.033   8.788
17437TIP3   OH219381   3.725   5.888   8.699
17437TIP3    H119382   3.696   5.834   8.778
17437TIP3    H219383   3.641   5.934   8.677
17438TIP3   OH219384   5.336   5.748   8.640
17438TIP3    H119385   5.316   5.824   8.700
17438TIP3    H219386   5.339   5.796   8.555
17439TIP3   OH219387   5.216   5.943   8.784
17439TIP3    H119388   5.153   5.886   8.833
17439TIP3    H219389   5.166   5.959   8.702
17440TIP3   OH219390   4.479   7.444   8.668
17440TIP3    H119391   4.390   7.478   8.685
17440TIP3    H219392   4.492   7.393   8.751
17441TIP3   OH219393   5.245   7.425   8.830
17441TIP3    H119394   5.267   7.474   8.748
17441TIP3    H219395   5.181   7.359   8.798
17442TIP3   OH219396   2.604   6.475   8.736
17442TIP3    H119397   2.534   6.516   8.683
17442TIP3    H219398   2.547   6.411   8.784
17443TIP3   OH219399   2.355   6.541   8.644
17443TIP3    H119400   2.369   6.592   8.564
17443TIP3    H219401   2.296   6.599   8.700
17444TIP3   OH219402   1.970   5.707   8.559
17444TIP3    H119403   2.057   5.698   8.600
17444TIP3    H219404   1.936   5.787   8.604
17445TIP3   OH219405   1.868   7.148   8.787
17445TIP3    H119406   1.851   7.242   8.768
17445TIP3    H219407   1.792   7.108   8.738
17446TIP3   OH219408   2.286   7.383   8.681
17446TIP3    H119409   2.259   7.323   8.753
17446TIP3    H219410   2.241   7.340   8.605
17447TIP3   OH219411   2.181   6.697   8.764
17447TIP3    H119412   2.217   6.712   8.855
17447TIP3    H219413   2.087   6.682   8.787
17448TIP3   OH219414   2.624   6.001   8.716
17448TIP3    H119415   2.706   6.047   8.694
17448TIP3    H219416   2.655   5.933   8.778
17449TIP3   OH219417   2.993   6.078   8.846
17449TIP3    H119418   3.050   6.030   8.781
17449TIP3    H219419   3.054   6.150   8.874
17450TIP3   OH219420   3.541   6.063   8.608
17450TIP3    H119421   3.476   6.112   8.663
17450TIP3    H219422   3.596   6.139   8.580
17451TIP3   OH219423   3.105   6.346   8.704
17451TIP3    H119424   3.146   6.291   8.773
17451TIP3    H219425   3.036   6.392   8.754
17452TIP3   OH219426   2.375   6.110   8.729
17452TIP3    H119427   2.465   6.088   8.694
17452TIP3    H219428   2.335   6.158   8.654
17453TIP3   OH219429   2.298   6.294   8.551
17453TIP3    H119430   2.212   6.290   8.505
17453TIP3    H219431   2.289   6.375   8.607
17454TIP3   OH219432   2.563   6.933   8.597
17454TIP3    H119433   2.613   7.017   8.588
17454TIP3    H219434   2.629   6.866   8.576
17455TIP3   OH219435   1.806   6.298   8.572
17455TIP3    H119436   1.861   6.257   8.643
17455TIP3    H219437   1.796   6.388   8.610
17456TIP3   OH219438   3.391   6.582   8.753
17456TIP3    H119439   3.370   6.663   8.702
17456TIP3    H219440   3.484   6.569   8.725
17457TIP3   OH219441   2.205   6.991   8.715
17457TIP3    H119442   2.197   7.005   8.620
17457TIP3    H219443   2.298   6.964   8.724
17458TIP3   OH219444   1.817   7.400   8.706
17458TIP3    H119445   1.741   7.459   8.696
17458TIP3    H219446   1.888   7.454   8.666
17459TIP3   OH219447   2.829   7.086   8.881
17459TIP3    H119448   2.860   7.035   8.958
17459TIP3    H219449   2.869   7.034   8.807
17460TIP3   OH219450   2.951   7.019   8.638
17460TIP3    H119451   2.932   6.965   8.560
17460TIP3    H219452   2.956   7.108   8.597
17461TIP3   OH219453   3.321   6.767   8.576
17461TIP3    H119454   3.316   6.687   8.521
17461TIP3    H219455   3.228   6.796   8.577
17462TIP3   OH219456   2.707   7.174   8.582
17462TIP3    H119457   2.797   7.212   8.581
17462TIP3    H219458   2.659   7.243   8.631
17463TIP3   OH219459   2.969   7.264   8.529
17463TIP3    H119460   2.983   7.335   8.596
17463TIP3    H219461   2.957   7.320   8.451
17464TIP3   OH219462   3.103   5.949   8.633
17464TIP3    H119463   3.080   6.014   8.562
17464TIP3    H219464   3.021   5.898   8.637
17465TIP3   OH219465   3.263   7.026   8.721
17465TIP3    H119466   3.197   7.060   8.659
17465TIP3    H219467   3.205   6.974   8.779
17466TIP3   OH219468   3.439   6.285   8.768
17466TIP3    H119469   3.396   6.370   8.752
17466TIP3    H219470   3.514   6.305   8.825
17467TIP3   OH219471   2.633   7.284   8.868
17467TIP3    H119472   2.692   7.206   8.878
17467TIP3    H219473   2.553   7.252   8.917
17468TIP3   OH219474   2.190   7.213   8.884
17468TIP3    H119475   2.177   7.137   8.822
17468TIP3    H219476   2.103   7.220   8.928
17469TIP3   OH219477   3.077   6.807   8.879
17469TIP3    H119478   3.032   6.794   8.794
17469TIP3    H219479   3.006   6.784   8.944
17470TIP3   OH219480   2.497   6.956   8.865
17470TIP3    H119481   2.525   6.949   8.771
17470TIP3    H219482   2.515   6.864   8.897
17471TIP3   OH219483   2.970   6.641   8.657
17471TIP3    H119484   3.035   6.579   8.621
17471TIP3    H219485   2.926   6.584   8.725
17472TIP3   OH219486   2.863   6.465   8.821
17472TIP3    H119487   2.860   6.481   8.918
17472TIP3    H219488   2.768   6.454   8.798
17473TIP3   OH219489   1.919   6.674   8.870
17473TIP3    H119490   1.934   6.647   8.964
17473TIP3    H219491   1.923   6.773   8.878
17474TIP3   OH219492   2.865   7.501   8.606
17474TIP3    H119493   2.770   7.503   8.627
17474TIP3    H219494   2.901   7.561   8.673
17475TIP3   OH219495   3.541   6.982   8.732
17475TIP3    H119496   3.443   6.980   8.729
17475TIP3    H219497   3.559   6.930   8.812
17476TIP3   OH219498   1.768   6.567   8.673
17476TIP3    H119499   1.829   6.590   8.747
17476TIP3    H219500   1.786   6.639   8.609
17477TIP3   OH219501   1.974   6.301   8.823
17477TIP3    H119502   1.960   6.354   8.902
17477TIP3    H219503   2.002   6.214   8.859
17478TIP3   OH219504   2.041   6.026   8.856
17478TIP3    H119505   1.977   5.978   8.799
17478TIP3    H219506   2.115   6.035   8.794
17479TIP3   OH219507   1.845   5.901   8.710
17479TIP3    H119508   1.815   5.841   8.783
17479TIP3    H219509   1.761   5.939   8.677
17480TIP3   OH219510   3.452   5.752   8.640
17480TIP3    H119511   3.444   5.826   8.704
17480TIP3    H219512   3.450   5.805   8.558
17481TIP3   OH219513   3.329   5.940   8.786
17481TIP3    H119514   3.266   5.880   8.833
17481TIP3    H219515   3.285   5.948   8.700
17482TIP3   OH219516   2.598   7.449   8.670
17482TIP3    H119517   2.509   7.481   8.689
17482TIP3    H219518   2.614   7.398   8.753
17483TIP3   OH219519   3.354   7.427   8.832
17483TIP3    H119520   3.380   7.473   8.749
17483TIP3    H219521   3.294   7.358   8.798
17484TIP3   OH219522   0.709   6.427   8.765
17484TIP3    H119523   0.655   6.480   8.703
17484TIP3    H219524   0.646   6.357   8.786
17485TIP3   OH219525   0.502   6.543   8.639
17485TIP3    H119526   0.490   6.609   8.569
17485TIP3    H219527   0.446   6.584   8.710
17486TIP3   OH219528   0.150   5.679   8.535
17486TIP3    H119529   0.242   5.678   8.567
17486TIP3    H219530   0.103   5.736   8.597
17487TIP3   OH219531   9.332   7.157   8.806
17487TIP3    H119532   9.340   7.250   8.832
17487TIP3    H219533   9.273   7.160   8.729
17488TIP3   OH219534   0.386   7.428   8.698
17488TIP3    H119535   0.355   7.346   8.740
17488TIP3    H219536   0.374   7.405   8.604
17489TIP3   OH219537   0.326   6.666   8.785
17489TIP3    H119538   0.332   6.630   8.877
17489TIP3    H219539   0.230   6.683   8.776
17490TIP3   OH219540   0.759   5.999   8.719
17490TIP3    H119541   0.828   6.037   8.663
17490TIP3    H219542   0.807   5.935   8.773
17491TIP3   OH219543   1.108   6.048   8.845
17491TIP3    H119544   1.166   6.017   8.771
17491TIP3    H219545   1.168   6.109   8.892
17492TIP3   OH219546   1.659   6.066   8.609
17492TIP3    H119547   1.596   6.115   8.666
17492TIP3    H219548   1.712   6.142   8.577
17493TIP3   OH219549   1.180   6.343   8.714
17493TIP3    H119550   1.218   6.296   8.791
17493TIP3    H219551   1.108   6.393   8.759
17494TIP3   OH219552   0.505   6.095   8.733
17494TIP3    H119553   0.595   6.071   8.702
17494TIP3    H219554   0.474   6.156   8.662
17495TIP3   OH219555   0.434   6.286   8.561
17495TIP3    H119556   0.341   6.276   8.587
17495TIP3    H219557   0.455   6.367   8.612
17496TIP3   OH219558   0.679   6.940   8.599
17496TIP3    H119559   0.727   7.025   8.595
17496TIP3    H219560   0.746   6.877   8.572
17497TIP3   OH219561   1.505   6.586   8.754
17497TIP3    H119562   1.485   6.664   8.698
17497TIP3    H219563   1.597   6.566   8.727
17498TIP3   OH219564   0.320   7.013   8.697
17498TIP3    H119565   0.311   6.985   8.605
17498TIP3    H219566   0.417   7.011   8.708
17499TIP3   OH219567   0.942   7.089   8.881
17499TIP3    H119568   0.978   7.040   8.957
17499TIP3    H219569   0.982   7.038   8.807
17500TIP3   OH219570   1.080   7.022   8.642
17500TIP3    H119571   1.048   6.974   8.565
17500TIP3    H219572   1.082   7.113   8.607
17501TIP3   OH219573   1.429   6.764   8.582
17501TIP3    H119574   1.409   6.692   8.521
17501TIP3    H219575   1.340   6.795   8.608
17502TIP3   OH219576   0.826   7.172   8.594
17502TIP3    H119577   0.912   7.212   8.573
17502TIP3    H219578   0.787   7.237   8.655
17503TIP3   OH219579   1.092   7.263   8.529
17503TIP3    H119580   1.109   7.327   8.601
17503TIP3    H219581   1.079   7.324   8.456
17504TIP3   OH219582   1.226   5.961   8.627
17504TIP3    H119583   1.216   6.034   8.562
17504TIP3    H219584   1.138   5.923   8.615
17505TIP3   OH219585   1.380   7.022   8.729
17505TIP3    H119586   1.322   7.062   8.662
17505TIP3    H219587   1.312   6.979   8.783
17506TIP3   OH219588   1.547   6.278   8.763
17506TIP3    H119589   1.492   6.358   8.767
17506TIP3    H219590   1.622   6.301   8.819
17507TIP3   OH219591   0.741   7.288   8.869
17507TIP3    H119592   0.799   7.209   8.876
17507TIP3    H219593   0.663   7.255   8.918
17508TIP3   OH219594   0.303   7.219   8.878
17508TIP3    H119595   0.289   7.147   8.812
17508TIP3    H219596   0.221   7.214   8.933
17509TIP3   OH219597   1.196   6.823   8.880
17509TIP3    H119598   1.161   6.790   8.797
17509TIP3    H219599   1.123   6.799   8.943
17510TIP3   OH219600   0.604   6.941   8.867
17510TIP3    H119601   0.620   6.929   8.772
17510TIP3    H219602   0.632   6.851   8.901
17511TIP3   OH219603   1.103   6.649   8.667
17511TIP3    H119604   1.150   6.583   8.613
17511TIP3    H219605   1.057   6.590   8.730
17512TIP3   OH219606   0.969   6.467   8.827
17512TIP3    H119607   0.973   6.479   8.925
17512TIP3    H219608   0.873   6.448   8.813
17513TIP3   OH219609   0.053   6.684   8.799
17513TIP3    H119610   0.062   6.638   8.885
17513TIP3    H219611   0.073   6.777   8.829
17514TIP3   OH219612   0.975   7.498   8.612
17514TIP3    H119613   0.878   7.486   8.624
17514TIP3    H219614   0.996   7.553   8.690
17515TIP3   OH219615   1.660   6.980   8.726
17515TIP3    H119616   1.562   6.975   8.729
17515TIP3    H219617   1.685   6.938   8.810
17516TIP3   OH219618   0.102   6.358   8.729
17516TIP3    H119619   0.076   6.388   8.817
17516TIP3    H219620   0.113   6.264   8.747
17517TIP3   OH219621   0.189   6.088   8.871
17517TIP3    H119622   0.134   6.021   8.829
17517TIP3    H219623   0.266   6.036   8.900
17518TIP3   OH219624   1.581   5.745   8.630
17518TIP3    H119625   1.576   5.815   8.698
17518TIP3    H219626   1.550   5.796   8.553
17519TIP3   OH219627   1.453   5.923   8.783
17519TIP3    H119628   1.389   5.870   8.837
17519TIP3    H219629   1.403   5.937   8.701
17520TIP3   OH219630   0.717   7.438   8.657
17520TIP3    H119631   0.634   7.485   8.673
17520TIP3    H219632   0.727   7.393   8.744
17521TIP3   OH219633   1.478   7.432   8.827
17521TIP3    H119634   1.500   7.474   8.742
17521TIP3    H219635   1.417   7.362   8.801
17522TIP3   OH219636   8.255   8.346   8.732
17522TIP3    H119637   8.178   8.369   8.675
17522TIP3    H219638   8.209   8.282   8.788
17523TIP3   OH219639   8.002   8.417   8.630
17523TIP3    H119640   8.025   8.470   8.552
17523TIP3    H219641   7.934   8.473   8.676
17524TIP3   OH219642   7.636   7.592   8.558
17524TIP3    H119643   7.716   7.589   8.610
17524TIP3    H219644   7.582   7.658   8.607
17525TIP3   OH219645   7.508   9.024   8.786
17525TIP3    H119646   7.474   9.108   8.747
17525TIP3    H219647   7.442   8.961   8.749
17526TIP3   OH219648   7.989   9.271   8.671
17526TIP3    H119649   7.935   9.220   8.736
17526TIP3    H219650   7.942   9.249   8.589
17527TIP3   OH219651   7.840   8.572   8.758
17527TIP3    H119652   7.874   8.587   8.850
17527TIP3    H219653   7.743   8.573   8.777
17528TIP3   OH219654   8.278   7.888   8.706
17528TIP3    H119655   8.355   7.921   8.658
17528TIP3    H219656   8.319   7.828   8.770
17529TIP3   OH219657   8.635   7.936   8.854
17529TIP3    H119658   8.696   7.909   8.782
17529TIP3    H219659   8.688   8.003   8.903
17530TIP3   OH219660   9.197   7.932   8.604
17530TIP3    H119661   9.106   7.942   8.637
17530TIP3    H219662   9.224   8.023   8.586
17531TIP3   OH219663   8.723   8.218   8.694
17531TIP3    H119664   8.789   8.188   8.759
17531TIP3    H219665   8.657   8.257   8.754
17532TIP3   OH219666   8.031   8.002   8.750
17532TIP3    H119667   8.119   7.978   8.714
17532TIP3    H219668   7.997   8.058   8.677
17533TIP3   OH219669   7.960   8.163   8.558
17533TIP3    H119670   7.881   8.160   8.501
17533TIP3    H219671   7.952   8.250   8.602
17534TIP3   OH219672   8.204   8.799   8.598
17534TIP3    H119673   8.252   8.883   8.609
17534TIP3    H219674   8.272   8.745   8.555
17535TIP3   OH219675   7.465   8.169   8.565
17535TIP3    H119676   7.521   8.131   8.637
17535TIP3    H219677   7.464   8.263   8.594
17536TIP3   OH219678   9.135   8.463   8.753
17536TIP3    H119679   9.087   8.496   8.674
17536TIP3    H219680   9.226   8.493   8.740
17537TIP3   OH219681   7.860   8.868   8.706
17537TIP3    H119682   7.875   8.909   8.620
17537TIP3    H219683   7.948   8.834   8.730
17538TIP3   OH219684   7.437   9.253   8.668
17538TIP3    H119685   7.364   9.319   8.657
17538TIP3    H219686   7.514   9.305   8.636
17539TIP3   OH219687   8.464   8.961   8.904
17539TIP3    H119688   8.491   8.886   8.959
17539TIP3    H219689   8.504   8.933   8.820
17540TIP3   OH219690   8.603   8.913   8.645
17540TIP3    H119691   8.637   8.865   8.568
17540TIP3    H219692   8.533   8.967   8.603
17541TIP3   OH219693   9.003   8.605   8.579
17541TIP3    H119694   8.994   8.646   8.492
17541TIP3    H219695   8.929   8.646   8.627
17542TIP3   OH219696   8.384   9.071   8.614
17542TIP3    H119697   8.455   9.135   8.588
17542TIP3    H219698   8.340   9.120   8.687
17543TIP3   OH219699   8.586   9.242   8.561
17543TIP3    H119700   8.615   9.293   8.638
17543TIP3    H219701   8.653   9.263   8.495
17544TIP3   OH219702   8.761   7.840   8.629
17544TIP3    H119703   8.778   7.905   8.559
17544TIP3    H219704   8.666   7.826   8.613
17545TIP3   OH219705   8.903   8.864   8.691
17545TIP3    H119706   8.863   8.950   8.669
17545TIP3    H219707   8.834   8.826   8.748
17546TIP3   OH219708   9.029   8.193   8.800
17546TIP3    H119709   9.043   8.272   8.746
17546TIP3    H219710   9.120   8.162   8.810
17547TIP3   OH219711   8.271   9.145   8.848
17547TIP3    H119712   8.327   9.067   8.871
17547TIP3    H219713   8.188   9.116   8.892
17548TIP3   OH219714   7.841   9.121   8.863
17548TIP3    H119715   7.813   9.049   8.804
17548TIP3    H219716   7.770   9.116   8.931
17549TIP3   OH219717   8.726   8.699   8.877
17549TIP3    H119718   8.695   8.643   8.804
17549TIP3    H219719   8.655   8.679   8.943
17550TIP3   OH219720   8.137   8.812   8.857
17550TIP3    H119721   8.154   8.793   8.763
17550TIP3    H219722   8.169   8.727   8.896
17551TIP3   OH219723   8.622   8.522   8.654
17551TIP3    H119724   8.629   8.457   8.583
17551TIP3    H219725   8.603   8.461   8.729
17552TIP3   OH219726   8.531   8.357   8.842
17552TIP3    H119727   8.542   8.370   8.939
17552TIP3    H219728   8.434   8.358   8.833
17553TIP3   OH219729   7.579   8.583   8.849
17553TIP3    H119730   7.602   8.555   8.940
17553TIP3    H219731   7.570   8.681   8.863
17554TIP3   OH219732   9.168   8.853   8.672
17554TIP3    H119733   9.070   8.852   8.684
17554TIP3    H219734   9.198   8.827   8.761
17555TIP3   OH219735   7.438   8.441   8.660
17555TIP3    H119736   7.474   8.481   8.743
17555TIP3    H219737   7.448   8.515   8.597
17556TIP3   OH219738   7.653   8.176   8.810
17556TIP3    H119739   7.607   8.217   8.885
17556TIP3    H219740   7.678   8.090   8.849
17557TIP3   OH219741   7.694   7.901   8.845
17557TIP3    H119742   7.631   7.858   8.783
17557TIP3    H219743   7.771   7.912   8.787
17558TIP3   OH219744   7.494   7.773   8.698
17558TIP3    H119745   7.466   7.720   8.778
17558TIP3    H219746   7.411   7.821   8.677
17559TIP3   OH219747   9.097   7.638   8.627
17559TIP3    H119748   9.103   7.697   8.704
17559TIP3    H219749   9.098   7.705   8.556
17560TIP3   OH219750   8.979   7.834   8.780
17560TIP3    H119751   8.927   7.773   8.836
17560TIP3    H219752   8.920   7.834   8.701
17561TIP3   OH219753   8.251   9.382   8.705
17561TIP3    H119754   8.159   9.366   8.680
17561TIP3    H219755   8.264   9.305   8.764
17562TIP3   OH219756   8.983   9.243   8.791
17562TIP3    H119757   9.029   9.310   8.736
17562TIP3    H219758   8.894   9.248   8.754
17563TIP3   OH219759   6.378   8.349   8.727
17563TIP3    H119760   6.308   8.388   8.669
17563TIP3    H219761   6.320   8.289   8.777
17564TIP3   OH219762   6.122   8.425   8.633
17564TIP3    H119763   6.130   8.481   8.554
17564TIP3    H219764   6.070   8.482   8.695
17565TIP3   OH219765   5.745   7.592   8.563
17565TIP3    H119766   5.830   7.581   8.606
17565TIP3    H219767   5.710   7.671   8.610
17566TIP3   OH219768   5.621   9.024   8.780
17566TIP3    H119769   5.584   9.109   8.748
17566TIP3    H219770   5.553   8.962   8.746
17567TIP3   OH219771   6.103   9.268   8.665
17567TIP3    H119772   6.048   9.218   8.728
17567TIP3    H219773   6.056   9.247   8.583
17568TIP3   OH219774   5.956   8.581   8.763
17568TIP3    H119775   5.990   8.597   8.854
17568TIP3    H219776   5.860   8.571   8.783
17569TIP3   OH219777   6.389   7.893   8.710
17569TIP3    H119778   6.474   7.922   8.677
17569TIP3    H219779   6.414   7.825   8.772
17570TIP3   OH219780   6.765   7.954   8.852
17570TIP3    H119781   6.817   7.915   8.779
17570TIP3    H219782   6.831   8.020   8.887
17571TIP3   OH219783   7.310   7.943   8.602
17571TIP3    H119784   7.246   7.991   8.657
17571TIP3    H219785   7.362   8.019   8.570
17572TIP3   OH219786   6.855   8.207   8.696
17572TIP3    H119787   6.908   8.165   8.765
17572TIP3    H219788   6.777   8.236   8.748
17573TIP3   OH219789   6.145   7.998   8.746
17573TIP3    H119790   6.235   7.975   8.712
17573TIP3    H219791   6.107   8.040   8.665
17574TIP3   OH219792   6.076   8.169   8.550
17574TIP3    H119793   5.993   8.163   8.500
17574TIP3    H219794   6.066   8.254   8.599
17575TIP3   OH219795   6.312   8.792   8.599
17575TIP3    H119796   6.363   8.874   8.617
17575TIP3    H219797   6.381   8.737   8.559
17576TIP3   OH219798   5.581   8.175   8.567
17576TIP3    H119799   5.640   8.144   8.640
17576TIP3    H219800   5.570   8.268   8.597
17577TIP3   OH219801   7.171   8.454   8.759
17577TIP3    H119802   7.135   8.518   8.694
17577TIP3    H219803   7.265   8.451   8.732
17578TIP3   OH219804   5.972   8.877   8.713
17578TIP3    H119805   5.967   8.920   8.626
17578TIP3    H219806   6.065   8.849   8.718
17579TIP3   OH219807   5.547   9.254   8.667
17579TIP3    H119808   5.472   9.318   8.656
17579TIP3    H219809   5.622   9.306   8.632
17580TIP3   OH219810   6.585   8.959   8.889
17580TIP3    H119811   6.600   8.896   8.961
17580TIP3    H219812   6.641   8.918   8.819
17581TIP3   OH219813   6.727   8.897   8.638
17581TIP3    H119814   6.742   8.848   8.556
17581TIP3    H219815   6.665   8.966   8.607
17582TIP3   OH219816   7.096   8.631   8.581
17582TIP3    H119817   7.105   8.623   8.485
17582TIP3    H219818   7.003   8.655   8.592
17583TIP3   OH219819   6.505   9.074   8.611
17583TIP3    H119820   6.568   9.143   8.577
17583TIP3    H219821   6.458   9.125   8.681
17584TIP3   OH219822   6.693   9.248   8.553
17584TIP3    H119823   6.733   9.288   8.632
17584TIP3    H219824   6.761   9.263   8.485
17585TIP3   OH219825   6.876   7.836   8.634
17585TIP3    H119826   6.856   7.898   8.561
17585TIP3    H219827   6.794   7.785   8.637
17586TIP3   OH219828   7.050   8.877   8.719
17586TIP3    H119829   7.013   8.960   8.686
17586TIP3    H219830   6.971   8.831   8.750
17587TIP3   OH219831   7.206   8.164   8.765
17587TIP3    H119832   7.164   8.251   8.754
17587TIP3    H219833   7.285   8.183   8.818
17588TIP3   OH219834   6.392   9.150   8.843
17588TIP3    H119835   6.449   9.071   8.859
17588TIP3    H219836   6.311   9.118   8.889
17589TIP3   OH219837   5.958   9.116   8.871
17589TIP3    H119838   5.926   9.043   8.814
17589TIP3    H219839   5.891   9.114   8.944
17590TIP3   OH219840   6.829   8.711   8.878
17590TIP3    H119841   6.799   8.671   8.794
17590TIP3    H219842   6.760   8.677   8.941
17591TIP3   OH219843   6.248   8.814   8.864
17591TIP3    H119844   6.263   8.793   8.769
17591TIP3    H219845   6.281   8.727   8.902
17592TIP3   OH219846   6.737   8.523   8.659
17592TIP3    H119847   6.776   8.456   8.601
17592TIP3    H219848   6.698   8.467   8.730
17593TIP3   OH219849   6.632   8.347   8.832
17593TIP3    H119850   6.625   8.375   8.926
17593TIP3    H219851   6.538   8.335   8.808
17594TIP3   OH219852   5.695   8.577   8.855
17594TIP3    H119853   5.711   8.550   8.948
17594TIP3    H219854   5.682   8.675   8.866
17595TIP3   OH219855   7.310   8.850   8.735
17595TIP3    H119856   7.212   8.853   8.734
17595TIP3    H219857   7.321   8.786   8.809
17596TIP3   OH219858   5.552   8.440   8.664
17596TIP3    H119859   5.603   8.471   8.743
17596TIP3    H219860   5.568   8.515   8.603
17597TIP3   OH219861   5.746   8.180   8.812
17597TIP3    H119862   5.726   8.222   8.897
17597TIP3    H219863   5.778   8.093   8.841
17598TIP3   OH219864   5.810   7.907   8.849
17598TIP3    H119865   5.744   7.858   8.794
17598TIP3    H219866   5.880   7.920   8.783
17599TIP3   OH219867   5.607   7.784   8.710
17599TIP3    H119868   5.582   7.724   8.784
17599TIP3    H219869   5.521   7.820   8.681
17600TIP3   OH219870   7.218   7.627   8.636
17600TIP3    H119871   7.208   7.700   8.701
17600TIP3    H219872   7.219   7.680   8.555
17601TIP3   OH219873   7.102   7.816   8.791
17601TIP3    H119874   7.036   7.762   8.839
17601TIP3    H219875   7.055   7.830   8.706
17602TIP3   OH219876   6.386   9.372   8.691
17602TIP3    H119877   6.295   9.359   8.660
17602TIP3    H219878   6.391   9.299   8.754
17603TIP3   OH219879   7.117   9.233   8.860
17603TIP3    H119880   7.157   9.275   8.781
17603TIP3    H219881   7.026   9.225   8.830
17604TIP3   OH219882   4.490   8.344   8.731
17604TIP3    H119883   4.421   8.384   8.674
17604TIP3    H219884   4.432   8.284   8.781
17605TIP3   OH219885   4.242   8.423   8.639
17605TIP3    H119886   4.251   8.474   8.558
17605TIP3    H219887   4.186   8.482   8.695
17606TIP3   OH219888   3.861   7.595   8.559
17606TIP3    H119889   3.943   7.584   8.609
17606TIP3    H219890   3.816   7.666   8.610
17607TIP3   OH219891   3.730   9.023   8.792
17607TIP3    H119892   3.698   9.104   8.749
17607TIP3    H219893   3.666   8.957   8.757
17608TIP3   OH219894   4.212   9.269   8.667
17608TIP3    H119895   4.157   9.218   8.730
17608TIP3    H219896   4.167   9.248   8.584
17609TIP3   OH219897   4.066   8.567   8.763
17609TIP3    H119898   4.101   8.562   8.855
17609TIP3    H219899   3.970   8.571   8.782
17610TIP3   OH219900   4.505   7.888   8.712
17610TIP3    H119901   4.582   7.920   8.664
17610TIP3    H219902   4.543   7.821   8.771
17611TIP3   OH219903   4.875   7.947   8.850
17611TIP3    H119904   4.927   7.903   8.777
17611TIP3    H219905   4.941   8.013   8.881
17612TIP3   OH219906   5.421   7.951   8.601
17612TIP3    H119907   5.360   8.000   8.660
17612TIP3    H219908   5.480   8.024   8.575
17613TIP3   OH219909   4.967   8.215   8.700
17613TIP3    H119910   5.020   8.166   8.766
17613TIP3    H219911   4.891   8.244   8.755
17614TIP3   OH219912   4.260   7.999   8.744
17614TIP3    H119913   4.349   7.974   8.709
17614TIP3    H219914   4.219   8.039   8.664
17615TIP3   OH219915   4.192   8.167   8.551
17615TIP3    H119916   4.108   8.166   8.502
17615TIP3    H219917   4.185   8.250   8.602
17616TIP3   OH219918   4.429   8.797   8.594
17616TIP3    H119919   4.480   8.879   8.611
17616TIP3    H219920   4.497   8.742   8.555
17617TIP3   OH219921   3.694   8.173   8.566
17617TIP3    H119922   3.747   8.137   8.641
17617TIP3    H219923   3.688   8.267   8.593
17618TIP3   OH219924   5.294   8.449   8.762
17618TIP3    H119925   5.258   8.511   8.694
17618TIP3    H219926   5.388   8.445   8.734
17619TIP3   OH219927   4.084   8.875   8.711
17619TIP3    H119928   4.092   8.927   8.629
17619TIP3    H219929   4.176   8.850   8.728
17620TIP3   OH219930   3.667   9.252   8.669
17620TIP3    H119931   3.592   9.315   8.658
17620TIP3    H219932   3.741   9.307   8.637
17621TIP3   OH219933   4.703   8.958   8.892
17621TIP3    H119934   4.719   8.897   8.965
17621TIP3    H219935   4.758   8.915   8.823
17622TIP3   OH219936   4.843   8.904   8.626
17622TIP3    H119937   4.847   8.849   8.546
17622TIP3    H219938   4.781   8.973   8.598
17623TIP3   OH219939   5.211   8.631   8.588
17623TIP3    H119940   5.218   8.619   8.493
17623TIP3    H219941   5.118   8.656   8.601
17624TIP3   OH219942   4.612   9.073   8.620
17624TIP3    H119943   4.681   9.138   8.590
17624TIP3    H219944   4.566   9.129   8.686
17625TIP3   OH219945   4.802   9.241   8.563
17625TIP3    H119946   4.844   9.276   8.643
17625TIP3    H219947   4.868   9.258   8.494
17626TIP3   OH219948   4.989   7.836   8.633
17626TIP3    H119949   4.982   7.900   8.558
17626TIP3    H219950   4.899   7.800   8.633
17627TIP3   OH219951   5.153   8.885   8.714
17627TIP3    H119952   5.110   8.957   8.667
17627TIP3    H219953   5.076   8.836   8.749
17628TIP3   OH219954   5.320   8.165   8.765
17628TIP3    H119955   5.282   8.254   8.763
17628TIP3    H219956   5.402   8.179   8.814
17629TIP3   OH219957   4.505   9.152   8.852
17629TIP3    H119958   4.562   9.072   8.861
17629TIP3    H219959   4.426   9.120   8.901
17630TIP3   OH219960   4.064   9.121   8.865
17630TIP3    H119961   4.029   9.054   8.804
17630TIP3    H219962   3.994   9.120   8.935
17631TIP3   OH219963   4.939   8.712   8.876
17631TIP3    H119964   4.909   8.672   8.792
17631TIP3    H219965   4.871   8.679   8.938
17632TIP3   OH219966   4.363   8.813   8.860
17632TIP3    H119967   4.379   8.794   8.765
17632TIP3    H219968   4.388   8.725   8.897
17633TIP3   OH219969   4.850   8.524   8.661
17633TIP3    H119970   4.884   8.458   8.599
17633TIP3    H219971   4.814   8.467   8.733
17634TIP3   OH219972   4.745   8.348   8.831
17634TIP3    H119973   4.732   8.381   8.922
17634TIP3    H219974   4.652   8.330   8.803
17635TIP3   OH219975   3.808   8.579   8.851
17635TIP3    H119976   3.817   8.550   8.945
17635TIP3    H219977   3.794   8.677   8.864
17636TIP3   OH219978   5.422   8.854   8.732
17636TIP3    H119979   5.324   8.861   8.725
17636TIP3    H219980   5.428   8.789   8.806
17637TIP3   OH219981   3.667   8.441   8.661
17637TIP3    H119982   3.711   8.477   8.742
17637TIP3    H219983   3.677   8.515   8.600
17638TIP3   OH219984   3.865   8.172   8.813
17638TIP3    H119985   3.837   8.220   8.893
17638TIP3    H219986   3.894   8.086   8.850
17639TIP3   OH219987   3.923   7.906   8.850
17639TIP3    H119988   3.858   7.861   8.791
17639TIP3    H219989   3.997   7.920   8.789
17640TIP3   OH219990   3.722   7.781   8.709
17640TIP3    H119991   3.696   7.724   8.786
17640TIP3    H219992   3.635   7.816   8.680
17641TIP3   OH219993   5.335   7.631   8.628
17641TIP3    H119994   5.329   7.707   8.689
17641TIP3    H219995   5.322   7.678   8.544
17642TIP3   OH219996   5.219   7.822   8.786
17642TIP3    H119997   5.157   7.763   8.833
17642TIP3    H219998   5.170   7.835   8.702
17643TIP3   OH219999   4.489   9.371   8.687
17643TIP3    H120000   4.395   9.358   8.670
17643TIP3    H220001   4.503   9.302   8.754
17644TIP3   OH220002   5.235   9.234   8.853
17644TIP3    H120003   5.271   9.276   8.773
17644TIP3    H220004   5.141   9.226   8.829
17645TIP3   OH220005   2.603   8.335   8.727
17645TIP3    H120006   2.527   8.363   8.671
17645TIP3    H220007   2.551   8.277   8.788
17646TIP3   OH220008   2.353   8.424   8.639
17646TIP3    H120009   2.373   8.484   8.566
17646TIP3    H220010   2.301   8.480   8.702
17647TIP3   OH220011   1.979   7.591   8.558
17647TIP3    H120012   2.067   7.584   8.597
17647TIP3    H220013   1.941   7.668   8.606
17648TIP3   OH220014   1.837   9.028   8.795
17648TIP3    H120015   1.811   9.111   8.751
17648TIP3    H220016   1.773   8.964   8.754
17649TIP3   OH220017   2.327   9.263   8.667
17649TIP3    H120018   2.277   9.213   8.734
17649TIP3    H220019   2.277   9.237   8.587
17650TIP3   OH220020   2.182   8.580   8.761
17650TIP3    H120021   2.219   8.591   8.852
17650TIP3    H220022   2.087   8.573   8.784
17651TIP3   OH220023   2.619   7.893   8.708
17651TIP3    H120024   2.701   7.919   8.664
17651TIP3    H220025   2.648   7.823   8.768
17652TIP3   OH220026   2.992   7.950   8.853
17652TIP3    H120027   3.048   7.912   8.782
17652TIP3    H220028   3.054   8.013   8.897
17653TIP3   OH220029   3.535   7.950   8.600
17653TIP3    H120030   3.475   7.999   8.660
17653TIP3    H220031   3.594   8.023   8.572
17654TIP3   OH220032   3.090   8.212   8.700
17654TIP3    H120033   3.138   8.164   8.770
17654TIP3    H220034   3.012   8.244   8.750
17655TIP3   OH220035   2.375   8.001   8.745
17655TIP3    H120036   2.467   7.978   8.718
17655TIP3    H220037   2.341   8.043   8.663
17656TIP3   OH220038   2.311   8.170   8.552
17656TIP3    H120039   2.228   8.161   8.502
17656TIP3    H220040   2.300   8.255   8.600
17657TIP3   OH220041   2.541   8.791   8.600
17657TIP3    H120042   2.586   8.876   8.612
17657TIP3    H220043   2.611   8.740   8.558
17658TIP3   OH220044   1.805   8.180   8.567
17658TIP3    H120045   1.856   8.134   8.637
17658TIP3    H220046   1.807   8.272   8.602
17659TIP3   OH220047   3.408   8.459   8.762
17659TIP3    H120048   3.371   8.517   8.692
17659TIP3    H220049   3.500   8.449   8.732
17660TIP3   OH220050   2.196   8.891   8.718
17660TIP3    H120051   2.185   8.919   8.626
17660TIP3    H220052   2.289   8.864   8.720
17661TIP3   OH220053   1.784   9.254   8.665
17661TIP3    H120054   1.707   9.316   8.655
17661TIP3    H220055   1.858   9.310   8.633
17662TIP3   OH220056   2.814   8.959   8.884
17662TIP3    H120057   2.824   8.890   8.950
17662TIP3    H220058   2.873   8.923   8.814
17663TIP3   OH220059   2.957   8.902   8.629
17663TIP3    H120060   2.962   8.848   8.550
17663TIP3    H220061   2.897   8.973   8.599
17664TIP3   OH220062   3.325   8.634   8.581
17664TIP3    H120063   3.326   8.619   8.486
17664TIP3    H220064   3.232   8.659   8.596
17665TIP3   OH220065   2.727   9.075   8.614
17665TIP3    H120066   2.794   9.142   8.586
17665TIP3    H220067   2.678   9.126   8.682
17666TIP3   OH220068   2.918   9.244   8.560
17666TIP3    H120069   2.962   9.280   8.639
17666TIP3    H220070   2.984   9.257   8.490
17667TIP3   OH220071   3.106   7.839   8.635
17667TIP3    H120072   3.085   7.898   8.560
17667TIP3    H220073   3.027   7.783   8.637
17668TIP3   OH220074   3.270   8.886   8.720
17668TIP3    H120075   3.227   8.962   8.680
17668TIP3    H220076   3.192   8.835   8.749
17669TIP3   OH220077   3.434   8.167   8.768
17669TIP3    H120078   3.393   8.255   8.765
17669TIP3    H220079   3.514   8.184   8.819
17670TIP3   OH220080   2.612   9.148   8.844
17670TIP3    H120081   2.675   9.072   8.857
17670TIP3    H220082   2.535   9.112   8.893
17671TIP3   OH220083   2.185   9.117   8.869
17671TIP3    H120084   2.160   9.043   8.809
17671TIP3    H220085   2.109   9.116   8.933
17672TIP3   OH220086   3.064   8.699   8.870
17672TIP3    H120087   3.027   8.664   8.787
17672TIP3    H220088   2.994   8.672   8.934
17673TIP3   OH220089   2.475   8.813   8.863
17673TIP3    H120090   2.491   8.796   8.768
17673TIP3    H220091   2.506   8.726   8.899
17674TIP3   OH220092   2.966   8.525   8.656
17674TIP3    H120093   3.000   8.461   8.592
17674TIP3    H220094   2.931   8.465   8.726
17675TIP3   OH220095   2.856   8.350   8.826
17675TIP3    H120096   2.849   8.381   8.918
17675TIP3    H220097   2.761   8.337   8.801
17676TIP3   OH220098   1.919   8.580   8.853
17676TIP3    H120099   1.935   8.552   8.946
17676TIP3    H220100   1.909   8.678   8.864
17677TIP3   OH220101   3.538   8.850   8.738
17677TIP3    H120102   3.439   8.853   8.735
17677TIP3    H220103   3.548   8.788   8.812
17678TIP3   OH220104   1.789   8.445   8.660
17678TIP3    H120105   1.826   8.483   8.744
17678TIP3    H220106   1.801   8.520   8.600
17679TIP3   OH220107   1.997   8.177   8.809
17679TIP3    H120108   1.949   8.215   8.883
17679TIP3    H220109   2.019   8.089   8.843
17680TIP3   OH220110   2.037   7.900   8.854
17680TIP3    H120111   1.978   7.852   8.791
17680TIP3    H220112   2.113   7.918   8.797
17681TIP3   OH220113   1.842   7.774   8.701
17681TIP3    H120114   1.808   7.718   8.775
17681TIP3    H220115   1.760   7.820   8.671
17682TIP3   OH220116   3.451   7.629   8.635
17682TIP3    H120117   3.436   7.701   8.700
17682TIP3    H220118   3.443   7.681   8.553
17683TIP3   OH220119   3.333   7.814   8.791
17683TIP3    H120120   3.272   7.756   8.843
17683TIP3    H220121   3.279   7.831   8.711
17684TIP3   OH220122   2.609   9.368   8.690
17684TIP3    H120123   2.516   9.357   8.666
17684TIP3    H220124   2.617   9.298   8.756
17685TIP3   OH220125   3.348   9.231   8.857
17685TIP3    H120126   3.386   9.272   8.777
17685TIP3    H220127   3.255   9.225   8.830
17686TIP3   OH220128   0.704   8.307   8.758
17686TIP3    H120129   0.648   8.364   8.701
17686TIP3    H220130   0.642   8.234   8.773
17687TIP3   OH220131   0.495   8.431   8.624
17687TIP3    H120132   0.495   8.510   8.567
17687TIP3    H220133   0.428   8.460   8.691
17688TIP3   OH220134   0.155   7.564   8.527
17688TIP3    H120135   0.240   7.561   8.572
17688TIP3    H220136   0.094   7.591   8.598
17689TIP3   OH220137   9.291   9.054   8.803
17689TIP3    H120138   9.279   9.149   8.789
17689TIP3    H220139   9.257   9.013   8.722
17690TIP3   OH220140   0.455   9.302   8.694
17690TIP3    H120141   0.418   9.217   8.728
17690TIP3    H220142   0.450   9.290   8.598
17691TIP3   OH220143   0.321   8.546   8.780
17691TIP3    H120144   0.339   8.519   8.872
17691TIP3    H220145   0.225   8.561   8.783
17692TIP3   OH220146   0.760   7.899   8.724
17692TIP3    H120147   0.827   7.926   8.659
17692TIP3    H220148   0.801   7.824   8.768
17693TIP3   OH220149   1.111   7.945   8.844
17693TIP3    H120150   1.165   7.906   8.772
17693TIP3    H220151   1.176   8.007   8.885
17694TIP3   OH220152   1.654   7.939   8.603
17694TIP3    H120153   1.576   7.970   8.653
17694TIP3    H220154   1.694   8.026   8.585
17695TIP3   OH220155   1.204   8.218   8.705
17695TIP3    H120156   1.250   8.167   8.773
17695TIP3    H220157   1.129   8.253   8.758
17696TIP3   OH220158   0.500   7.978   8.756
17696TIP3    H120159   0.592   7.960   8.729
17696TIP3    H220160   0.466   8.025   8.677
17697TIP3   OH220161   0.421   8.160   8.565
17697TIP3    H120162   0.326   8.156   8.579
17697TIP3    H220163   0.444   8.240   8.616
17698TIP3   OH220164   0.673   8.815   8.585
17698TIP3    H120165   0.720   8.899   8.601
17698TIP3    H220166   0.745   8.757   8.556
17699TIP3   OH220167   1.535   8.466   8.767
17699TIP3    H120168   1.494   8.528   8.702
17699TIP3    H220169   1.623   8.450   8.727
17700TIP3   OH220170   0.346   8.869   8.706
17700TIP3    H120171   0.339   8.867   8.610
17700TIP3    H220172   0.431   8.826   8.722
17701TIP3   OH220173   0.933   8.962   8.884
17701TIP3    H120174   0.951   8.905   8.959
17701TIP3    H220175   0.989   8.917   8.817
17702TIP3   OH220176   1.072   8.895   8.632
17702TIP3    H120177   1.080   8.844   8.550
17702TIP3    H220178   1.012   8.967   8.601
17703TIP3   OH220179   1.432   8.633   8.594
17703TIP3    H120180   1.442   8.612   8.500
17703TIP3    H220181   1.339   8.659   8.603
17704TIP3   OH220182   0.851   9.067   8.617
17704TIP3    H120183   0.919   9.136   8.595
17704TIP3    H220184   0.798   9.113   8.685
17705TIP3   OH220185   1.035   9.239   8.554
17705TIP3    H120186   1.082   9.282   8.627
17705TIP3    H220187   1.095   9.251   8.479
17706TIP3   OH220188   1.225   7.839   8.629
17706TIP3    H120189   1.222   7.902   8.555
17706TIP3    H220190   1.134   7.807   8.622
17707TIP3   OH220191   1.395   8.882   8.734
17707TIP3    H120192   1.354   8.959   8.694
17707TIP3    H220193   1.318   8.829   8.761
17708TIP3   OH220194   1.552   8.157   8.766
17708TIP3    H120195   1.503   8.240   8.776
17708TIP3    H220196   1.629   8.175   8.821
17709TIP3   OH220197   0.730   9.137   8.843
17709TIP3    H120198   0.791   9.061   8.856
17709TIP3    H220199   0.651   9.104   8.894
17710TIP3   OH220200   0.306   9.119   8.859
17710TIP3    H120201   0.282   9.052   8.794
17710TIP3    H220202   0.226   9.124   8.919
17711TIP3   OH220203   1.185   8.709   8.865
17711TIP3    H120204   1.146   8.673   8.783
17711TIP3    H220205   1.119   8.675   8.930
17712TIP3   OH220206   0.603   8.808   8.856
17712TIP3    H120207   0.624   8.795   8.762
17712TIP3    H220208   0.630   8.720   8.893
17713TIP3   OH220209   1.092   8.519   8.664
17713TIP3    H120210   1.139   8.452   8.613
17713TIP3    H220211   1.051   8.464   8.734
17714TIP3   OH220212   0.963   8.342   8.828
17714TIP3    H120213   0.959   8.369   8.922
17714TIP3    H220214   0.868   8.325   8.809
17715TIP3   OH220215   0.054   8.585   8.823
17715TIP3    H120216   0.070   8.559   8.917
17715TIP3    H220217   0.063   8.684   8.833
17716TIP3   OH220218   1.654   8.848   8.740
17716TIP3    H120219   1.556   8.855   8.740
17716TIP3    H220220   1.665   8.790   8.818
17717TIP3   OH220221   0.110   8.226   8.737
17717TIP3    H120222   0.076   8.259   8.821
17717TIP3    H220223   0.139   8.137   8.766
17718TIP3   OH220224   0.192   7.968   8.856
17718TIP3    H120225   0.132   7.899   8.825
17718TIP3    H220226   0.260   7.915   8.902
17719TIP3   OH220227   1.570   7.631   8.626
17719TIP3    H120228   1.566   7.705   8.691
17719TIP3    H220229   1.549   7.681   8.545
17720TIP3   OH220230   1.448   7.819   8.784
17720TIP3    H120231   1.390   7.759   8.834
17720TIP3    H220232   1.396   7.831   8.702
17721TIP3   OH220233   0.739   9.373   8.708
17721TIP3    H120234   0.644   9.389   8.710
17721TIP3    H220235   0.742   9.292   8.762
17722TIP3   OH220236   1.464   9.237   8.856
17722TIP3    H120237   1.500   9.279   8.776
17722TIP3    H220238   1.372   9.225   8.829
17723TIP3   OH220239   8.090   1.022  16.334
17723TIP3    H120240   8.102   1.120  16.330
17723TIP3    H220241   8.174   0.992  16.371
17724TIP3   OH220242   8.208   0.896  15.996
17724TIP3    H120243   8.211   0.862  15.904
17724TIP3    H220244   8.285   0.857  16.041
17725TIP3   OH220245   8.961   0.908  15.828
17725TIP3    H120246   8.974   0.831  15.770
17725TIP3    H220247   8.885   0.952  15.785
17726TIP3   OH220248   7.884   1.222  16.150
17726TIP3    H120249   7.914   1.155  16.087
17726TIP3    H220250   7.851   1.290  16.090
17727TIP3   OH220251   8.948   1.336  16.023
17727TIP3    H120252   8.947   1.246  16.063
17727TIP3    H220253   8.858   1.335  15.989
17728TIP3   OH220254   9.192   0.667  16.461
17728TIP3    H120255   9.195   0.761  16.483
17728TIP3    H220256   9.261   0.657  16.394
17729TIP3   OH220257   9.190   0.903  16.196
17729TIP3    H120258   9.134   0.825  16.174
17729TIP3    H220259   9.130   0.953  16.253
17730TIP3   OH220260   8.138   1.765  16.150
17730TIP3    H120261   8.075   1.706  16.199
17730TIP3    H220262   8.175   1.699  16.090
17731TIP3   OH220263   8.396   1.157  15.891
17731TIP3    H120264   8.361   1.140  15.980
17731TIP3    H220265   8.312   1.170  15.840
17732TIP3   OH220266   7.524   0.296  15.885
17732TIP3    H120267   7.525   0.364  15.815
17732TIP3    H220268   7.450   0.331  15.937
17733TIP3   OH220269   8.024   0.628  15.885
17733TIP3    H120270   8.010   0.535  15.859
17733TIP3    H220271   8.063   0.617  15.975
17734TIP3   OH220272   8.716   0.405  16.207
17734TIP3    H120273   8.706   0.486  16.260
17734TIP3    H220274   8.762   0.347  16.271
17735TIP3   OH220275   7.993   0.453  16.321
17735TIP3    H120276   7.939   0.410  16.251
17735TIP3    H220277   7.927   0.506  16.368
17736TIP3   OH220278   9.051   0.687  16.124
17736TIP3    H120279   8.983   0.644  16.070
17736TIP3    H220280   9.033   0.642  16.210
17737TIP3   OH220281   8.612   0.825  16.183
17737TIP3    H120282   8.525   0.785  16.161
17737TIP3    H220283   8.649   0.756  16.240
17738TIP3   OH220284   7.494   0.474  15.653
17738TIP3    H120285   7.540   0.553  15.687
17738TIP3    H220286   7.478   0.500  15.560
17739TIP3   OH220287   8.843   0.326  15.788
17739TIP3    H120288   8.873   0.378  15.865
17739TIP3    H220289   8.907   0.355  15.719
17740TIP3   OH220290   8.168   1.254  16.437
17740TIP3    H120291   8.183   1.259  16.532
17740TIP3    H220292   8.196   1.343  16.407
17741TIP3   OH220293   8.636   1.095  15.802
17741TIP3    H120294   8.688   1.174  15.775
17741TIP3    H220295   8.554   1.137  15.835
17742TIP3   OH220296   7.833   0.378  16.117
17742TIP3    H120297   7.894   0.352  16.045
17742TIP3    H220298   7.757   0.408  16.066
17743TIP3   OH220299   8.873   0.520  16.000
17743TIP3    H120300   8.797   0.569  15.962
17743TIP3    H220301   8.829   0.466  16.070
17744TIP3   OH220302   8.764   1.304  15.704
17744TIP3    H120303   8.777   1.397  15.729
17744TIP3    H220304   8.848   1.284  15.655
17745TIP3   OH220305   9.150   1.259  16.590
17745TIP3    H120306   9.158   1.314  16.670
17745TIP3    H220307   9.127   1.325  16.520
17746TIP3   OH220308   7.810   1.422  15.947
17746TIP3    H120309   7.900   1.448  15.918
17746TIP3    H220310   7.781   1.507  15.985
17747TIP3   OH220311   7.742   0.218  15.744
17747TIP3    H120312   7.809   0.263  15.797
17747TIP3    H220313   7.666   0.222  15.805
17748TIP3   OH220314   8.457   0.100  16.056
17748TIP3    H120315   8.425   0.015  16.022
17748TIP3    H220316   8.540   0.116  16.005
17749TIP3   OH220317   7.977   1.600  16.280
17749TIP3    H120318   7.951   1.516  16.322
17749TIP3    H220319   7.906   1.660  16.311
17750TIP3   OH220320   7.880   1.375  16.422
17750TIP3    H120321   7.886   1.304  16.489
17750TIP3    H220322   7.888   1.324  16.339
17751TIP3   OH220323   7.706   1.243  15.555
17751TIP3    H120324   7.715   1.170  15.621
17751TIP3    H220325   7.686   1.318  15.615
17752TIP3   OH220326   8.252   0.937  16.591
17752TIP3    H120327   8.325   1.004  16.596
17752TIP3    H220328   8.177   0.991  16.622
17753TIP3   OH220329   8.262   0.853  16.869
17753TIP3    H120330   8.201   0.866  16.793
17753TIP3    H220331   8.207   0.802  16.930
17754TIP3   OH220332   7.504   0.896  15.761
17754TIP3    H120333   7.581   0.954  15.777
17754TIP3    H220334   7.444   0.928  15.832
17755TIP3   OH220335   7.871   0.931  16.483
17755TIP3    H120336   7.941   0.967  16.423
17755TIP3    H220337   7.810   0.894  16.415
17756TIP3   OH220338   7.878   0.774  15.565
17756TIP3    H120339   7.877   0.859  15.518
17756TIP3    H220340   7.948   0.795  15.630
17757TIP3   OH220341   8.724   1.014  16.316
17757TIP3    H120342   8.778   0.960  16.378
17757TIP3    H220343   8.664   0.946  16.278
17758TIP3   OH220344   8.605   1.344  16.036
17758TIP3    H120345   8.593   1.340  16.133
17758TIP3    H220346   8.530   1.296  16.001
17759TIP3   OH220347   8.708   0.887  15.942
17759TIP3    H120348   8.667   0.888  16.031
17759TIP3    H220349   8.659   0.955  15.891
17760TIP3   OH220350   8.063   1.461  15.858
17760TIP3    H120351   8.115   1.512  15.794
17760TIP3    H220352   8.072   1.370  15.823
17761TIP3   OH220353   8.622   1.329  15.470
17761TIP3    H120354   8.685   1.395  15.433
17761TIP3    H220355   8.666   1.312  15.557
17762TIP3   OH220356   8.012   0.869  16.709
17762TIP3    H120357   7.966   0.896  16.626
17762TIP3    H220358   7.965   0.924  16.775
17763TIP3   OH220359   8.920   0.954  15.549
17763TIP3    H120360   8.912   1.001  15.463
17763TIP3    H220361   9.017   0.939  15.549
17764TIP3   OH220362   8.249   1.491  16.350
17764TIP3    H120363   8.228   1.556  16.282
17764TIP3    H220364   8.292   1.545  16.418
17765TIP3   OH220365   8.795   1.521  15.396
17765TIP3    H120366   8.813   1.553  15.487
17765TIP3    H220367   8.885   1.494  15.367
17766TIP3   OH220368   7.611   0.059  16.695
17766TIP3    H120369   7.710   0.058  16.688
17766TIP3    H220370   7.595   0.152  16.719
17767TIP3   OH220371   8.901   0.911  16.504
17767TIP3    H120372   8.910   0.989  16.563
17767TIP3    H220373   8.934   0.842  16.562
17768TIP3   OH220374   7.541   1.475  16.907
17768TIP3    H120375   7.507   1.566  16.904
17768TIP3    H220376   7.456   1.427  16.899
17769TIP3   OH220377   9.205   1.141  15.612
17769TIP3    H120378   9.254   1.149  15.696
17769TIP3    H220379   9.212   1.045  15.591
17770TIP3   OH220380   9.202   1.447  16.009
17770TIP3    H120381   9.121   1.394  16.025
17770TIP3    H220382   9.175   1.498  15.930
17771TIP3   OH220383   7.420   1.494  15.396
17771TIP3    H120384   7.441   1.400  15.408
17771TIP3    H220385   7.508   1.522  15.363
17772TIP3   OH220386   8.367   1.455  15.498
17772TIP3    H120387   8.340   1.524  15.433
17772TIP3    H220388   8.461   1.437  15.479
17773TIP3   OH220389   8.272   1.827  16.569
17773TIP3    H120390   8.278   1.847  16.664
17773TIP3    H220391   8.284   1.915  16.528
17774TIP3   OH220392   8.923   1.697  16.366
17774TIP3    H120393   8.914   1.658  16.276
17774TIP3    H220394   9.017   1.680  16.386
17775TIP3   OH220395   7.979   1.775  16.846
17775TIP3    H120396   7.923   1.704  16.883
17775TIP3    H220397   7.975   1.757  16.751
17776TIP3   OH220398   8.010   1.747  16.560
17776TIP3    H120399   8.105   1.769  16.559
17776TIP3    H220400   8.012   1.658  16.522
17777TIP3   OH220401   7.743   0.650  15.359
17777TIP3    H120402   7.786   0.696  15.434
17777TIP3    H220403   7.734   0.558  15.393
17778TIP3   OH220404   8.996   1.294  15.551
17778TIP3    H120405   8.988   1.246  15.466
17778TIP3    H220406   9.075   1.247  15.589
17779TIP3   OH220407   8.689   0.172  15.941
17779TIP3    H120408   8.766   0.155  15.999
17779TIP3    H220409   8.734   0.227  15.874
17780TIP3   OH220410   8.244   0.123  15.652
17780TIP3    H120411   8.218   0.090  15.566
17780TIP3    H220412   8.342   0.121  15.647
17781TIP3   OH220413   7.971   0.518  15.549
17781TIP3    H120414   8.035   0.499  15.476
17781TIP3    H220415   7.945   0.611  15.530
17782TIP3   OH220416   7.892   1.009  16.906
17782TIP3    H120417   7.900   1.047  16.994
17782TIP3    H220418   7.799   1.034  16.887
17783TIP3   OH220419   8.267   0.358  16.899
17783TIP3    H120420   8.328   0.355  16.825
17783TIP3    H220421   8.246   0.263  16.908
17784TIP3   OH220422   8.713   0.653  15.826
17784TIP3    H120423   8.806   0.650  15.795
17784TIP3    H220424   8.714   0.741  15.871
17785TIP3   OH220425   8.728   0.630  16.349
17785TIP3    H120426   8.824   0.619  16.365
17785TIP3    H220427   8.690   0.604  16.435
17786TIP3   OH220428   8.172   0.723  16.459
17786TIP3    H120429   8.210   0.800  16.508
17786TIP3    H220430   8.105   0.691  16.522
17787TIP3   OH220431   8.336   0.764  15.301
17787TIP3    H120432   8.376   0.674  15.288
17787TIP3    H220433   8.246   0.743  15.271
17788TIP3   OH220434   8.086   0.678  16.156
17788TIP3    H120435   8.085   0.755  16.216
17788TIP3    H220436   8.081   0.605  16.220
17789TIP3   OH220437   8.984   0.646  15.699
17789TIP3    H120438   8.933   0.671  15.620
17789TIP3    H220439   9.013   0.555  15.676
17790TIP3   OH220440   8.616   0.430  16.942
17790TIP3    H120441   8.664   0.399  16.863
17790TIP3    H220442   8.654   0.517  16.962
17791TIP3   OH220443   9.286   0.411  16.263
17791TIP3    H120444   9.245   0.393  16.177
17791TIP3    H220445   9.225   0.369  16.324
17792TIP3   OH220446   9.186   0.434  16.729
17792TIP3    H120447   9.131   0.404  16.804
17792TIP3    H220448   9.227   0.516  16.764
17793TIP3   OH220449   8.146   0.831  15.740
17793TIP3    H120450   8.100   0.754  15.781
17793TIP3    H220451   8.213   0.783  15.686
17794TIP3   OH220452   8.420   0.395  16.252
17794TIP3    H120453   8.507   0.364  16.221
17794TIP3    H220454   8.364   0.379  16.173
17795TIP3   OH220455   8.990   0.525  16.340
17795TIP3    H120456   9.050   0.545  16.415
17795TIP3    H220457   8.946   0.442  16.370
17796TIP3   OH220458   8.669   0.589  16.614
17796TIP3    H120459   8.573   0.596  16.594
17796TIP3    H220460   8.680   0.643  16.694
17797TIP3   OH220461   8.002   0.308  15.923
17797TIP3    H120462   8.053   0.315  15.840
17797TIP3    H220463   8.073   0.282  15.985
17798TIP3   OH220464   8.748   0.704  16.862
17798TIP3    H120465   8.806   0.695  16.939
17798TIP3    H220466   8.662   0.729  16.902
17799TIP3   OH220467   7.728   1.891  15.266
17799TIP3    H120468   7.691   1.920  15.351
17799TIP3    H220469   7.649   1.897  15.211
17800TIP3   OH220470   8.947   1.116  15.322
17800TIP3    H120471   8.890   1.138  15.246
17800TIP3    H220472   9.036   1.113  15.282
17801TIP3   OH220473   8.400   0.698  16.090
17801TIP3    H120474   8.305   0.685  16.104
17801TIP3    H220475   8.424   0.618  16.041
17802TIP3   OH220476   8.862   0.303  16.410
17802TIP3    H120477   8.915   0.233  16.364
17802TIP3    H220478   8.818   0.253  16.481
17803TIP3   OH220479   8.504   0.499  15.820
17803TIP3    H120480   8.583   0.556  15.831
17803TIP3    H220481   8.441   0.558  15.776
17804TIP3   OH220482   8.423   1.139  16.615
17804TIP3    H120483   8.497   1.102  16.669
17804TIP3    H220484   8.470   1.166  16.532
17805TIP3   OH220485   7.690   1.092  15.766
17805TIP3    H120486   7.634   1.153  15.820
17805TIP3    H220487   7.765   1.082  15.827
17806TIP3   OH220488   8.009   0.424  16.843
17806TIP3    H120489   8.100   0.433  16.878
17806TIP3    H220490   8.002   0.502  16.786
17807TIP3   OH220491   8.291   1.194  15.508
17807TIP3    H120492   8.333   1.173  15.423
17807TIP3    H220493   8.307   1.290  15.511
17808TIP3   OH220494   7.986   0.610  16.633
17808TIP3    H120495   7.909   0.612  16.573
17808TIP3    H220496   7.974   0.695  16.679
17809TIP3   OH220497   8.884   1.081  16.100
17809TIP3    H120498   8.836   1.064  16.183
17809TIP3    H220499   8.862   1.004  16.045
17810TIP3   OH220500   8.219   1.275  16.723
17810TIP3    H120501   8.262   1.362  16.704
17810TIP3    H220502   8.288   1.213  16.695
17811TIP3   OH220503   9.188   0.883  15.545
17811TIP3    H120504   9.193   0.825  15.467
17811TIP3    H220505   9.181   0.821  15.619
17812TIP3   OH220506   8.557   0.900  15.373
17812TIP3    H120507   8.594   0.849  15.448
17812TIP3    H220508   8.475   0.850  15.354
17813TIP3   OH220509   8.024   1.400  15.496
17813TIP3    H120510   8.094   1.422  15.559
17813TIP3    H220511   8.053   1.450  15.417
17814TIP3   OH220512   7.485   0.645  16.674
17814TIP3    H120513   7.543   0.618  16.748
17814TIP3    H220514   7.476   0.740  16.694
17815TIP3   OH220515   7.469   1.197  15.423
17815TIP3    H120516   7.554   1.220  15.468
17815TIP3    H220517   7.409   1.187  15.500
17816TIP3   OH220518   7.680   1.520  16.674
17816TIP3    H120519   7.687   1.431  16.637
17816TIP3    H220520   7.632   1.507  16.758
17817TIP3   OH220521   7.931   1.001  15.947
17817TIP3    H120522   8.024   0.976  15.960
17817TIP3    H220523   7.888   0.930  15.999
17818TIP3   OH220524   8.682   1.434  16.308
17818TIP3    H120525   8.659   1.522  16.344
17818TIP3    H220526   8.772   1.425  16.343
17819TIP3   OH220527   9.099   0.913  16.782
17819TIP3    H120528   9.019   0.967  16.794
17819TIP3    H220529   9.165   0.951  16.842
17820TIP3   OH220530   8.546   1.209  16.382
17820TIP3    H120531   8.592   1.292  16.355
17820TIP3    H220532   8.599   1.142  16.334
17821TIP3   OH220533   8.490   1.617  15.699
17821TIP3    H120534   8.425   1.683  15.732
17821TIP3    H220535   8.437   1.573  15.629
17822TIP3   OH220536   8.651   1.680  16.424
17822TIP3    H120537   8.748   1.691  16.413
17822TIP3    H220538   8.621   1.764  16.383
17823TIP3   OH220539   8.156   1.204  15.766
17823TIP3    H120540   8.177   1.184  15.672
17823TIP3    H220541   8.093   1.132  15.787
17824TIP3   OH220542   7.898   1.326  16.831
17824TIP3    H120543   7.871   1.276  16.751
17824TIP3    H220544   7.991   1.300  16.835
17825TIP3   OH220545   7.848   1.649  15.530
17825TIP3    H120546   7.943   1.628  15.536
17825TIP3    H220547   7.838   1.714  15.603
17826TIP3   OH220548   7.461   1.746  16.827
17826TIP3    H120549   7.413   1.814  16.877
17826TIP3    H220550   7.529   1.802  16.784
17827TIP3   OH220551   9.037   0.394  15.600
17827TIP3    H120552   9.074   0.429  15.517
17827TIP3    H220553   9.053   0.298  15.585
17828TIP3   OH220554   7.816   1.167  16.619
17828TIP3    H120555   7.828   1.078  16.578
17828TIP3    H220556   7.720   1.179  16.606
17829TIP3   OH220557   9.083   1.566  15.773
17829TIP3    H120558   9.015   1.500  15.752
17829TIP3    H220559   9.074   1.626  15.698
17830TIP3   OH220560   8.615   1.374  16.775
17830TIP3    H120561   8.542   1.325  16.732
17830TIP3    H220562   8.594   1.467  16.749
17831TIP3   OH220563   8.931   1.123  16.709
17831TIP3    H120564   9.009   1.154  16.659
17831TIP3    H220565   8.901   1.203  16.755
17832TIP3   OH220566   8.155   0.374  15.699
17832TIP3    H120567   8.102   0.387  15.618
17832TIP3    H220568   8.192   0.285  15.681
17833TIP3   OH220569   8.061   0.294  16.562
17833TIP3    H120570   8.054   0.339  16.648
17833TIP3    H220571   8.027   0.364  16.502
17834TIP3   OH220572   8.311   1.516  16.666
17834TIP3    H120573   8.386   1.578  16.658
17834TIP3    H220574   8.262   1.555  16.742
17835TIP3   OH220575   8.408   0.536  16.483
17835TIP3    H120576   8.325   0.587  16.473
17835TIP3    H220577   8.413   0.485  16.399
17836TIP3   OH220578   8.285   0.644  15.594
17836TIP3    H120579   8.286   0.657  15.498
17836TIP3    H220580   8.263   0.550  15.606
17837TIP3   OH220581   8.320   0.188  16.412
17837TIP3    H120582   8.344   0.271  16.367
17837TIP3    H220583   8.233   0.209  16.452
17838TIP3   OH220584   8.571   1.628  16.696
17838TIP3    H120585   8.552   1.714  16.740
17838TIP3    H220586   8.613   1.662  16.614
17839TIP3   OH220587   8.768   0.338  16.730
17839TIP3    H120588   8.777   0.412  16.667
17839TIP3    H220589   8.681   0.303  16.700
17840TIP3   OH220590   7.734   0.403  15.482
17840TIP3    H120591   7.828   0.418  15.507
17840TIP3    H220592   7.696   0.368  15.565
17841TIP3   OH220593   7.827   0.768  16.075
17841TIP3    H120594   7.904   0.712  16.056
17841TIP3    H220595   7.753   0.713  16.039
17842TIP3   OH220596   8.879   1.361  16.860
17842TIP3    H120597   8.803   1.385  16.805
17842TIP3    H220598   8.833   1.303  16.924
17843TIP3   OH220599   9.043   0.659  16.931
17843TIP3    H120600   9.039   0.741  16.880
17843TIP3    H220601   9.128   0.623  16.900
17844TIP3   OH220602   7.739   1.693  15.936
17844TIP3    H120603   7.742   1.763  16.004
17844TIP3    H220604   7.643   1.683  15.927
17845TIP3   OH220605   8.938   0.154  16.064
17845TIP3    H120606   8.966   0.144  16.158
17845TIP3    H220607   8.977   0.073  16.024
17846TIP3   OH220608   9.091   1.473  16.440
17846TIP3    H120609   9.178   1.511  16.427
17846TIP3    H220610   9.066   1.526  16.519
17847TIP3   OH220611   9.143   1.795  15.257
17847TIP3    H120612   9.057   1.773  15.218
17847TIP3    H220613   9.168   1.714  15.303
17848TIP3   OH220614   8.712   1.643  15.154
17848TIP3    H120615   8.618   1.625  15.149
17848TIP3    H220616   8.730   1.623  15.249
17849TIP3   OH220617   8.222   1.617  16.912
17849TIP3    H120618   8.283   1.570  16.973
17849TIP3    H220619   8.147   1.634  16.972
17850TIP3   OH220620   8.086   1.523  15.263
17850TIP3    H120621   8.120   1.437  15.229
17850TIP3    H220622   8.000   1.527  15.215
17851TIP3   OH220623   7.805   1.572  16.984
17851TIP3    H120624   7.837   1.498  16.928
17851TIP3    H220625   7.710   1.555  16.976
17852TIP3   OH220626   9.218   1.139  15.210
17852TIP3    H120627   9.213   1.042  15.218
17852TIP3    H220628   9.313   1.153  15.229
17853TIP3   OH220629   8.724   1.164  16.985
17853TIP3    H120630   8.679   1.130  16.906
17853TIP3    H220631   8.680   1.114  17.057
17854TIP3   OH220632   8.505   1.156  15.307
17854TIP3    H120633   8.540   1.215  15.378
17854TIP3    H220634   8.524   1.066  15.344
17855TIP3   OH220635   7.940   1.119  15.503
17855TIP3    H120636   7.854   1.166  15.501
17855TIP3    H220637   7.998   1.198  15.504
17856TIP3   OH220638   9.086   0.858  15.258
17856TIP3    H120639   9.030   0.778  15.268
17856TIP3    H220640   9.042   0.900  15.184
17857TIP3   OH220641   8.607   1.002  16.761
17857TIP3    H120642   8.680   0.956  16.717
17857TIP3    H220643   8.570   0.930  16.815
17858TIP3   OH220644   8.716   0.775  15.571
17858TIP3    H120645   8.781   0.847  15.562
17858TIP3    H220646   8.649   0.815  15.631
17859TIP3   OH220647   8.514   0.807  16.950
17859TIP3    H120648   8.484   0.821  17.043
17859TIP3    H220649   8.425   0.811  16.905
17860TIP3   OH220650   8.167   1.054  15.183
17860TIP3    H120651   8.108   1.003  15.244
17860TIP3    H220652   8.248   1.001  15.184
17861TIP3   OH220653   7.612   1.067   8.513
17861TIP3    H120654   7.671   1.075   8.590
17861TIP3    H220655   7.592   1.160   8.492
17862TIP3   OH220656   8.604   0.558  15.454
17862TIP3    H120657   8.616   0.488  15.520
17862TIP3    H220658   8.622   0.640  15.505
17863TIP3   OH220659   8.612   0.333  15.643
17863TIP3    H120660   8.573   0.384  15.719
17863TIP3    H220661   8.702   0.312  15.679
17864TIP3   OH220662   8.488   0.920  15.665
17864TIP3    H120663   8.407   0.960  15.698
17864TIP3    H220664   8.552   0.987  15.694
17865TIP3   OH220665   8.061   0.653  15.144
17865TIP3    H120666   8.021   0.569  15.173
17865TIP3    H220667   7.984   0.713  15.145
17866TIP3   OH220668   7.893   0.954  15.288
17866TIP3    H120669   7.914   1.010  15.366
17866TIP3    H220670   7.799   0.935  15.300
17867TIP3   OH220671   8.925   0.639  15.291
17867TIP3    H120672   8.949   0.562  15.235
17867TIP3    H220673   8.837   0.613  15.319
17868TIP3   OH220674   8.523   0.088  15.643
17868TIP3    H120675   8.542   0.183  15.626
17868TIP3    H220676   8.581   0.074  15.720
17869TIP3   OH220677   8.428   0.516  15.238
17869TIP3    H120678   8.480   0.481  15.163
17869TIP3    H220679   8.493   0.505  15.311
17870TIP3   OH220680   8.142   0.425  15.349
17870TIP3    H120681   8.233   0.411  15.316
17870TIP3    H220682   8.090   0.399  15.270
17871TIP3   OH220683   7.987   0.313  15.154
17871TIP3    H120684   7.984   0.224  15.193
17871TIP3    H220685   7.990   0.294  15.059
17872TIP3   OH220686   9.014   0.384  15.215
17872TIP3    H120687   9.026   0.305  15.272
17872TIP3    H220688   9.017   0.344  15.126
17873TIP3   OH220689   8.576   0.009  15.383
17873TIP3    H120690   8.483   0.006  15.355
17873TIP3    H220691   8.561   0.044  15.474
17874TIP3   OH220692   8.491   0.229  15.225
17874TIP3    H120693   8.533   0.144  15.206
17874TIP3    H220694   8.538   0.287  15.163
17875TIP3   OH220695   8.540   1.870  16.796
17875TIP3    H120696   8.454   1.908  16.820
17875TIP3    H220697   8.599   1.910  16.859
17876TIP3   OH220698   9.142   1.341  16.911
17876TIP3    H120699   9.047   1.356  16.891
17876TIP3    H220700   9.139   1.341  17.010
17877TIP3   OH220701   9.261   1.860  16.393
17877TIP3    H120702   9.318   1.790  16.431
17877TIP3    H220703   9.240   1.815  16.308
17878TIP3   OH220704   9.206   1.696  16.183
17878TIP3    H120705   9.241   1.607  16.164
17878TIP3    H220706   9.159   1.715  16.099
17879TIP3   OH220707   7.447   1.752  15.923
17879TIP3    H120708   7.434   1.759  15.828
17879TIP3    H220709   7.391   1.824  15.954
17880TIP3   OH220710   7.526   1.709  15.629
17880TIP3    H120711   7.566   1.632  15.675
17880TIP3    H220712   7.469   1.664  15.564
17881TIP3   OH220713   7.644   1.276  15.124
17881TIP3    H120714   7.700   1.278  15.203
17881TIP3    H220715   7.631   1.371  15.105
17882TIP3   OH220716   7.525   1.136  16.624
17882TIP3    H120717   7.439   1.182  16.608
17882TIP3    H220718   7.527   1.075  16.547
17883TIP3   OH220719   7.507   0.951  16.417
17883TIP3    H120720   7.582   0.906  16.371
17883TIP3    H220721   7.442   0.962  16.345
17884TIP3   OH220722   7.521   1.219  15.921
17884TIP3    H120723   7.457   1.152  15.951
17884TIP3    H220724   7.474   1.303  15.940
17885TIP3   OH220725   7.665   1.477  15.695
17885TIP3    H120726   7.734   1.514  15.638
17885TIP3    H220727   7.712   1.461  15.780
17886TIP3   OH220728   7.483   0.898  16.789
17886TIP3    H120729   7.542   0.919  16.863
17886TIP3    H220730   7.488   0.979  16.735
17887TIP3   OH220731   7.711   0.626  16.879
17887TIP3    H120732   7.641   0.665  16.934
17887TIP3    H220733   7.712   0.534  16.912
17888TIP3   OH220734   7.705   0.811  16.311
17888TIP3    H120735   7.721   0.722  16.345
17888TIP3    H220736   7.733   0.800  16.218
17889TIP3   OH220737   9.177   1.013  15.950
17889TIP3    H120738   9.188   0.975  16.040
17889TIP3    H220739   9.087   0.983  15.923
17890TIP3   OH220740   7.613   0.979  15.365
17890TIP3    H120741   7.562   0.894  15.354
17890TIP3    H220742   7.544   1.041  15.397
17891TIP3   OH220743   7.492   0.735  15.326
17891TIP3    H120744   7.586   0.705  15.322
17891TIP3    H220745   7.441   0.650  15.318
17892TIP3   OH220746   7.701   0.399  17.028
17892TIP3    H120747   7.651   0.337  16.971
17892TIP3    H220748   7.793   0.369  17.022
17893TIP3   OH220749   7.763   0.549  16.487
17893TIP3    H120750   7.735   0.457  16.463
17893TIP3    H220751   7.725   0.552  16.577
17894TIP3   OH220752   7.647   0.604  15.964
17894TIP3    H120753   7.549   0.610  15.960
17894TIP3    H220754   7.666   0.625  15.870
17895TIP3   OH220755   7.658   0.676  15.704
17895TIP3    H120756   7.752   0.698  15.688
17895TIP3    H220757   7.615   0.765  15.703
17896TIP3   OH220758   9.221   0.527  15.369
17896TIP3    H120759   9.153   0.491  15.309
17896TIP3    H220760   9.298   0.472  15.352
17897TIP3   OH220761   7.460   0.120  15.169
17897TIP3    H120762   7.414   0.048  15.218
17897TIP3    H220763   7.466   0.188  15.240
17898TIP3   OH220764   7.681   0.287  16.484
17898TIP3    H120765   7.649   0.236  16.407
17898TIP3    H220766   7.738   0.221  16.532
17899TIP3   OH220767   9.159   0.322  16.016
17899TIP3    H120768   9.097   0.246  16.007
17899TIP3    H220769   9.095   0.394  16.027
17900TIP3   OH220770   9.253   0.635  15.941
17900TIP3    H120771   9.186   0.640  16.012
17900TIP3    H220772   9.241   0.720  15.896
17901TIP3   OH220773   7.516   0.303  15.353
17901TIP3    H120774   7.603   0.337  15.383
17901TIP3    H220775   7.510   0.225  15.411
17902TIP3   OH220776   7.511   0.289  16.843
17902TIP3    H120777   7.505   0.204  16.886
17902TIP3    H220778   7.436   0.336  16.884
17903TIP3   OH220779   9.275   0.256  16.552
17903TIP3    H120780   9.372   0.266  16.541
17903TIP3    H220781   9.253   0.323  16.621
17904TIP3   OH220782   7.794   1.787  16.324
17904TIP3    H120783   7.726   1.757  16.388
17904TIP3    H220784   7.741   1.829  16.254
17905TIP3   OH220785   9.242   0.155  15.721
17905TIP3    H120786   9.280   0.177  15.635
17905TIP3    H220787   9.296   0.208  15.781
17906TIP3   OH220788   9.040   1.455  15.262
17906TIP3    H120789   9.098   1.383  15.292
17906TIP3    H220790   9.078   1.482  15.178
17907TIP3   OH220791   8.752   1.590  15.651
17907TIP3    H120792   8.755   1.684  15.680
17907TIP3    H220793   8.656   1.577  15.655
17908TIP3   OH220794   8.315   1.725  15.379
17908TIP3    H120795   8.306   1.702  15.284
17908TIP3    H220796   8.226   1.763  15.399
17909TIP3   OH220797   8.098   1.878  15.428
17909TIP3    H120798   8.025   1.860  15.488
17909TIP3    H220799   8.054   1.913  15.347
17910TIP3   OH220800   7.575   0.103  15.537
17910TIP3    H120801   7.655   0.133  15.583
17910TIP3    H220802   7.554   0.019  15.585
17911TIP3   OH220803   9.013   1.902  15.655
17911TIP3    H120804   9.098   1.940  15.686
17911TIP3    H220805   9.007   1.939  15.564
17912TIP3   OH220806   8.762   1.844  15.761
17912TIP3    H120807   8.849   1.871  15.724
17912TIP3    H220808   8.754   1.904  15.837
17913TIP3   OH220809   8.303   1.808  15.835
17913TIP3    H120810   8.342   1.854  15.910
17913TIP3    H220811   8.290   1.884  15.773
17914TIP3   OH220812   8.098   1.686  15.690
17914TIP3    H120813   8.169   1.727  15.745
17914TIP3    H220814   8.024   1.736  15.727
17915TIP3   OH220815   7.812   1.841  15.714
17915TIP3    H120816   7.811   1.936  15.733
17915TIP3    H220817   7.784   1.805  15.801
17916TIP3   OH220818   9.038   1.753  15.968
17916TIP3    H120819   9.058   1.687  15.899
17916TIP3    H220820   8.959   1.712  16.010
17917TIP3   OH220821   8.858   1.614  16.104
17917TIP3    H120822   8.864   1.519  16.085
17917TIP3    H220823   8.774   1.635  16.057
17918TIP3   OH220824   8.631   1.626  15.959
17918TIP3    H120825   8.593   1.537  15.978
17918TIP3    H220826   8.600   1.640  15.867
17919TIP3   OH220827   8.243   0.273  16.072
17919TIP3    H120828   8.316   0.208  16.068
17919TIP3    H220829   8.187   0.233  16.141
17920TIP3   OH220830   7.756   0.068  16.114
17920TIP3    H120831   7.688   0.119  16.162
17920TIP3    H220832   7.838   0.116  16.136
17921TIP3   OH220833   7.544   0.152  16.292
17921TIP3    H120834   7.486   0.091  16.342
17921TIP3    H220835   7.485   0.230  16.277
17922TIP3   OH220836   9.011   0.104  16.320
17922TIP3    H120837   9.083   0.072  16.376
17922TIP3    H220838   8.954   0.023  16.315
17923TIP3   OH220839   9.101   0.092  16.736
17923TIP3    H120840   9.079   0.168  16.793
17923TIP3    H220841   9.168   0.132  16.678
17924TIP3   OH220842   8.572   0.083  16.305
17924TIP3    H120843   8.492   0.113  16.351
17924TIP3    H220844   8.547   0.089  16.210
17925TIP3   OH220845   8.029   0.114  16.224
17925TIP3    H120846   8.025   0.076  16.313
17925TIP3    H220847   8.055   0.040  16.167
17926TIP3   OH220848   7.851   0.114  16.619
17926TIP3    H120849   7.928   0.168  16.642
17926TIP3    H220850   7.896   0.048  16.562
17927TIP3   OH220851   9.135   1.660  16.635
17927TIP3    H120852   9.222   1.635  16.668
17927TIP3    H220853   9.132   1.754  16.663
17928TIP3   OH220854   8.984   0.297  16.889
17928TIP3    H120855   8.931   0.238  16.945
17928TIP3    H220856   8.915   0.324  16.824
17929TIP3   OH220857   8.478   0.289  16.625
17929TIP3    H120858   8.409   0.239  16.577
17929TIP3    H220859   8.460   0.380  16.595
17930TIP3   OH220860   8.252   1.867  16.831
17930TIP3    H120861   8.165   1.885  16.873
17930TIP3    H220862   8.253   1.770  16.846
17931TIP3   OH220863   7.614   1.715  16.504
17931TIP3    H120864   7.632   1.642  16.569
17931TIP3    H220865   7.611   1.791  16.566
17932TIP3   OH220866   9.062   0.174  15.394
17932TIP3    H120867   9.124   0.108  15.356
17932TIP3    H220868   8.979   0.134  15.360
17933TIP3   OH220869   8.844   0.048  15.256
17933TIP3    H120870   8.766   0.088  15.298
17933TIP3    H220871   8.798  -0.029  15.218
17934TIP3   OH220872   8.972   1.709  16.934
17934TIP3    H120873   9.008   1.758  16.859
17934TIP3    H220874   8.902   1.656  16.894
17935TIP3   OH220875   7.966   0.037  15.242
17935TIP3    H120876   7.971  -0.003  15.154
17935TIP3    H220877   7.885  -0.003  15.277
17936TIP3   OH220878   7.658   1.606  15.348
17936TIP3    H120879   7.715   1.626  15.426
17936TIP3    H220880   7.628   1.694  15.323
17937TIP3   OH220881   6.193   1.035  16.333
17937TIP3    H120882   6.207   1.132  16.331
17937TIP3    H220883   6.279   1.006  16.367
17938TIP3   OH220884   6.317   0.892  16.007
17938TIP3    H120885   6.334   0.862  15.915
17938TIP3    H220886   6.391   0.855  16.057
17939TIP3   OH220887   7.118   0.912  15.819
17939TIP3    H120888   7.121   0.824  15.777
17939TIP3    H220889   7.048   0.956  15.768
17940TIP3   OH220890   6.005   1.218  16.144
17940TIP3    H120891   6.034   1.151  16.080
17940TIP3    H220892   5.974   1.288  16.085
17941TIP3   OH220893   6.999   1.360  15.999
17941TIP3    H120894   7.038   1.275  16.027
17941TIP3    H220895   6.906   1.342  16.023
17942TIP3   OH220896   7.322   0.689  16.448
17942TIP3    H120897   7.358   0.764  16.400
17942TIP3    H220898   7.391   0.675  16.517
17943TIP3   OH220899   7.306   0.936  16.199
17943TIP3    H120900   7.288   0.841  16.186
17943TIP3    H220901   7.217   0.976  16.206
17944TIP3   OH220902   6.259   1.762  16.154
17944TIP3    H120903   6.194   1.710  16.207
17944TIP3    H220904   6.279   1.696  16.086
17945TIP3   OH220905   6.526   1.171  15.882
17945TIP3    H120906   6.497   1.172  15.974
17945TIP3    H220907   6.441   1.186  15.835
17946TIP3   OH220908   5.643   0.299  15.876
17946TIP3    H120909   5.639   0.368  15.806
17946TIP3    H220910   5.563   0.320  15.925
17947TIP3   OH220911   6.144   0.633  15.881
17947TIP3    H120912   6.128   0.538  15.871
17947TIP3    H220913   6.186   0.636  15.970
17948TIP3   OH220914   6.844   0.413  16.213
17948TIP3    H120915   6.825   0.496  16.262
17948TIP3    H220916   6.903   0.367  16.276
17949TIP3   OH220917   6.114   0.453  16.319
17949TIP3    H120918   6.058   0.402  16.254
17949TIP3    H220919   6.044   0.501  16.366
17950TIP3   OH220920   7.237   0.677  16.129
17950TIP3    H120921   7.156   0.662  16.076
17950TIP3    H220922   7.214   0.620  16.205
17951TIP3   OH220923   6.726   0.815  16.162
17951TIP3    H120924   6.640   0.775  16.140
17951TIP3    H220925   6.756   0.755  16.234
17952TIP3   OH220926   5.630   0.465  15.658
17952TIP3    H120927   5.663   0.552  15.688
17952TIP3    H220928   5.608   0.483  15.565
17953TIP3   OH220929   6.950   0.334  15.806
17953TIP3    H120930   6.976   0.389  15.884
17953TIP3    H220931   7.018   0.362  15.741
17954TIP3   OH220932   6.286   1.262  16.438
17954TIP3    H120933   6.306   1.265  16.532
17954TIP3    H220934   6.319   1.350  16.408
17955TIP3   OH220935   6.760   1.084  15.796
17955TIP3    H120936   6.810   1.156  15.751
17955TIP3    H220937   6.678   1.131  15.823
17956TIP3   OH220938   5.934   0.342  16.160
17956TIP3    H120939   5.978   0.337  16.072
17956TIP3    H220940   5.846   0.373  16.138
17957TIP3   OH220941   6.992   0.525  15.996
17957TIP3    H120942   6.930   0.590  15.957
17957TIP3    H220943   6.945   0.500  16.079
17958TIP3   OH220944   6.876   1.300  15.689
17958TIP3    H120945   6.907   1.366  15.753
17958TIP3    H220946   6.959   1.284  15.636
17959TIP3   OH220947   7.279   1.245  16.611
17959TIP3    H120948   7.284   1.295  16.696
17959TIP3    H220949   7.264   1.318  16.548
17960TIP3   OH220950   5.921   1.422  15.945
17960TIP3    H120951   6.012   1.446  15.914
17960TIP3    H220952   5.893   1.509  15.977
17961TIP3   OH220953   5.853   0.199  15.748
17961TIP3    H120954   5.926   0.244  15.792
17961TIP3    H220955   5.779   0.226  15.809
17962TIP3   OH220956   6.573   0.096  16.067
17962TIP3    H120957   6.531   0.015  16.036
17962TIP3    H220958   6.659   0.092  16.020
17963TIP3   OH220959   6.092   1.599  16.285
17963TIP3    H120960   6.058   1.519  16.328
17963TIP3    H220961   6.020   1.664  16.308
17964TIP3   OH220962   5.967   1.375  16.420
17964TIP3    H120963   5.991   1.309  16.486
17964TIP3    H220964   5.992   1.330  16.337
17965TIP3   OH220965   5.820   1.253  15.524
17965TIP3    H120966   5.803   1.181  15.589
17965TIP3    H220967   5.807   1.331  15.583
17966TIP3   OH220968   6.372   0.932  16.596
17966TIP3    H120969   6.427   1.013  16.606
17966TIP3    H220970   6.288   0.958  16.639
17967TIP3   OH220971   6.368   0.840  16.866
17967TIP3    H120972   6.305   0.860  16.793
17967TIP3    H220973   6.326   0.765  16.911
17968TIP3   OH220974   5.615   0.891  15.770
17968TIP3    H120975   5.678   0.965  15.763
17968TIP3    H220976   5.555   0.927  15.839
17969TIP3   OH220977   5.991   0.925  16.480
17969TIP3    H120978   6.056   0.963  16.415
17969TIP3    H220979   5.921   0.893  16.419
17970TIP3   OH220980   6.020   0.742  15.555
17970TIP3    H120981   6.014   0.833  15.519
17970TIP3    H220982   6.086   0.755  15.626
17971TIP3   OH220983   6.852   1.017  16.294
17971TIP3    H120984   6.880   0.978  16.380
17971TIP3    H220985   6.791   0.948  16.261
17972TIP3   OH220986   6.714   1.342  16.026
17972TIP3    H120987   6.702   1.315  16.119
17972TIP3    H220988   6.651   1.287  15.976
17973TIP3   OH220989   6.852   0.885  15.935
17973TIP3    H120990   6.808   0.885  16.023
17973TIP3    H220991   6.805   0.959  15.888
17974TIP3   OH220992   6.165   1.455  15.858
17974TIP3    H120993   6.216   1.513  15.799
17974TIP3    H220994   6.186   1.366  15.825
17975TIP3   OH220995   6.725   1.333  15.465
17975TIP3    H120996   6.790   1.395  15.424
17975TIP3    H220997   6.760   1.330  15.557
17976TIP3   OH220998   6.136   0.877  16.707
17976TIP3    H120999   6.086   0.893  16.623
17976TIP3    H221000   6.085   0.931  16.771
17977TIP3   OH221001   7.024   0.952  15.560
17977TIP3    H121002   6.988   1.009  15.490
17977TIP3    H221003   7.105   0.921  15.515
17978TIP3   OH221004   6.361   1.504  16.353
17978TIP3    H121005   6.336   1.559  16.279
17978TIP3    H221006   6.399   1.566  16.415
17979TIP3   OH221007   6.895   1.510  15.384
17979TIP3    H121008   6.912   1.547  15.473
17979TIP3    H221009   6.986   1.486  15.356
17980TIP3   OH221010   5.732   0.055  16.702
17980TIP3    H121011   5.829   0.053  16.682
17980TIP3    H221012   5.721   0.148  16.728
17981TIP3   OH221013   6.968   0.918  16.539
17981TIP3    H121014   7.003   1.000  16.579
17981TIP3    H221015   7.031   0.853  16.569
17982TIP3   OH221016   5.654   1.477  16.910
17982TIP3    H121017   5.620   1.568  16.907
17982TIP3    H221018   5.569   1.428  16.901
17983TIP3   OH221019   7.325   1.171  15.639
17983TIP3    H121020   7.389   1.150  15.709
17983TIP3    H221021   7.276   1.087  15.639
17984TIP3   OH221022   7.359   1.443  15.961
17984TIP3    H121023   7.276   1.396  15.949
17984TIP3    H221024   7.344   1.524  15.911
17985TIP3   OH221025   5.531   1.501  15.391
17985TIP3    H121026   5.550   1.409  15.416
17985TIP3    H221027   5.618   1.525  15.351
17986TIP3   OH221028   6.481   1.451  15.481
17986TIP3    H121029   6.451   1.522  15.422
17986TIP3    H221030   6.569   1.428  15.444
17987TIP3   OH221031   6.398   1.833  16.575
17987TIP3    H121032   6.391   1.858  16.670
17987TIP3    H221033   6.398   1.922  16.533
17988TIP3   OH221034   7.037   1.704  16.350
17988TIP3    H121035   7.015   1.671  16.259
17988TIP3    H221036   7.126   1.669  16.365
17989TIP3   OH221037   6.102   1.770  16.849
17989TIP3    H121038   6.042   1.697  16.872
17989TIP3    H221039   6.096   1.770  16.751
17990TIP3   OH221040   6.133   1.761  16.568
17990TIP3    H121041   6.230   1.772  16.560
17990TIP3    H221042   6.119   1.678  16.519
17991TIP3   OH221043   5.863   0.648  15.359
17991TIP3    H121044   5.924   0.686  15.426
17991TIP3    H221045   5.858   0.555  15.391
17992TIP3   OH221046   7.107   1.299  15.559
17992TIP3    H121047   7.100   1.259  15.470
17992TIP3    H221048   7.194   1.264  15.590
17993TIP3   OH221049   6.816   0.129  15.949
17993TIP3    H121050   6.890   0.129  16.013
17993TIP3    H221051   6.854   0.197  15.889
17994TIP3   OH221052   6.374   0.130  15.652
17994TIP3    H121053   6.357   0.115  15.559
17994TIP3    H221054   6.471   0.131  15.656
17995TIP3   OH221055   6.083   0.453  15.537
17995TIP3    H121056   6.146   0.431  15.465
17995TIP3    H221057   6.067   0.548  15.521
17996TIP3   OH221058   6.007   1.016  16.905
17996TIP3    H121059   6.004   1.038  16.999
17996TIP3    H221060   5.924   1.058  16.877
17997TIP3   OH221061   6.400   0.329  16.910
17997TIP3    H121062   6.463   0.330  16.837
17997TIP3    H221063   6.357   0.242  16.896
17998TIP3   OH221064   6.830   0.647  15.816
17998TIP3    H121065   6.920   0.637  15.780
17998TIP3    H221066   6.833   0.737  15.854
17999TIP3   OH221067   6.834   0.634  16.359
17999TIP3    H121068   6.931   0.621  16.365
17999TIP3    H221069   6.803   0.601  16.446
18000TIP3   OH221070   6.280   0.726  16.456
18000TIP3    H121071   6.318   0.806  16.501
18000TIP3    H221072   6.219   0.695  16.525
18001TIP3   OH221073   6.402   0.739  15.349
18001TIP3    H121074   6.444   0.657  15.316
18001TIP3    H221075   6.314   0.732  15.307
18002TIP3   OH221076   6.187   0.668  16.154
18002TIP3    H121077   6.200   0.744  16.213
18002TIP3    H221078   6.187   0.594  16.217
18003TIP3   OH221079   7.092   0.650  15.711
18003TIP3    H121080   7.068   0.678  15.621
18003TIP3    H221081   7.142   0.569  15.692
18004TIP3   OH221082   6.749   0.436  16.951
18004TIP3    H121083   6.756   0.396  16.862
18004TIP3    H221084   6.776   0.528  16.937
18005TIP3   OH221085   7.400   0.383  16.258
18005TIP3    H121086   7.337   0.392  16.183
18005TIP3    H221087   7.348   0.407  16.335
18006TIP3   OH221088   7.287   0.437  16.687
18006TIP3    H121089   7.228   0.463  16.761
18006TIP3    H221090   7.333   0.521  16.667
18007TIP3   OH221091   6.286   0.825  15.747
18007TIP3    H121092   6.228   0.758  15.791
18007TIP3    H221093   6.341   0.766  15.690
18008TIP3   OH221094   6.551   0.393  16.246
18008TIP3    H121095   6.647   0.374  16.253
18008TIP3    H221096   6.532   0.368  16.153
18009TIP3   OH221097   7.122   0.554  16.340
18009TIP3    H121098   7.188   0.599  16.397
18009TIP3    H221099   7.093   0.478  16.396
18010TIP3   OH221100   6.733   0.581  16.625
18010TIP3    H121101   6.642   0.605  16.603
18010TIP3    H221102   6.762   0.646  16.691
18011TIP3   OH221103   6.104   0.310  15.944
18011TIP3    H121104   6.154   0.325  15.861
18011TIP3    H221105   6.180   0.286  16.002
18012TIP3   OH221106   6.862   0.708  16.862
18012TIP3    H121107   6.927   0.710  16.934
18012TIP3    H221108   6.780   0.741  16.905
18013TIP3   OH221109   5.838   1.882  15.274
18013TIP3    H121110   5.794   1.916  15.355
18013TIP3    H221111   5.784   1.924  15.206
18014TIP3   OH221112   7.079   1.176  15.297
18014TIP3    H121113   7.021   1.158  15.219
18014TIP3    H221114   7.164   1.139  15.262
18015TIP3   OH221115   6.499   0.679  16.082
18015TIP3    H121116   6.415   0.633  16.102
18015TIP3    H221117   6.541   0.616  16.022
18016TIP3   OH221118   7.000   0.328  16.418
18016TIP3    H121119   7.052   0.259  16.370
18016TIP3    H221120   6.950   0.272  16.479
18017TIP3   OH221121   6.605   0.499  15.822
18017TIP3    H121122   6.682   0.560  15.816
18017TIP3    H221123   6.535   0.552  15.780
18018TIP3   OH221124   6.535   1.146  16.613
18018TIP3    H121125   6.609   1.093  16.648
18018TIP3    H221126   6.575   1.178  16.527
18019TIP3   OH221127   5.794   1.103  15.744
18019TIP3    H121128   5.743   1.163  15.804
18019TIP3    H221129   5.875   1.093  15.797
18020TIP3   OH221130   6.146   0.433  16.859
18020TIP3    H121131   6.239   0.446  16.887
18020TIP3    H221132   6.131   0.504  16.795
18021TIP3   OH221133   6.420   1.183  15.502
18021TIP3    H121134   6.457   1.161  15.415
18021TIP3    H221135   6.443   1.278  15.507
18022TIP3   OH221136   6.089   0.609  16.646
18022TIP3    H121137   6.024   0.614  16.573
18022TIP3    H221138   6.057   0.681  16.704
18023TIP3   OH221139   7.029   1.087  16.080
18023TIP3    H121140   6.970   1.080  16.159
18023TIP3    H221141   6.992   1.019  16.020
18024TIP3   OH221142   6.338   1.278  16.730
18024TIP3    H121143   6.381   1.364  16.707
18024TIP3    H221144   6.406   1.215  16.698
18025TIP3   OH221145   7.341   0.904  15.516
18025TIP3    H121146   7.353   0.842  15.441
18025TIP3    H221147   7.386   0.858  15.588
18026TIP3   OH221148   6.658   0.889  15.369
18026TIP3    H121149   6.704   0.842  15.442
18026TIP3    H221150   6.572   0.841  15.365
18027TIP3   OH221151   6.130   1.395  15.491
18027TIP3    H121152   6.206   1.393  15.552
18027TIP3    H221153   6.163   1.459  15.425
18028TIP3   OH221154   5.610   0.635  16.667
18028TIP3    H121155   5.665   0.608  16.743
18028TIP3    H221156   5.592   0.728  16.690
18029TIP3   OH221157   5.567   1.209  15.406
18029TIP3    H121158   5.651   1.239  15.446
18029TIP3    H221159   5.512   1.198  15.487
18030TIP3   OH221160   5.794   1.528  16.676
18030TIP3    H121161   5.796   1.443  16.631
18030TIP3    H221162   5.747   1.510  16.759
18031TIP3   OH221163   6.052   1.009  15.945
18031TIP3    H121164   6.140   0.972  15.964
18031TIP3    H221165   5.997   0.943  15.991
18032TIP3   OH221166   6.785   1.448  16.342
18032TIP3    H121167   6.772   1.541  16.369
18032TIP3    H221168   6.878   1.436  16.367
18033TIP3   OH221169   7.197   0.926  16.886
18033TIP3    H121170   7.150   0.990  16.829
18033TIP3    H221171   7.283   0.917  16.842
18034TIP3   OH221172   6.658   1.207  16.379
18034TIP3    H121173   6.700   1.296  16.369
18034TIP3    H221174   6.715   1.148  16.327
18035TIP3   OH221175   6.594   1.600  15.688
18035TIP3    H121176   6.532   1.671  15.712
18035TIP3    H221177   6.548   1.558  15.613
18036TIP3   OH221178   6.781   1.701  16.442
18036TIP3    H121179   6.876   1.708  16.415
18036TIP3    H221180   6.747   1.783  16.399
18037TIP3   OH221181   6.290   1.203  15.764
18037TIP3    H121182   6.325   1.178  15.676
18037TIP3    H221183   6.245   1.120  15.791
18038TIP3   OH221184   6.014   1.322  16.834
18038TIP3    H121185   5.989   1.275  16.751
18038TIP3    H221186   6.108   1.295  16.835
18039TIP3   OH221187   5.944   1.651  15.552
18039TIP3    H121188   6.038   1.626  15.558
18039TIP3    H221189   5.938   1.725  15.617
18040TIP3   OH221190   5.579   1.748  16.831
18040TIP3    H121191   5.533   1.815  16.885
18040TIP3    H221192   5.644   1.808  16.787
18041TIP3   OH221193   7.149   0.372  15.613
18041TIP3    H121194   7.204   0.415  15.546
18041TIP3    H221195   7.161   0.279  15.590
18042TIP3   OH221196   5.934   1.175  16.619
18042TIP3    H121197   5.944   1.086  16.579
18042TIP3    H221198   5.838   1.189  16.607
18043TIP3   OH221199   7.189   1.567  15.738
18043TIP3    H121200   7.131   1.489  15.738
18043TIP3    H221201   7.169   1.605  15.651
18044TIP3   OH221202   6.737   1.379  16.756
18044TIP3    H121203   6.672   1.333  16.701
18044TIP3    H221204   6.716   1.474  16.739
18045TIP3   OH221205   7.081   1.107  16.725
18045TIP3    H121206   7.151   1.155  16.675
18045TIP3    H221207   7.028   1.180  16.761
18046TIP3   OH221208   6.253   0.365  15.727
18046TIP3    H121209   6.193   0.391  15.654
18046TIP3    H221210   6.303   0.290  15.689
18047TIP3   OH221211   6.190   0.303  16.537
18047TIP3    H121212   6.197   0.362  16.613
18047TIP3    H221213   6.164   0.366  16.466
18048TIP3   OH221214   6.427   1.518  16.670
18048TIP3    H121215   6.494   1.588  16.664
18048TIP3    H221216   6.373   1.550  16.746
18049TIP3   OH221217   6.479   0.533  16.468
18049TIP3    H121218   6.414   0.605  16.456
18049TIP3    H221219   6.489   0.496  16.377
18050TIP3   OH221220   6.413   0.637  15.599
18050TIP3    H121221   6.422   0.687  15.514
18050TIP3    H221222   6.385   0.548  15.570
18051TIP3   OH221223   6.442   0.184  16.415
18051TIP3    H121224   6.455   0.258  16.353
18051TIP3    H221225   6.355   0.208  16.455
18052TIP3   OH221226   6.705   1.639  16.701
18052TIP3    H121227   6.681   1.726  16.740
18052TIP3    H221228   6.742   1.669  16.614
18053TIP3   OH221229   6.871   0.341  16.725
18053TIP3    H121230   6.870   0.427  16.680
18053TIP3    H221231   6.787   0.306  16.691
18054TIP3   OH221232   5.835   0.400  15.465
18054TIP3    H121233   5.931   0.392  15.479
18054TIP3    H221234   5.802   0.390  15.557
18055TIP3   OH221235   5.941   0.774  16.086
18055TIP3    H121236   6.028   0.730  16.085
18055TIP3    H221237   5.884   0.710  16.037
18056TIP3   OH221238   6.998   1.360  16.847
18056TIP3    H121239   6.911   1.384  16.807
18056TIP3    H221240   6.967   1.311  16.925
18057TIP3   OH221241   7.181   0.653  16.933
18057TIP3    H121242   7.166   0.748  16.915
18057TIP3    H221243   7.272   0.654  16.965
18058TIP3   OH221244   5.848   1.692  15.930
18058TIP3    H121245   5.839   1.756  16.004
18058TIP3    H221246   5.754   1.681  15.909
18059TIP3   OH221247   7.074   0.153  16.055
18059TIP3    H121248   7.100   0.123  16.144
18059TIP3    H221249   7.108   0.077  16.001
18060TIP3   OH221250   7.254   1.491  16.459
18060TIP3    H121251   7.328   1.536  16.417
18060TIP3    H221252   7.230   1.556  16.529
18061TIP3   OH221253   7.303   1.762  15.313
18061TIP3    H121254   7.236   1.748  15.242
18061TIP3    H221255   7.334   1.670  15.327
18062TIP3   OH221256   6.860   1.662  15.167
18062TIP3    H121257   6.765   1.644  15.154
18062TIP3    H221258   6.873   1.617  15.254
18063TIP3   OH221259   6.333   1.624  16.913
18063TIP3    H121260   6.384   1.573  16.979
18063TIP3    H221261   6.257   1.652  16.967
18064TIP3   OH221262   6.179   1.525  15.263
18064TIP3    H121263   6.222   1.439  15.235
18064TIP3    H221264   6.090   1.512  15.228
18065TIP3   OH221265   5.915   1.574  16.982
18065TIP3    H121266   5.952   1.499  16.931
18065TIP3    H221267   5.820   1.554  16.965
18066TIP3   OH221268   7.324   1.128  15.209
18066TIP3    H121269   7.352   1.035  15.207
18066TIP3    H221270   7.373   1.160  15.287
18067TIP3   OH221271   6.842   1.145  16.987
18067TIP3    H121272   6.786   1.149  16.907
18067TIP3    H221273   6.779   1.108  17.053
18068TIP3   OH221274   6.641   1.149  15.296
18068TIP3    H121275   6.667   1.209  15.370
18068TIP3    H221276   6.655   1.059  15.335
18069TIP3   OH221277   6.070   1.123  15.496
18069TIP3    H121278   5.978   1.155  15.506
18069TIP3    H221279   6.111   1.211  15.483
18070TIP3   OH221280   7.182   0.855  15.262
18070TIP3    H121281   7.205   0.770  15.220
18070TIP3    H221282   7.144   0.903  15.186
18071TIP3   OH221283   6.725   0.997  16.749
18071TIP3    H121284   6.799   0.949  16.709
18071TIP3    H221285   6.685   0.929  16.808
18072TIP3   OH221286   6.845   0.759  15.555
18072TIP3    H121287   6.916   0.827  15.565
18072TIP3    H221288   6.784   0.786  15.626
18073TIP3   OH221289   6.616   0.800  16.947
18073TIP3    H121290   6.586   0.823  17.037
18073TIP3    H221291   6.531   0.808  16.898
18074TIP3   OH221292   6.276   1.043  15.191
18074TIP3    H121293   6.243   1.022  15.280
18074TIP3    H221294   6.234   0.974  15.137
18075TIP3   OH221295   5.736   1.068   8.506
18075TIP3    H121296   5.786   1.078   8.590
18075TIP3    H221297   5.707   1.159   8.489
18076TIP3   OH221298   6.752   0.528  15.446
18076TIP3    H121299   6.743   0.459  15.515
18076TIP3    H221300   6.792   0.604  15.494
18077TIP3   OH221301   6.739   0.343  15.647
18077TIP3    H121302   6.690   0.395  15.716
18077TIP3    H221303   6.825   0.328  15.692
18078TIP3   OH221304   6.618   0.901  15.662
18078TIP3    H121305   6.527   0.934  15.661
18078TIP3    H221306   6.668   0.976  15.701
18079TIP3   OH221307   6.153   0.616  15.192
18079TIP3    H121308   6.169   0.558  15.114
18079TIP3    H221309   6.069   0.660  15.172
18080TIP3   OH221310   5.999   0.953  15.302
18080TIP3    H121311   6.032   1.010  15.375
18080TIP3    H221312   5.904   0.949  15.323
18081TIP3   OH221313   6.913   0.605  15.216
18081TIP3    H121314   7.005   0.572  15.223
18081TIP3    H221315   6.872   0.567  15.295
18082TIP3   OH221316   6.658   0.093  15.681
18082TIP3    H121317   6.682   0.185  15.656
18082TIP3    H221318   6.698   0.087  15.770
18083TIP3   OH221319   6.534   0.506  15.260
18083TIP3    H121320   6.596   0.514  15.185
18083TIP3    H221321   6.595   0.486  15.334
18084TIP3   OH221322   6.257   0.387  15.344
18084TIP3    H121323   6.340   0.399  15.295
18084TIP3    H221324   6.195   0.374  15.269
18085TIP3   OH221325   6.076   0.294  15.159
18085TIP3    H121326   6.087   0.201  15.132
18085TIP3    H221327   6.101   0.341  15.077
18086TIP3   OH221328   7.129   0.416  15.238
18086TIP3    H121329   7.139   0.340  15.299
18086TIP3    H221330   7.127   0.370  15.150
18087TIP3   OH221331   6.655   0.081  15.375
18087TIP3    H121332   6.567   0.041  15.372
18087TIP3    H221333   6.672   0.080  15.470
18088TIP3   OH221334   6.614   0.174  15.091
18088TIP3    H121335   6.658   0.164  15.178
18088TIP3    H221336   6.669   0.243  15.050
18089TIP3   OH221337   6.655   1.876  16.809
18089TIP3    H121338   6.571   1.925  16.802
18089TIP3    H221339   6.653   1.856  16.904
18090TIP3   OH221340   7.301   1.334  16.879
18090TIP3    H121341   7.205   1.349  16.875
18090TIP3    H221342   7.307   1.290  16.965
18091TIP3   OH221343   7.395   1.829  16.406
18091TIP3    H121344   7.480   1.785  16.428
18091TIP3    H221345   7.369   1.777  16.328
18092TIP3   OH221346   7.321   1.672  16.191
18092TIP3    H121347   7.383   1.629  16.130
18092TIP3    H221348   7.258   1.709  16.125
18093TIP3   OH221349   5.576   1.748  15.926
18093TIP3    H121350   5.558   1.759  15.831
18093TIP3    H221351   5.529   1.823  15.963
18094TIP3   OH221352   5.647   1.727  15.633
18094TIP3    H121353   5.677   1.645  15.677
18094TIP3    H221354   5.589   1.690  15.564
18095TIP3   OH221355   5.724   1.305  15.121
18095TIP3    H121356   5.744   1.209  15.123
18095TIP3    H221357   5.749   1.335  15.210
18096TIP3   OH221358   5.649   1.140  16.623
18096TIP3    H121359   5.563   1.182  16.603
18096TIP3    H221360   5.656   1.076  16.549
18097TIP3   OH221361   5.631   0.957  16.413
18097TIP3    H121362   5.699   0.909  16.360
18097TIP3    H221363   5.562   0.972  16.347
18098TIP3   OH221364   5.654   1.211  15.935
18098TIP3    H121365   5.581   1.149  15.956
18098TIP3    H221366   5.616   1.295  15.966
18099TIP3   OH221367   5.772   1.479  15.700
18099TIP3    H121368   5.838   1.526  15.645
18099TIP3    H221369   5.823   1.459  15.782
18100TIP3   OH221370   5.587   0.903  16.795
18100TIP3    H121371   5.658   0.918  16.860
18100TIP3    H221372   5.599   0.981  16.736
18101TIP3   OH221373   5.808   0.630  16.882
18101TIP3    H121374   5.743   0.669  16.943
18101TIP3    H221375   5.814   0.538  16.918
18102TIP3   OH221376   5.815   0.788  16.325
18102TIP3    H121377   5.830   0.696  16.353
18102TIP3    H221378   5.843   0.786  16.231
18103TIP3   OH221379   7.330   1.016  15.931
18103TIP3    H121380   7.321   0.993  16.026
18103TIP3    H221381   7.239   0.995  15.899
18104TIP3   OH221382   5.715   0.979  15.376
18104TIP3    H121383   5.664   0.894  15.377
18104TIP3    H221384   5.649   1.044  15.407
18105TIP3   OH221385   5.609   0.740  15.388
18105TIP3    H121386   5.701   0.708  15.372
18105TIP3    H221387   5.555   0.659  15.372
18106TIP3   OH221388   5.816   0.402  17.028
18106TIP3    H121389   5.749   0.341  16.993
18106TIP3    H221390   5.900   0.355  17.014
18107TIP3   OH221391   5.880   0.547  16.480
18107TIP3    H121392   5.848   0.458  16.456
18107TIP3    H221393   5.839   0.557  16.568
18108TIP3   OH221394   5.767   0.602  15.950
18108TIP3    H121395   5.670   0.620  15.945
18108TIP3    H221396   5.791   0.604  15.855
18109TIP3   OH221397   5.786   0.680  15.689
18109TIP3    H121398   5.875   0.707  15.657
18109TIP3    H221399   5.741   0.766  15.705
18110TIP3   OH221400   7.346   0.513  15.355
18110TIP3    H121401   7.271   0.499  15.293
18110TIP3    H221402   7.394   0.429  15.347
18111TIP3   OH221403   5.658   0.063  15.205
18111TIP3    H121404   5.589  -0.003  15.192
18111TIP3    H221405   5.609   0.129  15.257
18112TIP3   OH221406   5.793   0.282  16.478
18112TIP3    H121407   5.759   0.227  16.405
18112TIP3    H221408   5.850   0.219  16.529
18113TIP3   OH221409   7.238   0.364  16.020
18113TIP3    H121410   7.189   0.279  16.024
18113TIP3    H221411   7.163   0.425  16.003
18114TIP3   OH221412   7.395   0.642  15.914
18114TIP3    H121413   7.347   0.625  15.997
18114TIP3    H221414   7.347   0.717  15.878
18115TIP3   OH221415   5.603   0.308  15.386
18115TIP3    H121416   5.696   0.335  15.402
18115TIP3    H221417   5.606   0.222  15.431
18116TIP3   OH221418   5.620   0.288  16.855
18116TIP3    H121419   5.611   0.200  16.895
18116TIP3    H221420   5.539   0.331  16.887
18117TIP3   OH221421   7.395   0.235  16.553
18117TIP3    H121422   7.487   0.262  16.536
18117TIP3    H221423   7.365   0.308  16.613
18118TIP3   OH221424   5.909   1.780  16.332
18118TIP3    H121425   5.830   1.761  16.386
18118TIP3    H221426   5.872   1.831  16.257
18119TIP3   OH221427   7.359   0.146  15.713
18119TIP3    H121428   7.412   0.144  15.631
18119TIP3    H221429   7.408   0.206  15.771
18120TIP3   OH221430   7.130   1.453  15.285
18120TIP3    H121431   7.216   1.479  15.321
18120TIP3    H221432   7.132   1.355  15.294
18121TIP3   OH221433   6.861   1.608  15.645
18121TIP3    H121434   6.855   1.698  15.684
18121TIP3    H221435   6.767   1.582  15.652
18122TIP3   OH221436   6.449   1.718  15.380
18122TIP3    H121437   6.433   1.698  15.285
18122TIP3    H221438   6.362   1.756  15.405
18123TIP3   OH221439   6.233   1.879  15.439
18123TIP3    H121440   6.156   1.866  15.496
18123TIP3    H221441   6.192   1.906  15.354
18124TIP3   OH221442   5.692   0.104  15.548
18124TIP3    H121443   5.765   0.146  15.598
18124TIP3    H221444   5.691   0.015  15.590
18125TIP3   OH221445   7.111   1.903  15.667
18125TIP3    H121446   7.191   1.956  15.687
18125TIP3    H221447   7.120   1.887  15.572
18126TIP3   OH221448   6.876   1.847  15.774
18126TIP3    H121449   6.966   1.867  15.741
18126TIP3    H221450   6.874   1.909  15.850
18127TIP3   OH221451   6.421   1.801  15.826
18127TIP3    H121452   6.477   1.833  15.897
18127TIP3    H221453   6.405   1.882  15.774
18128TIP3   OH221454   6.205   1.678  15.704
18128TIP3    H121455   6.273   1.721  15.760
18128TIP3    H221456   6.130   1.738  15.723
18129TIP3   OH221457   5.959   1.848  15.739
18129TIP3    H121458   5.940   1.937  15.777
18129TIP3    H221459   5.923   1.793  15.812
18130TIP3   OH221460   7.160   1.739  15.978
18130TIP3    H121461   7.179   1.680  15.902
18130TIP3    H221462   7.071   1.708  16.006
18131TIP3   OH221463   6.946   1.639  16.100
18131TIP3    H121464   6.962   1.547  16.071
18131TIP3    H221465   6.858   1.654  16.059
18132TIP3   OH221466   6.712   1.634  15.971
18132TIP3    H121467   6.685   1.542  15.988
18132TIP3    H221468   6.699   1.637  15.874
18133TIP3   OH221469   6.347   0.264  16.078
18133TIP3    H121470   6.424   0.205  16.077
18133TIP3    H221471   6.287   0.213  16.135
18134TIP3   OH221472   5.871   0.063  16.120
18134TIP3    H121473   5.802   0.112  16.170
18134TIP3    H221474   5.949   0.119  16.136
18135TIP3   OH221475   5.655   0.154  16.283
18135TIP3    H121476   5.606   0.090  16.338
18135TIP3    H221477   5.596   0.233  16.279
18136TIP3   OH221478   7.126   0.110  16.334
18136TIP3    H121479   7.197   0.096  16.399
18136TIP3    H221480   7.081   0.023  16.341
18137TIP3   OH221481   7.247   0.101  16.766
18137TIP3    H121482   7.208   0.181  16.807
18137TIP3    H221483   7.303   0.140  16.696
18138TIP3   OH221484   6.711   0.088  16.298
18138TIP3    H121485   6.627   0.114  16.342
18138TIP3    H221486   6.687   0.097  16.204
18139TIP3   OH221487   6.147   0.107  16.225
18139TIP3    H121488   6.150   0.074  16.317
18139TIP3    H221489   6.169   0.031  16.169
18140TIP3   OH221490   5.972   0.120  16.614
18140TIP3    H121491   6.053   0.167  16.641
18140TIP3    H221492   6.013   0.046  16.565
18141TIP3   OH221493   7.250   1.679  16.655
18141TIP3    H121494   7.339   1.675  16.695
18141TIP3    H221495   7.235   1.774  16.670
18142TIP3   OH221496   7.111   0.282  16.906
18142TIP3    H121497   7.049   0.238  16.965
18142TIP3    H221498   7.048   0.330  16.850
18143TIP3   OH221499   6.578   0.301  16.631
18143TIP3    H121500   6.513   0.245  16.584
18143TIP3    H221501   6.563   0.385  16.584
18144TIP3   OH221502   6.368   1.880  16.836
18144TIP3    H121503   6.281   1.899  16.877
18144TIP3    H221504   6.367   1.783  16.849
18145TIP3   OH221505   5.719   1.724  16.509
18145TIP3    H121506   5.740   1.653  16.575
18145TIP3    H221507   5.721   1.802  16.568
18146TIP3   OH221508   7.199   0.166  15.374
18146TIP3    H121509   7.246   0.080  15.372
18146TIP3    H221510   7.109   0.134  15.350
18147TIP3   OH221511   6.980   0.045  15.267
18147TIP3    H121512   6.887   0.048  15.239
18147TIP3    H221513   7.022  -0.021  15.207
18148TIP3   OH221514   7.070   1.779  16.945
18148TIP3    H121515   7.133   1.821  16.884
18148TIP3    H221516   7.048   1.696  16.900
18149TIP3   OH221517   6.029   9.367  15.127
18149TIP3    H121518   6.075   9.282  15.131
18149TIP3    H221519   5.957   9.356  15.192
18150TIP3   OH221520   5.770   1.591  15.342
18150TIP3    H121521   5.819   1.619  15.422
18150TIP3    H221522   5.800   1.659  15.278
18151TIP3   OH221523   4.301   1.025  16.332
18151TIP3    H121524   4.315   1.122  16.324
18151TIP3    H221525   4.380   1.000  16.383
18152TIP3   OH221526   4.428   0.885  16.008
18152TIP3    H121527   4.440   0.863  15.913
18152TIP3    H221528   4.506   0.847  16.052
18153TIP3   OH221529   5.242   0.889  15.836
18153TIP3    H121530   5.226   0.814  15.774
18153TIP3    H221531   5.150   0.914  15.858
18154TIP3   OH221532   4.122   1.227  16.122
18154TIP3    H121533   4.140   1.149  16.068
18154TIP3    H221534   4.100   1.293  16.055
18155TIP3   OH221535   5.127   1.358  16.002
18155TIP3    H121536   5.166   1.273  16.030
18155TIP3    H221537   5.034   1.343  16.027
18156TIP3   OH221538   5.442   0.679  16.448
18156TIP3    H121539   5.475   0.759  16.408
18156TIP3    H221540   5.515   0.657  16.509
18157TIP3   OH221541   5.412   0.937  16.192
18157TIP3    H121542   5.386   0.843  16.182
18157TIP3    H221543   5.327   0.985  16.200
18158TIP3   OH221544   4.364   1.767  16.163
18158TIP3    H121545   4.303   1.707  16.211
18158TIP3    H221546   4.384   1.710  16.088
18159TIP3   OH221547   4.639   1.166  15.894
18159TIP3    H121548   4.603   1.160  15.983
18159TIP3    H221549   4.557   1.179  15.842
18160TIP3   OH221550   3.755   0.299  15.868
18160TIP3    H121551   3.754   0.369  15.800
18160TIP3    H221552   3.681   0.330  15.923
18161TIP3   OH221553   4.251   0.624  15.889
18161TIP3    H121554   4.246   0.528  15.882
18161TIP3    H221555   4.275   0.633  15.983
18162TIP3   OH221556   4.956   0.413  16.215
18162TIP3    H121557   4.946   0.497  16.264
18162TIP3    H221558   5.011   0.362  16.277
18163TIP3   OH221559   4.221   0.428  16.339
18163TIP3    H121560   4.166   0.386  16.269
18163TIP3    H221561   4.160   0.496  16.370
18164TIP3   OH221562   5.351   0.672  16.127
18164TIP3    H121563   5.274   0.650  16.073
18164TIP3    H221564   5.324   0.629  16.210
18165TIP3   OH221565   4.846   0.824  16.167
18165TIP3    H121566   4.760   0.784  16.143
18165TIP3    H221567   4.876   0.760  16.235
18166TIP3   OH221568   3.720   0.468  15.653
18166TIP3    H121569   3.765   0.549  15.688
18166TIP3    H221570   3.727   0.483  15.557
18167TIP3   OH221571   5.061   0.331  15.803
18167TIP3    H121572   5.100   0.380  15.879
18167TIP3    H221573   5.129   0.348  15.735
18168TIP3   OH221574   4.397   1.258  16.435
18168TIP3    H121575   4.415   1.264  16.530
18168TIP3    H221576   4.427   1.347  16.405
18169TIP3   OH221577   4.878   1.085  15.799
18169TIP3    H121578   4.929   1.163  15.768
18169TIP3    H221579   4.794   1.127  15.830
18170TIP3   OH221580   4.043   0.368  16.139
18170TIP3    H121581   4.106   0.340  16.070
18170TIP3    H221582   3.967   0.396  16.085
18171TIP3   OH221583   5.116   0.518  16.001
18171TIP3    H121584   5.042   0.566  15.958
18171TIP3    H221585   5.071   0.482  16.081
18172TIP3   OH221586   4.994   1.306  15.710
18172TIP3    H121587   5.018   1.359  15.788
18172TIP3    H221588   5.082   1.304  15.666
18173TIP3   OH221589   5.398   1.247  16.610
18173TIP3    H121590   5.399   1.297  16.695
18173TIP3    H221591   5.394   1.320  16.544
18174TIP3   OH221592   4.037   1.422  15.939
18174TIP3    H121593   4.130   1.448  15.924
18174TIP3    H221594   4.006   1.505  15.980
18175TIP3   OH221595   3.973   0.212  15.739
18175TIP3    H121596   4.040   0.265  15.785
18175TIP3    H221597   3.897   0.224  15.801
18176TIP3   OH221598   4.691   0.105  16.058
18176TIP3    H121599   4.642   0.029  16.026
18176TIP3    H221600   4.777   0.095  16.009
18177TIP3   OH221601   4.196   1.595  16.284
18177TIP3    H121602   4.168   1.514  16.329
18177TIP3    H221603   4.120   1.655  16.306
18178TIP3   OH221604   4.077   1.373  16.430
18178TIP3    H121605   4.101   1.301  16.491
18178TIP3    H221606   4.101   1.334  16.345
18179TIP3   OH221607   3.941   1.237  15.537
18179TIP3    H121608   3.937   1.166  15.606
18179TIP3    H221609   3.925   1.314  15.595
18180TIP3   OH221610   4.481   0.928  16.595
18180TIP3    H121611   4.542   1.004  16.608
18180TIP3    H221612   4.399   0.959  16.637
18181TIP3   OH221613   4.486   0.848  16.865
18181TIP3    H121614   4.421   0.862  16.793
18181TIP3    H221615   4.440   0.784  16.920
18182TIP3   OH221616   3.730   0.899  15.744
18182TIP3    H121617   3.802   0.960  15.769
18182TIP3    H221618   3.667   0.921  15.816
18183TIP3   OH221619   4.094   0.920  16.490
18183TIP3    H121620   4.159   0.959  16.427
18183TIP3    H221621   4.029   0.885  16.425
18184TIP3   OH221622   4.118   0.766  15.560
18184TIP3    H121623   4.125   0.854  15.517
18184TIP3    H221624   4.185   0.779  15.630
18185TIP3   OH221625   4.982   1.014  16.309
18185TIP3    H121626   4.994   0.970  16.396
18185TIP3    H221627   4.927   0.949  16.261
18186TIP3   OH221628   4.824   1.342  16.025
18186TIP3    H121629   4.803   1.329  16.118
18186TIP3    H221630   4.758   1.288  15.977
18187TIP3   OH221631   4.984   0.898  15.941
18187TIP3    H121632   4.934   0.883  16.024
18187TIP3    H221633   4.923   0.959  15.893
18188TIP3   OH221634   4.295   1.461  15.879
18188TIP3    H121635   4.335   1.513  15.808
18188TIP3    H221636   4.293   1.372  15.840
18189TIP3   OH221637   4.829   1.347  15.494
18189TIP3    H121638   4.900   1.391  15.444
18189TIP3    H221639   4.873   1.339  15.581
18190TIP3   OH221640   4.247   0.871  16.712
18190TIP3    H121641   4.193   0.886  16.631
18190TIP3    H221642   4.199   0.927  16.776
18191TIP3   OH221643   5.122   0.919  15.554
18191TIP3    H121644   5.104   1.014  15.557
18191TIP3    H221645   5.214   0.918  15.521
18192TIP3   OH221646   4.462   1.507  16.355
18192TIP3    H121647   4.441   1.561  16.277
18192TIP3    H221648   4.513   1.567  16.409
18193TIP3   OH221649   5.025   1.500  15.394
18193TIP3    H121650   5.038   1.545  15.480
18193TIP3    H221651   5.116   1.474  15.372
18194TIP3   OH221652   3.848   0.061  16.700
18194TIP3    H121653   3.945   0.059  16.680
18194TIP3    H221654   3.836   0.154  16.728
18195TIP3   OH221655   5.083   0.914  16.551
18195TIP3    H121656   5.121   0.998  16.584
18195TIP3    H221657   5.152   0.850  16.572
18196TIP3   OH221658   3.768   1.475  16.912
18196TIP3    H121659   3.735   1.567  16.905
18196TIP3    H221660   3.682   1.428  16.904
18197TIP3   OH221661   5.455   1.169  15.639
18197TIP3    H121662   5.495   1.163  15.727
18197TIP3    H221663   5.408   1.083  15.637
18198TIP3   OH221664   5.471   1.430  15.962
18198TIP3    H121665   5.382   1.396  15.950
18198TIP3    H221666   5.460   1.522  15.939
18199TIP3   OH221667   3.673   1.511  15.384
18199TIP3    H121668   3.681   1.416  15.396
18199TIP3    H221669   3.761   1.533  15.345
18200TIP3   OH221670   4.576   1.449  15.488
18200TIP3    H121671   4.570   1.528  15.431
18200TIP3    H221672   4.672   1.423  15.483
18201TIP3   OH221673   4.506   1.832  16.575
18201TIP3    H121674   4.499   1.865  16.668
18201TIP3    H221675   4.513   1.917  16.526
18202TIP3   OH221676   5.152   1.699  16.348
18202TIP3    H121677   5.131   1.672  16.256
18202TIP3    H221678   5.242   1.665  16.361
18203TIP3   OH221679   4.219   1.775  16.853
18203TIP3    H121680   4.164   1.701  16.886
18203TIP3    H221681   4.211   1.764  16.757
18204TIP3   OH221682   4.242   1.762  16.570
18204TIP3    H121683   4.340   1.771  16.568
18204TIP3    H221684   4.229   1.684  16.514
18205TIP3   OH221685   3.972   0.648  15.358
18205TIP3    H121686   4.036   0.685  15.421
18205TIP3    H221687   3.965   0.555  15.385
18206TIP3   OH221688   5.229   1.303  15.587
18206TIP3    H121689   5.221   1.286  15.491
18206TIP3    H221690   5.313   1.257  15.607
18207TIP3   OH221691   4.929   0.122  15.936
18207TIP3    H121692   5.000   0.114  16.003
18207TIP3    H221693   4.972   0.190  15.880
18208TIP3   OH221694   4.479   0.104  15.668
18208TIP3    H121695   4.468   0.101  15.572
18208TIP3    H221696   4.576   0.113  15.675
18209TIP3   OH221697   4.197   0.496  15.566
18209TIP3    H121698   4.257   0.488  15.488
18209TIP3    H221699   4.166   0.588  15.563
18210TIP3   OH221700   4.124   1.011  16.905
18210TIP3    H121701   4.124   1.040  16.997
18210TIP3    H221702   4.041   1.055  16.875
18211TIP3   OH221703   4.507   0.329  16.906
18211TIP3    H121704   4.573   0.332  16.835
18211TIP3    H221705   4.478   0.236  16.898
18212TIP3   OH221706   4.950   0.657  15.828
18212TIP3    H121707   5.032   0.637  15.780
18212TIP3    H221708   4.972   0.747  15.862
18213TIP3   OH221709   4.948   0.636  16.357
18213TIP3    H121710   5.045   0.625  16.366
18213TIP3    H221711   4.916   0.614  16.447
18214TIP3   OH221712   4.396   0.718  16.458
18214TIP3    H121713   4.430   0.799  16.503
18214TIP3    H221714   4.335   0.683  16.525
18215TIP3   OH221715   4.492   0.774  15.361
18215TIP3    H121716   4.536   0.689  15.340
18215TIP3    H221717   4.442   0.783  15.278
18216TIP3   OH221718   4.289   0.680  16.165
18216TIP3    H121719   4.315   0.763  16.211
18216TIP3    H221720   4.297   0.618  16.239
18217TIP3   OH221721   5.191   0.642  15.710
18217TIP3    H121722   5.166   0.672  15.621
18217TIP3    H221723   5.244   0.562  15.692
18218TIP3   OH221724   4.854   0.431  16.945
18218TIP3    H121725   4.900   0.389  16.869
18218TIP3    H221726   4.884   0.524  16.942
18219TIP3   OH221727   5.519   0.388  16.258
18219TIP3    H121728   5.457   0.390  16.181
18219TIP3    H221729   5.462   0.401  16.334
18220TIP3   OH221730   5.396   0.431  16.684
18220TIP3    H121731   5.348   0.465  16.762
18220TIP3    H221732   5.443   0.510  16.651
18221TIP3   OH221733   4.382   0.843  15.739
18221TIP3    H121734   4.336   0.769  15.784
18221TIP3    H221735   4.437   0.793  15.675
18222TIP3   OH221736   4.661   0.387  16.250
18222TIP3    H121737   4.758   0.371  16.254
18222TIP3    H221738   4.645   0.371  16.155
18223TIP3   OH221739   5.220   0.569  16.358
18223TIP3    H121740   5.300   0.600  16.407
18223TIP3    H221741   5.191   0.493  16.413
18224TIP3   OH221742   4.877   0.587  16.620
18224TIP3    H121743   4.786   0.604  16.592
18224TIP3    H221744   4.892   0.648  16.696
18225TIP3   OH221745   4.225   0.315  15.937
18225TIP3    H121746   4.276   0.317  15.854
18225TIP3    H221747   4.295   0.288  16.000
18226TIP3   OH221748   4.974   0.704  16.859
18226TIP3    H121749   5.036   0.705  16.933
18226TIP3    H221750   4.892   0.739  16.901
18227TIP3   OH221751   3.966   1.896  15.269
18227TIP3    H121752   3.938   1.951  15.343
18227TIP3    H221753   3.883   1.901  15.215
18228TIP3   OH221754   5.185   1.162  15.340
18228TIP3    H121755   5.110   1.162  15.277
18228TIP3    H221756   5.250   1.111  15.290
18229TIP3   OH221757   4.619   0.679  16.075
18229TIP3    H121758   4.534   0.636  16.094
18229TIP3    H221759   4.662   0.614  16.018
18230TIP3   OH221760   5.110   0.322  16.416
18230TIP3    H121761   5.165   0.255  16.367
18230TIP3    H221762   5.060   0.265  16.476
18231TIP3   OH221763   4.740   0.496  15.820
18231TIP3    H121764   4.811   0.564  15.816
18231TIP3    H221765   4.664   0.544  15.784
18232TIP3   OH221766   4.644   1.139  16.608
18232TIP3    H121767   4.717   1.084  16.644
18232TIP3    H221768   4.686   1.171  16.524
18233TIP3   OH221769   3.917   1.110  15.767
18233TIP3    H121770   3.860   1.173  15.818
18233TIP3    H221771   3.988   1.093  15.831
18234TIP3   OH221772   4.253   0.428  16.852
18234TIP3    H121773   4.345   0.441  16.883
18234TIP3    H221774   4.238   0.501  16.790
18235TIP3   OH221775   4.540   1.188  15.521
18235TIP3    H121776   4.579   1.161  15.437
18235TIP3    H221777   4.546   1.285  15.515
18236TIP3   OH221778   4.216   0.606  16.633
18236TIP3    H121779   4.139   0.609  16.573
18236TIP3    H221780   4.199   0.686  16.686
18237TIP3   OH221781   5.147   1.095  16.088
18237TIP3    H121782   5.093   1.086  16.170
18237TIP3    H221783   5.107   1.026  16.031
18238TIP3   OH221784   4.442   1.265  16.720
18238TIP3    H121785   4.486   1.351  16.702
18238TIP3    H221786   4.512   1.203  16.691
18239TIP3   OH221787   5.441   0.901  15.554
18239TIP3    H121788   5.473   0.842  15.483
18239TIP3    H221789   5.503   0.879  15.627
18240TIP3   OH221790   4.745   0.886  15.364
18240TIP3    H121791   4.786   0.824  15.427
18240TIP3    H221792   4.651   0.860  15.369
18241TIP3   OH221793   4.248   1.402  15.515
18241TIP3    H121794   4.337   1.414  15.550
18241TIP3    H221795   4.256   1.449  15.430
18242TIP3   OH221796   3.725   0.645  16.664
18242TIP3    H121797   3.779   0.620  16.742
18242TIP3    H221798   3.708   0.739  16.687
18243TIP3   OH221799   3.698   1.200  15.410
18243TIP3    H121800   3.784   1.222  15.452
18243TIP3    H221801   3.639   1.192  15.489
18244TIP3   OH221802   3.905   1.524  16.678
18244TIP3    H121803   3.916   1.438  16.636
18244TIP3    H221804   3.861   1.507  16.763
18245TIP3   OH221805   4.158   0.999  15.950
18245TIP3    H121806   4.250   0.974  15.967
18245TIP3    H221807   4.112   0.929  16.001
18246TIP3   OH221808   4.900   1.445  16.340
18246TIP3    H121809   4.869   1.533  16.370
18246TIP3    H221810   4.987   1.441  16.381
18247TIP3   OH221811   5.306   0.939  16.895
18247TIP3    H121812   5.263   0.994  16.825
18247TIP3    H221813   5.396   0.925  16.859
18248TIP3   OH221814   4.772   1.209  16.377
18248TIP3    H121815   4.818   1.296  16.368
18248TIP3    H221816   4.829   1.149  16.327
18249TIP3   OH221817   4.705   1.620  15.698
18249TIP3    H121818   4.645   1.689  15.730
18249TIP3    H221819   4.649   1.577  15.630
18250TIP3   OH221820   4.892   1.695  16.439
18250TIP3    H121821   4.986   1.697  16.414
18250TIP3    H221822   4.862   1.780  16.400
18251TIP3   OH221823   4.405   1.191  15.764
18251TIP3    H121824   4.438   1.176  15.672
18251TIP3    H221825   4.363   1.105  15.784
18252TIP3   OH221826   4.129   1.324  16.834
18252TIP3    H121827   4.101   1.276  16.752
18252TIP3    H221828   4.222   1.296  16.836
18253TIP3   OH221829   4.074   1.640  15.542
18253TIP3    H121830   4.166   1.608  15.553
18253TIP3    H221831   4.067   1.708  15.613
18254TIP3   OH221832   3.691   1.749  16.829
18254TIP3    H121833   3.646   1.819  16.880
18254TIP3    H221834   3.755   1.805  16.780
18255TIP3   OH221835   5.280   0.369  15.612
18255TIP3    H121836   5.298   0.415  15.528
18255TIP3    H221837   5.311   0.279  15.589
18256TIP3   OH221838   4.045   1.163  16.622
18256TIP3    H121839   4.057   1.076  16.580
18256TIP3    H221840   3.948   1.177  16.612
18257TIP3   OH221841   5.297   1.587  15.747
18257TIP3    H121842   5.241   1.508  15.748
18257TIP3    H221843   5.277   1.621  15.658
18258TIP3   OH221844   4.846   1.373  16.759
18258TIP3    H121845   4.781   1.326  16.705
18258TIP3    H221846   4.823   1.467  16.742
18259TIP3   OH221847   5.195   1.113  16.722
18259TIP3    H121848   5.267   1.159  16.674
18259TIP3    H221849   5.145   1.188  16.760
18260TIP3   OH221850   4.419   0.372  15.670
18260TIP3    H121851   4.351   0.379  15.600
18260TIP3    H221852   4.448   0.280  15.661
18261TIP3   OH221853   4.315   0.293  16.564
18261TIP3    H121854   4.300   0.344  16.646
18261TIP3    H221855   4.274   0.354  16.499
18262TIP3   OH221856   4.543   1.510  16.672
18262TIP3    H121857   4.610   1.578  16.654
18262TIP3    H221858   4.494   1.553  16.746
18263TIP3   OH221859   4.621   0.544  16.469
18263TIP3    H121860   4.542   0.603  16.470
18263TIP3    H221861   4.616   0.501  16.381
18264TIP3   OH221862   4.522   0.647  15.598
18264TIP3    H121863   4.520   0.689  15.510
18264TIP3    H221864   4.491   0.555  15.585
18265TIP3   OH221865   4.536   0.173  16.388
18265TIP3    H121866   4.571   0.256  16.352
18265TIP3    H221867   4.456   0.203  16.434
18266TIP3   OH221868   4.815   1.637  16.698
18266TIP3    H121869   4.786   1.723  16.735
18266TIP3    H221870   4.853   1.668  16.612
18267TIP3   OH221871   4.984   0.340  16.723
18267TIP3    H121872   4.982   0.428  16.680
18267TIP3    H221873   4.897   0.306  16.691
18268TIP3   OH221874   3.960   0.404  15.474
18268TIP3    H121875   4.057   0.415  15.485
18268TIP3    H221876   3.935   0.378  15.564
18269TIP3   OH221877   4.047   0.775  16.081
18269TIP3    H121878   4.130   0.724  16.087
18269TIP3    H221879   3.986   0.711  16.037
18270TIP3   OH221880   5.115   1.359  16.845
18270TIP3    H121881   5.030   1.387  16.806
18270TIP3    H221882   5.081   1.310  16.922
18271TIP3   OH221883   5.302   0.656  16.930
18271TIP3    H121884   5.280   0.747  16.905
18271TIP3    H221885   5.387   0.667  16.975
18272TIP3   OH221886   3.961   1.688  15.933
18272TIP3    H121887   3.951   1.754  16.004
18272TIP3    H221888   3.866   1.673  15.915
18273TIP3   OH221889   5.176   0.149  16.053
18273TIP3    H121890   5.204   0.132  16.145
18273TIP3    H221891   5.220   0.073  16.007
18274TIP3   OH221892   5.376   1.490  16.456
18274TIP3    H121893   5.444   1.544  16.413
18274TIP3    H221894   5.350   1.552  16.528
18275TIP3   OH221895   5.386   1.738  15.357
18275TIP3    H121896   5.363   1.722  15.264
18275TIP3    H221897   5.440   1.659  15.378
18276TIP3   OH221898   4.999   1.666  15.180
18276TIP3    H121899   4.908   1.643  15.158
18276TIP3    H221900   5.013   1.615  15.263
18277TIP3   OH221901   4.450   1.624  16.903
18277TIP3    H121902   4.508   1.568  16.958
18277TIP3    H221903   4.380   1.646  16.967
18278TIP3   OH221904   4.296   1.533  15.279
18278TIP3    H121905   4.336   1.450  15.243
18278TIP3    H221906   4.220   1.540  15.217
18279TIP3   OH221907   4.030   1.578  16.985
18279TIP3    H121908   4.070   1.505  16.934
18279TIP3    H221909   3.937   1.556  16.967
18280TIP3   OH221910   5.434   1.115  15.184
18280TIP3    H121911   5.428   1.018  15.202
18280TIP3    H221912   5.464   1.154  15.270
18281TIP3   OH221913   4.957   1.143  16.985
18281TIP3    H121914   4.897   1.153  16.910
18281TIP3    H221915   4.897   1.104  17.052
18282TIP3   OH221916   4.757   1.151  15.326
18282TIP3    H121917   4.795   1.209  15.395
18282TIP3    H221918   4.768   1.059  15.360
18283TIP3   OH221919   4.185   1.122  15.504
18283TIP3    H121920   4.096   1.165  15.497
18283TIP3    H221921   4.236   1.205  15.509
18284TIP3   OH221922   5.331   0.850  15.242
18284TIP3    H121923   5.319   0.783  15.311
18284TIP3    H221924   5.308   0.797  15.163
18285TIP3   OH221925   4.838   0.993  16.743
18285TIP3    H121926   4.914   0.944  16.706
18285TIP3    H221927   4.801   0.929  16.806
18286TIP3   OH221928   4.929   0.732  15.542
18286TIP3    H121929   5.002   0.790  15.514
18286TIP3    H221930   4.884   0.791  15.606
18287TIP3   OH221931   4.734   0.800  16.946
18287TIP3    H121932   4.705   0.827  17.035
18287TIP3    H221933   4.648   0.806  16.898
18288TIP3   OH221934   4.406   1.063  15.178
18288TIP3    H121935   4.339   1.025  15.236
18288TIP3    H221936   4.456   0.984  15.151
18289TIP3   OH221937   3.845   1.081   8.525
18289TIP3    H121938   3.909   1.102   8.596
18289TIP3    H221939   3.817   1.169   8.497
18290TIP3   OH221940   4.873   0.497  15.440
18290TIP3    H121941   4.862   0.435  15.516
18290TIP3    H221942   4.900   0.580  15.487
18291TIP3   OH221943   4.851   0.331  15.645
18291TIP3    H121944   4.808   0.388  15.714
18291TIP3    H221945   4.940   0.318  15.685
18292TIP3   OH221946   4.725   0.915  15.658
18292TIP3    H121947   4.636   0.945  15.681
18292TIP3    H221948   4.782   0.988  15.692
18293TIP3   OH221949   4.243   0.617  15.176
18293TIP3    H121950   4.192   0.534  15.174
18293TIP3    H221951   4.179   0.681  15.141
18294TIP3   OH221952   4.109   0.963  15.289
18294TIP3    H121953   4.146   1.013  15.364
18294TIP3    H221954   4.016   0.953  15.320
18295TIP3   OH221955   5.040   0.630  15.236
18295TIP3    H121956   5.112   0.565  15.228
18295TIP3    H221957   4.972   0.581  15.284
18296TIP3   OH221958   4.754   0.094  15.666
18296TIP3    H121959   4.774   0.190  15.651
18296TIP3    H221960   4.841   0.067  15.700
18297TIP3   OH221961   4.623   0.527  15.286
18297TIP3    H121962   4.649   0.494  15.198
18297TIP3    H221963   4.696   0.487  15.339
18298TIP3   OH221964   4.372   0.429  15.366
18298TIP3    H121965   4.464   0.448  15.339
18298TIP3    H221966   4.327   0.422  15.280
18299TIP3   OH221967   4.185   0.299  15.184
18299TIP3    H121968   4.210   0.205  15.181
18299TIP3    H221969   4.218   0.335  15.099
18300TIP3   OH221970   5.230   0.407  15.235
18300TIP3    H121971   5.235   0.334  15.300
18300TIP3    H221972   5.243   0.361  15.150
18301TIP3   OH221973   4.798   9.359  15.391
18301TIP3    H121974   4.718   9.311  15.364
18301TIP3    H221975   4.769   9.398  15.475
18302TIP3   OH221976   4.755   0.283  15.180
18302TIP3    H121977   4.752   0.188  15.193
18302TIP3    H221978   4.777   0.293  15.087
18303TIP3   OH221979   4.767   1.881  16.812
18303TIP3    H121980   4.684   1.929  16.798
18303TIP3    H221981   4.756   1.855  16.905
18304TIP3   OH221982   5.417   1.330  16.882
18304TIP3    H121983   5.321   1.343  16.873
18304TIP3    H221984   5.420   1.290  16.970
18305TIP3   OH221985   5.508   1.837  16.397
18305TIP3    H121986   5.590   1.791  16.429
18305TIP3    H221987   5.483   1.777  16.325
18306TIP3   OH221988   5.436   1.674  16.191
18306TIP3    H121989   5.496   1.616  16.140
18306TIP3    H221990   5.378   1.706  16.119
18307TIP3   OH221991   3.680   1.756  15.932
18307TIP3    H121992   3.653   1.772  15.840
18307TIP3    H221993   3.648   1.836  15.976
18308TIP3   OH221994   3.738   1.702  15.612
18308TIP3    H121995   3.785   1.635  15.666
18308TIP3    H221996   3.701   1.644  15.543
18309TIP3   OH221997   3.852   1.291  15.126
18309TIP3    H121998   3.937   1.295  15.077
18309TIP3    H221999   3.858   1.366  15.186
18310TIP3   OH222000   3.767   1.135  16.622
18310TIP3    H122001   3.680   1.178  16.609
18310TIP3    H222002   3.768   1.072  16.546
18311TIP3   OH222003   3.732   0.948  16.427
18311TIP3    H122004   3.803   0.900  16.379
18311TIP3    H222005   3.672   0.974  16.354
18312TIP3   OH222006   3.746   1.223  15.925
18312TIP3    H122007   3.687   1.150  15.953
18312TIP3    H222008   3.698   1.301  15.959
18313TIP3   OH222009   3.893   1.478  15.694
18313TIP3    H122010   3.968   1.513  15.643
18313TIP3    H222011   3.936   1.453  15.779
18314TIP3   OH222012   3.713   0.895  16.788
18314TIP3    H122013   3.770   0.914  16.865
18314TIP3    H222014   3.722   0.976  16.735
18315TIP3   OH222015   3.932   0.626  16.883
18315TIP3    H122016   3.862   0.668  16.935
18315TIP3    H222017   3.932   0.534  16.920
18316TIP3   OH222018   3.918   0.800  16.314
18316TIP3    H122019   3.938   0.710  16.346
18316TIP3    H222020   3.952   0.793  16.222
18317TIP3   OH222021   5.451   1.028  15.935
18317TIP3    H122022   5.451   0.998  16.029
18317TIP3    H222023   5.365   0.989  15.907
18318TIP3   OH222024   3.853   0.968  15.391
18318TIP3    H122025   3.803   0.883  15.381
18318TIP3    H222026   3.783   1.030  15.418
18319TIP3   OH222027   3.720   0.746  15.361
18319TIP3    H122028   3.809   0.710  15.335
18319TIP3    H222029   3.663   0.666  15.352
18320TIP3   OH222030   3.931   0.396  17.024
18320TIP3    H122031   3.875   0.334  16.972
18320TIP3    H222032   4.020   0.360  17.015
18321TIP3   OH222033   3.990   0.559  16.486
18321TIP3    H122034   3.963   0.466  16.467
18321TIP3    H222035   3.934   0.575  16.564
18322TIP3   OH222036   3.878   0.603  15.958
18322TIP3    H122037   3.779   0.607  15.952
18322TIP3    H222038   3.897   0.636  15.868
18323TIP3   OH222039   3.891   0.676  15.707
18323TIP3    H122040   3.979   0.700  15.672
18323TIP3    H222041   3.844   0.762  15.698
18324TIP3   OH222042   5.458   0.526  15.348
18324TIP3    H122043   5.377   0.501  15.301
18324TIP3    H222044   5.503   0.439  15.354
18325TIP3   OH222045   3.787   0.067  15.160
18325TIP3    H122046   3.709   0.026  15.200
18325TIP3    H222047   3.752   0.148  15.120
18326TIP3   OH222048   3.913   0.289  16.479
18326TIP3    H122049   3.876   0.239  16.403
18326TIP3    H222050   3.966   0.221  16.527
18327TIP3   OH222051   5.350   0.351  16.040
18327TIP3    H122052   5.294   0.271  16.030
18327TIP3    H222053   5.284   0.420  16.024
18328TIP3   OH222054   5.512   0.644  15.920
18328TIP3    H122055   5.470   0.627  16.006
18328TIP3    H222056   5.461   0.720  15.890
18329TIP3   OH222057   3.735   0.313  15.367
18329TIP3    H122058   3.829   0.335  15.388
18329TIP3    H222059   3.734   0.222  15.400
18330TIP3   OH222060   3.754   0.284  16.840
18330TIP3    H122061   3.725   0.205  16.888
18330TIP3    H222062   3.674   0.337  16.837
18331TIP3   OH222063   5.511   0.237  16.543
18331TIP3    H122064   5.603   0.269  16.535
18331TIP3    H222065   5.473   0.305  16.603
18332TIP3   OH222066   4.019   1.782  16.328
18332TIP3    H122067   3.950   1.759  16.393
18332TIP3    H222068   3.970   1.835  16.262
18333TIP3   OH222069   5.473   0.137  15.712
18333TIP3    H122070   5.532   0.113  15.638
18333TIP3    H222071   5.525   0.207  15.755
18334TIP3   OH222072   5.276   1.444  15.313
18334TIP3    H122073   5.363   1.477  15.341
18334TIP3    H222074   5.292   1.409  15.224
18335TIP3   OH222075   4.974   1.611  15.644
18335TIP3    H122076   4.970   1.702  15.679
18335TIP3    H222077   4.880   1.585  15.652
18336TIP3   OH222078   4.571   1.716  15.398
18336TIP3    H122079   4.572   1.710  15.301
18336TIP3    H222080   4.480   1.751  15.414
18337TIP3   OH222081   4.345   1.849  15.444
18337TIP3    H122082   4.267   1.840  15.501
18337TIP3    H222083   4.310   1.894  15.365
18338TIP3   OH222084   3.825   0.097  15.545
18338TIP3    H122085   3.889   0.150  15.596
18338TIP3    H222086   3.819   0.015  15.599
18339TIP3   OH222087   5.234   1.902  15.678
18339TIP3    H122088   5.308   1.963  15.693
18339TIP3    H222089   5.236   1.891  15.582
18340TIP3   OH222090   4.991   1.857  15.767
18340TIP3    H122091   5.086   1.873  15.745
18340TIP3    H222092   4.980   1.918  15.842
18341TIP3   OH222093   4.538   1.816  15.839
18341TIP3    H122094   4.616   1.858  15.877
18341TIP3    H222095   4.509   1.887  15.777
18342TIP3   OH222096   4.312   1.681  15.709
18342TIP3    H122097   4.377   1.727  15.766
18342TIP3    H222098   4.232   1.732  15.734
18343TIP3   OH222099   4.059   1.834  15.732
18343TIP3    H122100   4.038   1.926  15.757
18343TIP3    H222101   4.030   1.790  15.815
18344TIP3   OH222102   5.273   1.748  15.980
18344TIP3    H122103   5.297   1.704  15.895
18344TIP3    H222104   5.186   1.706  16.001
18345TIP3   OH222105   5.062   1.636  16.099
18345TIP3    H122106   5.075   1.542  16.077
18345TIP3    H222107   4.975   1.652  16.056
18346TIP3   OH222108   4.833   1.638  15.962
18346TIP3    H122109   4.795   1.550  15.977
18346TIP3    H222110   4.816   1.650  15.866
18347TIP3   OH222111   4.469   0.284  16.073
18347TIP3    H122112   4.542   0.220  16.061
18347TIP3    H222113   4.443   0.263  16.164
18348TIP3   OH222114   4.000   0.069  16.120
18348TIP3    H122115   3.929   0.123  16.161
18348TIP3    H222116   4.078   0.127  16.132
18349TIP3   OH222117   3.773   0.160  16.297
18349TIP3    H122118   3.714   0.095  16.338
18349TIP3    H222119   3.714   0.237  16.277
18350TIP3   OH222120   5.240   0.113  16.317
18350TIP3    H122121   5.329   0.094  16.350
18350TIP3    H222122   5.194   0.029  16.336
18351TIP3   OH222123   5.364   0.098  16.773
18351TIP3    H122124   5.324   0.179  16.812
18351TIP3    H222125   5.420   0.135  16.703
18352TIP3   OH222126   4.823   0.088  16.301
18352TIP3    H122127   4.738   0.110  16.344
18352TIP3    H222128   4.800   0.100  16.207
18353TIP3   OH222129   4.262   0.125  16.227
18353TIP3    H122130   4.262   0.092  16.318
18353TIP3    H222131   4.282   0.046  16.174
18354TIP3   OH222132   4.086   0.117  16.614
18354TIP3    H122133   4.167   0.163  16.642
18354TIP3    H222134   4.125   0.046  16.558
18355TIP3   OH222135   5.383   1.678  16.648
18355TIP3    H122136   5.471   1.679  16.692
18355TIP3    H222137   5.355   1.768  16.672
18356TIP3   OH222138   5.224   0.285  16.902
18356TIP3    H122139   5.160   0.232  16.951
18356TIP3    H222140   5.165   0.337  16.845
18357TIP3   OH222141   4.695   0.293  16.629
18357TIP3    H122142   4.618   0.243  16.596
18357TIP3    H222143   4.679   0.381  16.592
18358TIP3   OH222144   4.483   1.883  16.836
18358TIP3    H122145   4.399   1.904  16.880
18358TIP3    H222146   4.478   1.785  16.846
18359TIP3   OH222147   3.840   1.714  16.506
18359TIP3    H122148   3.859   1.641  16.571
18359TIP3    H222149   3.837   1.789  16.569
18360TIP3   OH222150   5.298   0.159  15.402
18360TIP3    H122151   5.356   0.081  15.393
18360TIP3    H222152   5.218   0.127  15.356
18361TIP3   OH222153   5.083   0.086  15.219
18361TIP3    H122154   4.994   0.113  15.245
18361TIP3    H222155   5.057  -0.005  15.189
18362TIP3   OH222156   5.181   1.784  16.942
18362TIP3    H122157   5.252   1.824  16.888
18362TIP3    H222158   5.166   1.699  16.898
18363TIP3   OH222159   4.217   9.347  15.233
18363TIP3    H122160   4.263   9.261  15.229
18363TIP3    H222161   4.128   9.320  15.260
18364TIP3   OH222162   3.910   1.620  15.333
18364TIP3    H122163   3.983   1.613  15.400
18364TIP3    H222164   3.910   1.716  15.318
18365TIP3   OH222165   2.424   1.032  16.338
18365TIP3    H122166   2.443   1.128  16.351
18365TIP3    H222167   2.501   0.993  16.384
18366TIP3   OH222168   2.557   0.887  15.997
18366TIP3    H122169   2.567   0.856  15.905
18366TIP3    H222170   2.637   0.853  16.042
18367TIP3   OH222171   3.347   0.910  15.806
18367TIP3    H122172   3.345   0.820  15.768
18367TIP3    H222173   3.256   0.942  15.788
18368TIP3   OH222174   2.232   1.225  16.129
18368TIP3    H122175   2.259   1.147  16.079
18368TIP3    H222176   2.219   1.290  16.059
18369TIP3   OH222177   3.235   1.361  16.015
18369TIP3    H122178   3.270   1.272  16.036
18369TIP3    H222179   3.140   1.343  16.025
18370TIP3   OH222180   3.543   0.692  16.455
18370TIP3    H122181   3.578   0.762  16.398
18370TIP3    H222182   3.613   0.687  16.523
18371TIP3   OH222183   3.526   0.938  16.188
18371TIP3    H122184   3.502   0.844  16.182
18371TIP3    H222185   3.442   0.984  16.202
18372TIP3   OH222186   2.482   1.769  16.151
18372TIP3    H122187   2.421   1.711  16.204
18372TIP3    H222188   2.502   1.705  16.081
18373TIP3   OH222189   2.761   1.181  15.885
18373TIP3    H122190   2.728   1.175  15.975
18373TIP3    H222191   2.676   1.190  15.838
18374TIP3   OH222192   1.877   0.299  15.894
18374TIP3    H122193   1.856   0.365  15.824
18374TIP3    H222194   1.809   0.320  15.960
18375TIP3   OH222195   2.378   0.631  15.878
18375TIP3    H122196   2.361   0.537  15.861
18375TIP3    H222197   2.424   0.625  15.965
18376TIP3   OH222198   3.067   0.413  16.218
18376TIP3    H122199   3.061   0.497  16.268
18376TIP3    H222200   3.128   0.363  16.276
18377TIP3   OH222201   2.335   0.454  16.310
18377TIP3    H122202   2.281   0.411  16.238
18377TIP3    H222203   2.266   0.502  16.357
18378TIP3   OH222204   3.457   0.670  16.129
18378TIP3    H122205   3.386   0.644  16.068
18378TIP3    H222206   3.427   0.625  16.210
18379TIP3   OH222207   2.965   0.828  16.174
18379TIP3    H122208   2.886   0.781  16.137
18379TIP3    H222209   2.992   0.763  16.242
18380TIP3   OH222210   1.851   0.469  15.675
18380TIP3    H122211   1.892   0.553  15.706
18380TIP3    H222212   1.833   0.491  15.582
18381TIP3   OH222213   3.166   0.338  15.806
18381TIP3    H122214   3.191   0.395  15.881
18381TIP3    H222215   3.241   0.355  15.743
18382TIP3   OH222216   2.513   1.258  16.439
18382TIP3    H122217   2.533   1.266  16.535
18382TIP3    H222218   2.539   1.348  16.408
18383TIP3   OH222219   2.988   1.088  15.786
18383TIP3    H122220   3.043   1.168  15.767
18383TIP3    H222221   2.904   1.130  15.817
18384TIP3   OH222222   2.163   0.362  16.128
18384TIP3    H122223   2.224   0.333  16.058
18384TIP3    H222224   2.089   0.394  16.075
18385TIP3   OH222225   3.229   0.520  16.006
18385TIP3    H122226   3.167   0.582  15.960
18385TIP3    H222227   3.174   0.487  16.079
18386TIP3   OH222228   3.106   1.308  15.701
18386TIP3    H122229   3.129   1.393  15.741
18386TIP3    H222230   3.188   1.289  15.650
18387TIP3   OH222231   3.520   1.241  16.611
18387TIP3    H122232   3.515   1.294  16.694
18387TIP3    H222233   3.506   1.310  16.542
18388TIP3   OH222234   2.155   1.433  15.920
18388TIP3    H122235   2.248   1.461  15.915
18388TIP3    H222236   2.117   1.510  15.965
18389TIP3   OH222237   2.082   0.216  15.740
18389TIP3    H122238   2.158   0.248  15.790
18389TIP3    H222239   2.010   0.232  15.806
18390TIP3   OH222240   2.804   0.096  16.061
18390TIP3    H122241   2.751   0.020  16.031
18390TIP3    H222242   2.891   0.079  16.017
18391TIP3   OH222243   2.317   1.604  16.280
18391TIP3    H122244   2.295   1.520  16.325
18391TIP3    H222245   2.237   1.658  16.301
18392TIP3   OH222246   2.227   1.380  16.422
18392TIP3    H122247   2.228   1.305  16.483
18392TIP3    H222248   2.234   1.333  16.337
18393TIP3   OH222249   2.042   1.251  15.543
18393TIP3    H122250   2.035   1.173  15.602
18393TIP3    H222251   2.029   1.322  15.609
18394TIP3   OH222252   2.594   0.938  16.591
18394TIP3    H122253   2.647   1.020  16.600
18394TIP3    H222254   2.511   0.963  16.635
18395TIP3   OH222255   2.599   0.843  16.863
18395TIP3    H122256   2.535   0.867  16.793
18395TIP3    H222257   2.557   0.763  16.897
18396TIP3   OH222258   1.842   0.897  15.757
18396TIP3    H122259   1.913   0.963  15.769
18396TIP3    H222260   1.782   0.927  15.828
18397TIP3   OH222261   2.216   0.912  16.489
18397TIP3    H122262   2.285   0.954  16.431
18397TIP3    H222263   2.153   0.881  16.420
18398TIP3   OH222264   2.231   0.770  15.564
18398TIP3    H122265   2.268   0.848  15.519
18398TIP3    H222266   2.270   0.785  15.652
18399TIP3   OH222267   3.088   1.019  16.309
18399TIP3    H122268   3.110   0.974  16.393
18399TIP3    H222269   3.025   0.954  16.269
18400TIP3   OH222270   2.937   1.350  16.033
18400TIP3    H122271   2.913   1.327  16.125
18400TIP3    H222272   2.877   1.295  15.978
18401TIP3   OH222273   3.087   0.904  15.942
18401TIP3    H122274   3.042   0.898  16.030
18401TIP3    H222275   3.030   0.967  15.892
18402TIP3   OH222276   2.423   1.464  15.879
18402TIP3    H122277   2.451   1.523  15.808
18402TIP3    H222278   2.425   1.377  15.835
18403TIP3   OH222279   2.955   1.340  15.483
18403TIP3    H122280   3.021   1.396  15.435
18403TIP3    H222281   3.003   1.323  15.567
18404TIP3   OH222282   2.367   0.876  16.714
18404TIP3    H122283   2.309   0.872  16.635
18404TIP3    H222284   2.314   0.930  16.776
18405TIP3   OH222285   3.247   0.965  15.549
18405TIP3    H122286   3.235   1.021  15.470
18405TIP3    H222287   3.340   0.939  15.539
18406TIP3   OH222288   2.577   1.503  16.353
18406TIP3    H122289   2.562   1.559  16.277
18406TIP3    H222290   2.625   1.561  16.413
18407TIP3   OH222291   3.115   1.521  15.366
18407TIP3    H122292   3.116   1.565  15.453
18407TIP3    H222293   3.209   1.496  15.356
18408TIP3   OH222294   1.959   0.061  16.697
18408TIP3    H122295   2.056   0.051  16.685
18408TIP3    H222296   1.954   0.154  16.725
18409TIP3   OH222297   3.196   0.916  16.541
18409TIP3    H122298   3.234   0.996  16.585
18409TIP3    H222299   3.260   0.849  16.565
18410TIP3   OH222300   1.886   1.441  16.910
18410TIP3    H122301   1.854   1.530  16.929
18410TIP3    H222302   1.801   1.396  16.891
18411TIP3   OH222303   3.562   1.172  15.636
18411TIP3    H122304   3.607   1.171  15.722
18411TIP3    H222305   3.517   1.086  15.641
18412TIP3   OH222306   3.579   1.434  15.972
18412TIP3    H122307   3.484   1.417  15.963
18412TIP3    H222308   3.589   1.516  15.923
18413TIP3   OH222309   1.786   1.503  15.387
18413TIP3    H122310   1.793   1.407  15.404
18413TIP3    H222311   1.878   1.520  15.355
18414TIP3   OH222312   2.701   1.443  15.485
18414TIP3    H122313   2.691   1.522  15.430
18414TIP3    H222314   2.798   1.423  15.481
18415TIP3   OH222315   2.616   1.834  16.575
18415TIP3    H122316   2.615   1.858  16.670
18415TIP3    H222317   2.625   1.922  16.532
18416TIP3   OH222318   3.268   1.699  16.349
18416TIP3    H122319   3.238   1.664  16.261
18416TIP3    H222320   3.358   1.662  16.352
18417TIP3   OH222321   2.333   1.786  16.852
18417TIP3    H122322   2.278   1.709  16.878
18417TIP3    H222323   2.334   1.777  16.754
18418TIP3   OH222324   2.357   1.758  16.568
18418TIP3    H122325   2.454   1.774  16.558
18418TIP3    H222326   2.345   1.680  16.513
18419TIP3   OH222327   2.106   0.645  15.344
18419TIP3    H122328   2.148   0.685  15.422
18419TIP3    H222329   2.086   0.554  15.372
18420TIP3   OH222330   3.334   1.315  15.564
18420TIP3    H122331   3.317   1.273  15.476
18420TIP3    H222332   3.421   1.273  15.585
18421TIP3   OH222333   3.047   0.109  15.948
18421TIP3    H122334   3.126   0.104  16.005
18421TIP3    H222335   3.074   0.186  15.894
18422TIP3   OH222336   2.619   0.143  15.604
18422TIP3    H122337   2.581   0.081  15.541
18422TIP3    H222338   2.715   0.127  15.601
18423TIP3   OH222339   2.322   0.511  15.566
18423TIP3    H122340   2.379   0.493  15.487
18423TIP3    H222341   2.302   0.606  15.555
18424TIP3   OH222342   2.229   1.007  16.905
18424TIP3    H122343   2.238   1.042  16.995
18424TIP3    H222344   2.137   1.032  16.887
18425TIP3   OH222345   2.629   0.334  16.912
18425TIP3    H122346   2.694   0.337  16.842
18425TIP3    H222347   2.588   0.246  16.895
18426TIP3   OH222348   3.065   0.655  15.844
18426TIP3    H122349   3.141   0.642  15.783
18426TIP3    H222350   3.082   0.749  15.870
18427TIP3   OH222351   3.060   0.637  16.365
18427TIP3    H122352   3.157   0.629  16.373
18427TIP3    H222353   3.028   0.602  16.450
18428TIP3   OH222354   2.507   0.729  16.456
18428TIP3    H122355   2.548   0.806  16.503
18428TIP3    H222356   2.449   0.694  16.526
18429TIP3   OH222357   2.642   0.748  15.343
18429TIP3    H122358   2.674   0.663  15.307
18429TIP3    H222359   2.609   0.787  15.260
18430TIP3   OH222360   2.426   0.670  16.157
18430TIP3    H122361   2.430   0.749  16.214
18430TIP3    H222362   2.413   0.600  16.223
18431TIP3   OH222363   3.314   0.644  15.716
18431TIP3    H122364   3.277   0.685  15.635
18431TIP3    H222365   3.357   0.563  15.680
18432TIP3   OH222366   2.973   0.431  16.948
18432TIP3    H122367   3.016   0.393  16.868
18432TIP3    H222368   2.995   0.525  16.945
18433TIP3   OH222369   3.626   0.382  16.253
18433TIP3    H122370   3.566   0.391  16.177
18433TIP3    H222371   3.571   0.403  16.329
18434TIP3   OH222372   3.516   0.436  16.690
18434TIP3    H122373   3.463   0.468  16.765
18434TIP3    H222374   3.553   0.518  16.652
18435TIP3   OH222375   2.514   0.827  15.742
18435TIP3    H122376   2.456   0.760  15.785
18435TIP3    H222377   2.571   0.769  15.686
18436TIP3   OH222378   2.774   0.388  16.258
18436TIP3    H122379   2.871   0.373  16.247
18436TIP3    H222380   2.741   0.381  16.167
18437TIP3   OH222381   3.330   0.568  16.373
18437TIP3    H122382   3.409   0.605  16.419
18437TIP3    H222383   3.311   0.486  16.422
18438TIP3   OH222384   2.954   0.581  16.633
18438TIP3    H122385   2.866   0.616  16.613
18438TIP3    H222386   2.992   0.644  16.697
18439TIP3   OH222387   2.337   0.303  15.932
18439TIP3    H122388   2.387   0.318  15.849
18439TIP3    H222389   2.413   0.286  15.993
18440TIP3   OH222390   3.093   0.711  16.862
18440TIP3    H122391   3.154   0.711  16.937
18440TIP3    H222392   3.008   0.740  16.902
18441TIP3   OH222393   2.075   1.891  15.260
18441TIP3    H122394   2.051   1.931  15.345
18441TIP3    H222395   1.993   1.908  15.211
18442TIP3   OH222396   3.291   1.148  15.346
18442TIP3    H122397   3.225   1.165  15.275
18442TIP3    H222398   3.369   1.119  15.292
18443TIP3   OH222399   2.758   0.688  16.079
18443TIP3    H122400   2.671   0.652  16.105
18443TIP3    H222401   2.796   0.616  16.029
18444TIP3   OH222402   3.227   0.326  16.418
18444TIP3    H122403   3.283   0.261  16.368
18444TIP3    H222404   3.182   0.264  16.479
18445TIP3   OH222405   2.862   0.487  15.819
18445TIP3    H122406   2.934   0.553  15.832
18445TIP3    H222407   2.788   0.541  15.785
18446TIP3   OH222408   2.762   1.146  16.611
18446TIP3    H122409   2.835   1.091  16.647
18446TIP3    H222410   2.801   1.178  16.526
18447TIP3   OH222411   2.023   1.095  15.759
18447TIP3    H122412   1.976   1.157  15.820
18447TIP3    H222413   2.100   1.075  15.814
18448TIP3   OH222414   2.367   0.427  16.860
18448TIP3    H122415   2.461   0.440  16.881
18448TIP3    H222416   2.352   0.490  16.787
18449TIP3   OH222417   2.665   1.173  15.551
18449TIP3    H122418   2.657   1.131  15.465
18449TIP3    H222419   2.682   1.265  15.526
18450TIP3   OH222420   2.322   0.600  16.648
18450TIP3    H122421   2.259   0.607  16.574
18450TIP3    H222422   2.276   0.654  16.714
18451TIP3   OH222423   3.257   1.093  16.092
18451TIP3    H122424   3.217   1.076  16.179
18451TIP3    H222425   3.214   1.026  16.035
18452TIP3   OH222426   2.559   1.278  16.722
18452TIP3    H122427   2.603   1.364  16.703
18452TIP3    H222428   2.631   1.216  16.696
18453TIP3   OH222429   3.534   0.880  15.545
18453TIP3    H122430   3.582   0.835  15.473
18453TIP3    H222431   3.599   0.871  15.617
18454TIP3   OH222432   2.888   0.882  15.368
18454TIP3    H122433   2.910   0.837  15.451
18454TIP3    H222434   2.799   0.845  15.352
18455TIP3   OH222435   2.366   1.396  15.499
18455TIP3    H122436   2.436   1.401  15.564
18455TIP3    H222437   2.397   1.464  15.436
18456TIP3   OH222438   1.836   0.645  16.661
18456TIP3    H122439   1.894   0.616  16.735
18456TIP3    H222440   1.824   0.739  16.685
18457TIP3   OH222441   1.808   1.207  15.412
18457TIP3    H122442   1.895   1.225  15.454
18457TIP3    H222443   1.753   1.192  15.492
18458TIP3   OH222444   2.006   1.505  16.669
18458TIP3    H122445   2.040   1.425  16.629
18458TIP3    H222446   1.973   1.477  16.757
18459TIP3   OH222447   2.272   0.994  15.959
18459TIP3    H122448   2.366   0.970  15.967
18459TIP3    H222449   2.233   0.926  16.018
18460TIP3   OH222450   3.020   1.450  16.354
18460TIP3    H122451   3.006   1.545  16.375
18460TIP3    H222452   3.110   1.438  16.385
18461TIP3   OH222453   3.425   0.939  16.889
18461TIP3    H122454   3.380   0.991  16.819
18461TIP3    H222455   3.509   0.916  16.847
18462TIP3   OH222456   2.888   1.216  16.371
18462TIP3    H122457   2.933   1.303  16.368
18462TIP3    H222458   2.950   1.155  16.326
18463TIP3   OH222459   2.830   1.622  15.684
18463TIP3    H122460   2.766   1.689  15.716
18463TIP3    H222461   2.773   1.569  15.625
18464TIP3   OH222462   3.007   1.705  16.441
18464TIP3    H122463   3.102   1.711  16.417
18464TIP3    H222464   2.975   1.787  16.398
18465TIP3   OH222465   2.512   1.207  15.774
18465TIP3    H122466   2.552   1.183  15.687
18465TIP3    H222467   2.469   1.123  15.799
18466TIP3   OH222468   2.241   1.324  16.828
18466TIP3    H122469   2.219   1.269  16.749
18466TIP3    H222470   2.336   1.304  16.831
18467TIP3   OH222471   2.186   1.656  15.535
18467TIP3    H122472   2.276   1.623  15.555
18467TIP3    H222473   2.179   1.727  15.602
18468TIP3   OH222474   1.807   1.751  16.831
18468TIP3    H122475   1.767   1.820  16.886
18468TIP3    H222476   1.871   1.807  16.782
18469TIP3   OH222477   3.374   0.363  15.628
18469TIP3    H122478   3.470   0.373  15.625
18469TIP3    H222479   3.359   0.286  15.569
18470TIP3   OH222480   2.160   1.161  16.615
18470TIP3    H122481   2.171   1.070  16.582
18470TIP3    H222482   2.063   1.173  16.606
18471TIP3   OH222483   3.423   1.569  15.766
18471TIP3    H122484   3.357   1.498  15.756
18471TIP3    H222485   3.424   1.605  15.677
18472TIP3   OH222486   2.961   1.379  16.758
18472TIP3    H122487   2.892   1.330  16.710
18472TIP3    H222488   2.942   1.473  16.735
18473TIP3   OH222489   3.313   1.101  16.710
18473TIP3    H122490   3.379   1.150  16.656
18473TIP3    H222491   3.269   1.173  16.759
18474TIP3   OH222492   2.485   0.352  15.714
18474TIP3    H122493   2.415   0.385  15.654
18474TIP3    H222494   2.531   0.287  15.657
18475TIP3   OH222495   2.429   0.309  16.528
18475TIP3    H122496   2.422   0.362  16.609
18475TIP3    H222497   2.390   0.369  16.461
18476TIP3   OH222498   2.664   1.516  16.663
18476TIP3    H122499   2.728   1.583  16.638
18476TIP3    H222500   2.624   1.555  16.744
18477TIP3   OH222501   2.700   0.539  16.469
18477TIP3    H122502   2.633   0.608  16.450
18477TIP3    H222503   2.713   0.494  16.383
18478TIP3   OH222504   2.640   0.637  15.597
18478TIP3    H122505   2.643   0.676  15.506
18478TIP3    H222506   2.613   0.546  15.581
18479TIP3   OH222507   2.660   0.173  16.401
18479TIP3    H122508   2.697   0.252  16.357
18479TIP3    H222509   2.575   0.208  16.437
18480TIP3   OH222510   2.931   1.641  16.699
18480TIP3    H122511   2.906   1.729  16.736
18480TIP3    H222512   2.970   1.670  16.614
18481TIP3   OH222513   3.103   0.341  16.728
18481TIP3    H122514   3.104   0.422  16.675
18481TIP3    H222515   3.016   0.307  16.700
18482TIP3   OH222516   2.070   0.411  15.478
18482TIP3    H122517   2.162   0.437  15.497
18482TIP3    H222518   2.044   0.371  15.564
18483TIP3   OH222519   2.171   0.761  16.090
18483TIP3    H122520   2.251   0.711  16.068
18483TIP3    H222521   2.101   0.713  16.040
18484TIP3   OH222522   3.230   1.355  16.843
18484TIP3    H122523   3.149   1.385  16.799
18484TIP3    H222524   3.191   1.312  16.921
18485TIP3   OH222525   3.417   0.656  16.934
18485TIP3    H122526   3.394   0.747  16.911
18485TIP3    H222527   3.502   0.667  16.982
18486TIP3   OH222528   2.075   1.698  15.936
18486TIP3    H122529   2.079   1.770  16.003
18486TIP3    H222530   1.979   1.682  15.941
18487TIP3   OH222531   3.306   0.148  16.049
18487TIP3    H122532   3.329   0.120  16.140
18487TIP3    H222533   3.339   0.071  15.996
18488TIP3   OH222534   3.469   1.499  16.456
18488TIP3    H122535   3.543   1.544  16.415
18488TIP3    H222536   3.452   1.560  16.531
18489TIP3   OH222537   3.537   1.771  15.310
18489TIP3    H122538   3.467   1.759  15.243
18489TIP3    H222539   3.576   1.681  15.316
18490TIP3   OH222540   3.050   1.632  15.127
18490TIP3    H122541   2.956   1.612  15.122
18490TIP3    H222542   3.076   1.587  15.211
18491TIP3   OH222543   2.562   1.626  16.906
18491TIP3    H122544   2.622   1.578  16.966
18491TIP3    H222545   2.487   1.643  16.965
18492TIP3   OH222546   2.428   1.551  15.290
18492TIP3    H122547   2.437   1.460  15.259
18492TIP3    H222548   2.338   1.572  15.258
18493TIP3   OH222549   2.159   1.577  16.984
18493TIP3    H122550   2.180   1.498  16.929
18493TIP3    H222551   2.063   1.571  16.984
18494TIP3   OH222552   3.530   1.113  15.220
18494TIP3    H122553   3.559   1.020  15.218
18494TIP3    H222554   3.596   1.150  15.283
18495TIP3   OH222555   3.072   1.144  16.983
18495TIP3    H122556   3.012   1.151  16.907
18495TIP3    H222557   3.013   1.102  17.049
18496TIP3   OH222558   2.873   1.148  15.298
18496TIP3    H122559   2.897   1.203  15.377
18496TIP3    H222560   2.888   1.055  15.331
18497TIP3   OH222561   2.296   1.128  15.510
18497TIP3    H122562   2.209   1.175  15.504
18497TIP3    H222563   2.352   1.208  15.503
18498TIP3   OH222564   3.421   0.804  15.220
18498TIP3    H122565   3.431   0.750  15.300
18498TIP3    H222566   3.343   0.763  15.179
18499TIP3   OH222567   2.954   0.997  16.752
18499TIP3    H122568   3.027   0.948  16.712
18499TIP3    H222569   2.915   0.931  16.812
18500TIP3   OH222570   3.090   0.768  15.601
18500TIP3    H122571   3.127   0.856  15.575
18500TIP3    H222572   3.007   0.796  15.643
18501TIP3   OH222573   2.848   0.802  16.945
18501TIP3    H122574   2.818   0.807  17.037
18501TIP3    H222575   2.759   0.812  16.899
18502TIP3   OH222576   2.518   1.051  15.192
18502TIP3    H122577   2.448   1.017  15.250
18502TIP3    H222578   2.556   0.969  15.156
18503TIP3   OH222579   1.954   1.066   8.520
18503TIP3    H122580   2.009   1.077   8.599
18503TIP3    H222581   1.932   1.157   8.496
18504TIP3   OH222582   2.986   0.567  15.459
18504TIP3    H122583   2.972   0.491  15.519
18504TIP3    H222584   3.025   0.636  15.518
18505TIP3   OH222585   2.965   0.334  15.634
18505TIP3    H122586   2.923   0.383  15.709
18505TIP3    H222587   3.051   0.313  15.675
18506TIP3   OH222588   2.834   0.914  15.654
18506TIP3    H122589   2.750   0.955  15.680
18506TIP3    H222590   2.896   0.983  15.685
18507TIP3   OH222591   2.357   0.620  15.156
18507TIP3    H122592   2.289   0.552  15.165
18507TIP3    H222593   2.303   0.699  15.165
18508TIP3   OH222594   2.228   0.967  15.303
18508TIP3    H122595   2.253   1.022  15.380
18508TIP3    H222596   2.136   0.943  15.329
18509TIP3   OH222597   3.157   0.585  15.250
18509TIP3    H122598   3.229   0.521  15.264
18509TIP3    H222599   3.093   0.563  15.321
18510TIP3   OH222600   2.883   0.088  15.633
18510TIP3    H122601   2.899   0.182  15.610
18510TIP3    H222602   2.929   0.087  15.719
18511TIP3   OH222603   2.773   0.518  15.225
18511TIP3    H122604   2.836   0.503  15.152
18511TIP3    H222605   2.826   0.488  15.300
18512TIP3   OH222606   2.487   0.435  15.354
18512TIP3    H122607   2.574   0.412  15.317
18512TIP3    H222608   2.429   0.414  15.278
18513TIP3   OH222609   2.309   0.295  15.149
18513TIP3    H122610   2.291   0.224  15.214
18513TIP3    H222611   2.386   0.255  15.106
18514TIP3   OH222612   3.363   0.408  15.219
18514TIP3    H122613   3.378   0.333  15.282
18514TIP3    H222614   3.352   0.364  15.132
18515TIP3   OH222615   2.939   9.353  15.378
18515TIP3    H122616   2.862   9.319  15.330
18515TIP3    H222617   2.896   9.383  15.460
18516TIP3   OH222618   2.849   0.193  15.193
18516TIP3    H122619   2.918   0.143  15.239
18516TIP3    H222620   2.903   0.265  15.154
18517TIP3   OH222621   2.877   1.884  16.804
18517TIP3    H122622   2.789   1.926  16.799
18517TIP3    H222623   2.878   1.862  16.898
18518TIP3   OH222624   3.531   1.330  16.884
18518TIP3    H122625   3.435   1.346  16.877
18518TIP3    H222626   3.535   1.289  16.971
18519TIP3   OH222627   3.629   1.834  16.401
18519TIP3    H122628   3.712   1.786  16.423
18519TIP3    H222629   3.600   1.783  16.323
18520TIP3   OH222630   3.551   1.669  16.191
18520TIP3    H122631   3.605   1.604  16.142
18520TIP3    H222632   3.494   1.703  16.118
18521TIP3   OH222633   1.799   1.724  15.944
18521TIP3    H122634   1.781   1.751  15.853
18521TIP3    H222635   1.773   1.805  15.991
18522TIP3   OH222636   1.863   1.725  15.641
18522TIP3    H122637   1.899   1.645  15.685
18522TIP3    H222638   1.818   1.683  15.566
18523TIP3   OH222639   1.990   1.288  15.107
18523TIP3    H122640   2.083   1.292  15.077
18523TIP3    H222641   1.972   1.374  15.146
18524TIP3   OH222642   1.880   1.131  16.618
18524TIP3    H122643   1.795   1.178  16.601
18524TIP3    H222644   1.879   1.069  16.541
18525TIP3   OH222645   1.850   0.948  16.420
18525TIP3    H122646   1.923   0.902  16.373
18525TIP3    H222647   1.786   0.960  16.346
18526TIP3   OH222648   1.871   1.229  15.924
18526TIP3    H122649   1.804   1.164  15.953
18526TIP3    H222650   1.821   1.312  15.935
18527TIP3   OH222651   2.001   1.481  15.691
18527TIP3    H122652   2.065   1.535  15.642
18527TIP3    H222653   2.051   1.455  15.772
18528TIP3   OH222654   1.823   0.902  16.786
18528TIP3    H122655   1.883   0.920  16.861
18528TIP3    H222656   1.837   0.981  16.730
18529TIP3   OH222657   2.048   0.625  16.884
18529TIP3    H122658   1.982   0.671  16.939
18529TIP3    H222659   2.045   0.534  16.921
18530TIP3   OH222660   2.044   0.807  16.315
18530TIP3    H122661   2.055   0.715  16.343
18530TIP3    H222662   2.075   0.800  16.222
18531TIP3   OH222663   3.560   1.007  15.924
18531TIP3    H122664   3.557   0.989  16.021
18531TIP3    H222665   3.470   0.976  15.896
18532TIP3   OH222666   1.962   0.959  15.396
18532TIP3    H122667   1.920   0.873  15.377
18532TIP3    H222668   1.886   1.018  15.410
18533TIP3   OH222669   1.835   0.740  15.305
18533TIP3    H122670   1.910   0.683  15.279
18533TIP3    H222671   1.763   0.674  15.313
18534TIP3   OH222672   2.044   0.400  17.028
18534TIP3    H122673   1.979   0.336  16.993
18534TIP3    H222674   2.130   0.360  17.007
18535TIP3   OH222675   2.105   0.548  16.480
18535TIP3    H122676   2.077   0.455  16.465
18535TIP3    H222677   2.042   0.575  16.549
18536TIP3   OH222678   1.997   0.607  15.952
18536TIP3    H122679   1.899   0.611  15.952
18536TIP3    H222680   2.013   0.632  15.859
18537TIP3   OH222681   2.006   0.688  15.702
18537TIP3    H122682   2.077   0.700  15.637
18537TIP3    H222683   1.960   0.775  15.701
18538TIP3   OH222684   3.573   0.525  15.338
18538TIP3    H122685   3.491   0.487  15.298
18538TIP3    H222686   3.629   0.444  15.337
18539TIP3   OH222687   1.812   0.159  15.162
18539TIP3    H122688   1.797   0.069  15.195
18539TIP3    H222689   1.809   0.212  15.244
18540TIP3   OH222690   2.025   0.286  16.475
18540TIP3    H122691   1.988   0.234  16.400
18540TIP3    H222692   2.079   0.221  16.525
18541TIP3   OH222693   3.461   0.366  16.011
18541TIP3    H122694   3.418   0.277  16.016
18541TIP3    H222695   3.382   0.422  15.997
18542TIP3   OH222696   3.625   0.651  15.916
18542TIP3    H122697   3.577   0.625  15.996
18542TIP3    H222698   3.562   0.711  15.874
18543TIP3   OH222699   1.825   0.330  15.404
18543TIP3    H122700   1.920   0.355  15.407
18543TIP3    H222701   1.833   0.245  15.453
18544TIP3   OH222702   1.851   0.286  16.846
18544TIP3    H122703   1.842   0.199  16.885
18544TIP3    H222704   1.775   0.333  16.887
18545TIP3   OH222705   3.619   0.234  16.553
18545TIP3    H122706   3.709   0.261  16.531
18545TIP3    H222707   3.589   0.306  16.613
18546TIP3   OH222708   2.133   1.781  16.331
18546TIP3    H122709   2.063   1.761  16.395
18546TIP3    H222710   2.090   1.839  16.266
18547TIP3   OH222711   3.587   0.141  15.708
18547TIP3    H122712   3.643   0.117  15.632
18547TIP3    H222713   3.645   0.201  15.759
18548TIP3   OH222714   3.387   1.458  15.279
18548TIP3    H122715   3.447   1.497  15.345
18548TIP3    H222716   3.436   1.472  15.198
18549TIP3   OH222717   3.087   1.614  15.623
18549TIP3    H122718   3.091   1.701  15.669
18549TIP3    H222719   2.991   1.595  15.636
18550TIP3   OH222720   2.698   1.705  15.371
18550TIP3    H122721   2.688   1.654  15.289
18550TIP3    H222722   2.605   1.735  15.387
18551TIP3   OH222723   2.475   1.855  15.411
18551TIP3    H122724   2.398   1.839  15.468
18551TIP3    H222725   2.443   1.917  15.345
18552TIP3   OH222726   1.910   0.117  15.553
18552TIP3    H122727   1.979   0.154  15.612
18552TIP3    H222728   1.896   0.029  15.596
18553TIP3   OH222729   3.359   1.905  15.679
18553TIP3    H122730   3.419   1.963  15.729
18553TIP3    H222731   3.394   1.917  15.590
18554TIP3   OH222732   3.111   1.851  15.764
18554TIP3    H122733   3.205   1.863  15.737
18554TIP3    H222734   3.109   1.905  15.845
18555TIP3   OH222735   2.656   1.805  15.827
18555TIP3    H122736   2.712   1.840  15.898
18555TIP3    H222737   2.632   1.889  15.782
18556TIP3   OH222738   2.431   1.682  15.698
18556TIP3    H122739   2.497   1.724  15.756
18556TIP3    H222740   2.355   1.740  15.720
18557TIP3   OH222741   2.196   1.838  15.740
18557TIP3    H122742   2.187   1.928  15.778
18557TIP3    H222743   2.148   1.786  15.808
18558TIP3   OH222744   3.387   1.744  15.987
18558TIP3    H122745   3.416   1.689  15.911
18558TIP3    H222746   3.300   1.701  16.007
18559TIP3   OH222747   3.170   1.625  16.096
18559TIP3    H122748   3.181   1.531  16.070
18559TIP3    H222749   3.090   1.647  16.044
18560TIP3   OH222750   2.953   1.632  15.942
18560TIP3    H122751   2.912   1.547  15.966
18560TIP3    H222752   2.929   1.640  15.848
18561TIP3   OH222753   2.576   0.271  16.074
18561TIP3    H122754   2.659   0.219  16.068
18561TIP3    H222755   2.525   0.216  16.134
18562TIP3   OH222756   2.106   0.069  16.118
18562TIP3    H122757   2.036   0.117  16.167
18562TIP3    H222758   2.184   0.124  16.140
18563TIP3   OH222759   1.891   0.156  16.287
18563TIP3    H122760   1.838   0.096  16.343
18563TIP3    H222761   1.829   0.232  16.275
18564TIP3   OH222762   3.351   0.113  16.332
18564TIP3    H122763   3.429   0.095  16.388
18564TIP3    H222764   3.306   0.026  16.338
18565TIP3   OH222765   3.463   0.103  16.759
18565TIP3    H122766   3.434   0.187  16.802
18565TIP3    H222767   3.531   0.135  16.696
18566TIP3   OH222768   2.942   0.077  16.294
18566TIP3    H122769   2.860   0.106  16.338
18566TIP3    H222770   2.918   0.088  16.200
18567TIP3   OH222771   2.361   0.103  16.235
18567TIP3    H122772   2.387   0.081  16.325
18567TIP3    H222773   2.393   0.029  16.181
18568TIP3   OH222774   2.197   0.117  16.613
18568TIP3    H122775   2.277   0.163  16.640
18568TIP3    H222776   2.235   0.045  16.558
18569TIP3   OH222777   3.488   1.685  16.653
18569TIP3    H122778   3.578   1.681  16.691
18569TIP3    H222779   3.470   1.779  16.675
18570TIP3   OH222780   3.340   0.288  16.908
18570TIP3    H122781   3.276   0.247  16.968
18570TIP3    H222782   3.281   0.336  16.848
18571TIP3   OH222783   2.810   0.295  16.627
18571TIP3    H122784   2.736   0.244  16.589
18571TIP3    H222785   2.790   0.385  16.596
18572TIP3   OH222786   2.595   1.883  16.837
18572TIP3    H122787   2.510   1.901  16.880
18572TIP3    H222788   2.596   1.786  16.851
18573TIP3   OH222789   1.955   1.712  16.514
18573TIP3    H122790   1.969   1.635  16.574
18573TIP3    H222791   1.959   1.784  16.581
18574TIP3   OH222792   3.419   0.200  15.382
18574TIP3    H122793   3.484   0.128  15.394
18574TIP3    H222794   3.340   0.149  15.355
18575TIP3   OH222795   3.192   0.068  15.274
18575TIP3    H122796   3.099   0.055  15.306
18575TIP3    H222797   3.209  -0.019  15.236
18576TIP3   OH222798   3.295   1.774  16.956
18576TIP3    H122799   3.362   1.825  16.908
18576TIP3    H222800   3.276   1.699  16.898
18577TIP3   OH222801   2.281   9.382  15.251
18577TIP3    H122802   2.318   9.341  15.169
18577TIP3    H222803   2.214   9.317  15.275
18578TIP3   OH222804   2.029   1.617  15.320
18578TIP3    H122805   2.091   1.613  15.397
18578TIP3    H222806   2.035   1.712  15.300
18579TIP3   OH222807   0.527   1.032  16.334
18579TIP3    H122808   0.535   1.130  16.340
18579TIP3    H222809   0.607   1.005  16.383
18580TIP3   OH222810   0.682   0.892  16.004
18580TIP3    H122811   0.654   0.853  15.919
18580TIP3    H222812   0.741   0.824  16.043
18581TIP3   OH222813   1.464   0.897  15.851
18581TIP3    H122814   1.473   0.815  15.798
18581TIP3    H222815   1.391   0.940  15.803
18582TIP3   OH222816   0.325   1.263  16.161
18582TIP3    H122817   0.303   1.181  16.115
18582TIP3    H222818   0.327   1.326  16.087
18583TIP3   OH222819   1.333   1.378  16.041
18583TIP3    H122820   1.368   1.286  16.041
18583TIP3    H222821   1.237   1.359  16.036
18584TIP3   OH222822   1.661   0.688  16.442
18584TIP3    H122823   1.704   0.753  16.386
18584TIP3    H222824   1.718   0.687  16.521
18585TIP3   OH222825   1.663   0.927  16.207
18585TIP3    H122826   1.637   0.834  16.190
18585TIP3    H222827   1.578   0.974  16.211
18586TIP3   OH222828   0.593   1.779  16.139
18586TIP3    H122829   0.537   1.717  16.193
18586TIP3    H222830   0.620   1.714  16.072
18587TIP3   OH222831   0.863   1.176  15.893
18587TIP3    H122832   0.838   1.159  15.985
18587TIP3    H222833   0.774   1.190  15.852
18588TIP3   OH222834   0.052   0.332  15.870
18588TIP3    H122835   0.018   0.406  15.818
18588TIP3    H222836  -0.022   0.323  15.933
18589TIP3   OH222837   0.526   0.629  15.890
18589TIP3    H122838   0.503   0.535  15.884
18589TIP3    H222839   0.538   0.641  15.986
18590TIP3   OH222840   1.177   0.411  16.222
18590TIP3    H122841   1.173   0.498  16.267
18590TIP3    H222842   1.241   0.364  16.279
18591TIP3   OH222843   0.436   0.459  16.333
18591TIP3    H122844   0.383   0.406  16.270
18591TIP3    H222845   0.365   0.503  16.383
18592TIP3   OH222846   1.573   0.678  16.121
18592TIP3    H122847   1.497   0.660  16.063
18592TIP3    H222848   1.545   0.625  16.199
18593TIP3   OH222849   1.068   0.824  16.172
18593TIP3    H122850   0.982   0.783  16.147
18593TIP3    H222851   1.099   0.758  16.237
18594TIP3   OH222852   1.289   0.325  15.798
18594TIP3    H122853   1.322   0.377  15.875
18594TIP3    H222854   1.358   0.346  15.731
18595TIP3   OH222855   0.615   1.264  16.432
18595TIP3    H122856   0.651   1.263  16.523
18595TIP3    H222857   0.640   1.356  16.403
18596TIP3   OH222858   1.093   1.086  15.788
18596TIP3    H122859   1.143   1.163  15.755
18596TIP3    H222860   1.011   1.128  15.823
18597TIP3   OH222861   0.256   0.364  16.151
18597TIP3    H122862   0.304   0.335  16.071
18597TIP3    H222863   0.196   0.429  16.112
18598TIP3   OH222864   1.345   0.521  16.007
18598TIP3    H122865   1.286   0.584  15.960
18598TIP3    H222866   1.288   0.492  16.082
18599TIP3   OH222867   1.211   1.308  15.690
18599TIP3    H122868   1.243   1.381  15.746
18599TIP3    H222869   1.294   1.288  15.641
18600TIP3   OH222870   1.630   1.232  16.594
18600TIP3    H122871   1.636   1.281  16.679
18600TIP3    H222872   1.617   1.308  16.532
18601TIP3   OH222873   0.283   1.431  15.959
18601TIP3    H122874   0.377   1.441  15.933
18601TIP3    H222875   0.254   1.524  15.957
18602TIP3   OH222876   0.212   0.184  15.721
18602TIP3    H122877   0.289   0.232  15.754
18602TIP3    H222878   0.148   0.219  15.787
18603TIP3   OH222879   0.919   0.102  16.063
18603TIP3    H122880   0.871   0.023  16.037
18603TIP3    H222881   1.006   0.089  16.017
18604TIP3   OH222882   0.445   1.611  16.278
18604TIP3    H122883   0.410   1.524  16.306
18604TIP3    H222884   0.372   1.672  16.306
18605TIP3   OH222885   0.303   1.367  16.419
18605TIP3    H122886   0.329   1.291  16.474
18605TIP3    H222887   0.291   1.326  16.330
18606TIP3   OH222888   0.171   1.232  15.530
18606TIP3    H122889   0.180   1.178  15.613
18606TIP3    H222890   0.138   1.316  15.566
18607TIP3   OH222891   0.706   0.929  16.599
18607TIP3    H122892   0.766   1.005  16.618
18607TIP3    H222893   0.627   0.947  16.654
18608TIP3   OH222894   0.709   0.810  16.861
18608TIP3    H122895   0.624   0.840  16.820
18608TIP3    H222896   0.678   0.743  16.923
18609TIP3   OH222897   0.003   0.884  15.802
18609TIP3    H122898   0.062   0.961  15.787
18609TIP3    H222899  -0.062   0.925  15.864
18610TIP3   OH222900   0.353   0.899  16.506
18610TIP3    H122901   0.409   0.947  16.440
18610TIP3    H222902   0.290   0.852  16.444
18611TIP3   OH222903   0.382   0.750  15.586
18611TIP3    H122904   0.412   0.811  15.517
18611TIP3    H222905   0.429   0.792  15.661
18612TIP3   OH222906   1.191   1.025  16.293
18612TIP3    H122907   1.213   0.981  16.378
18612TIP3    H222908   1.138   0.955  16.250
18613TIP3   OH222909   1.057   1.343  16.034
18613TIP3    H122910   1.040   1.326  16.127
18613TIP3    H222911   0.989   1.292  15.986
18614TIP3   OH222912   1.177   0.887  15.933
18614TIP3    H122913   1.146   0.891  16.026
18614TIP3    H222914   1.130   0.962  15.889
18615TIP3   OH222915   0.519   1.450  15.849
18615TIP3    H122916   0.556   1.500  15.774
18615TIP3    H222917   0.532   1.358  15.817
18616TIP3   OH222918   1.034   1.343  15.485
18616TIP3    H122919   1.109   1.387  15.441
18616TIP3    H222920   1.078   1.329  15.571
18617TIP3   OH222921   0.477   0.869  16.737
18617TIP3    H122922   0.425   0.870  16.653
18617TIP3    H222923   0.427   0.934  16.793
18618TIP3   OH222924   1.366   0.966  15.606
18618TIP3    H122925   1.335   1.019  15.532
18618TIP3    H222926   1.447   0.930  15.564
18619TIP3   OH222927   0.697   1.510  16.369
18619TIP3    H122928   0.643   1.588  16.350
18619TIP3    H222929   0.764   1.544  16.430
18620TIP3   OH222930   1.227   1.503  15.376
18620TIP3    H122931   1.224   1.553  15.461
18620TIP3    H222932   1.323   1.487  15.370
18621TIP3   OH222933   0.106   0.033  16.714
18621TIP3    H122934   0.202   0.030  16.696
18621TIP3    H222935   0.106   0.066  16.806
18622TIP3   OH222936   1.313   0.917  16.532
18622TIP3    H122937   1.345   0.999  16.576
18622TIP3    H222938   1.372   0.851  16.569
18623TIP3   OH222939  -0.002   1.513  16.895
18623TIP3    H122940  -0.042   1.570  16.961
18623TIP3    H222941  -0.066   1.437  16.894
18624TIP3   OH222942   1.666   1.159  15.626
18624TIP3    H122943   1.720   1.157  15.706
18624TIP3    H222944   1.615   1.077  15.640
18625TIP3   OH222945   1.698   1.441  15.964
18625TIP3    H122946   1.607   1.452  15.933
18625TIP3    H222947   1.736   1.528  15.947
18626TIP3   OH222948   0.779   1.455  15.514
18626TIP3    H122949   0.779   1.540  15.465
18626TIP3    H222950   0.870   1.420  15.499
18627TIP3   OH222951   0.742   1.840  16.564
18627TIP3    H122952   0.744   1.867  16.658
18627TIP3    H222953   0.746   1.927  16.519
18628TIP3   OH222954   1.377   1.702  16.354
18628TIP3    H122955   1.351   1.669  16.265
18628TIP3    H222956   1.469   1.671  16.363
18629TIP3   OH222957   0.459   1.789  16.850
18629TIP3    H122958   0.407   1.711  16.881
18629TIP3    H222959   0.451   1.778  16.754
18630TIP3   OH222960   0.485   1.754  16.566
18630TIP3    H122961   0.580   1.766  16.544
18630TIP3    H222962   0.459   1.681  16.508
18631TIP3   OH222963   0.191   0.656  15.363
18631TIP3    H122964   0.233   0.684  15.447
18631TIP3    H222965   0.165   0.564  15.385
18632TIP3   OH222966   1.443   1.315  15.568
18632TIP3    H122967   1.436   1.276  15.479
18632TIP3    H222968   1.532   1.281  15.592
18633TIP3   OH222969   1.158   0.111  15.939
18633TIP3    H122970   1.234   0.111  16.001
18633TIP3    H222971   1.194   0.181  15.880
18634TIP3   OH222972   0.708   0.107  15.662
18634TIP3    H122973   0.689   0.089  15.570
18634TIP3    H222974   0.805   0.118  15.664
18635TIP3   OH222975   0.393   0.467  15.581
18635TIP3    H122976   0.436   0.457  15.494
18635TIP3    H222977   0.386   0.565  15.586
18636TIP3   OH222978   0.329   1.014  16.904
18636TIP3    H122979   0.283   0.957  16.969
18636TIP3    H222980   0.256   1.074  16.879
18637TIP3   OH222981   0.747   0.352  16.898
18637TIP3    H122982   0.818   0.344  16.833
18637TIP3    H222983   0.715   0.260  16.898
18638TIP3   OH222984   1.161   0.642  15.828
18638TIP3    H122985   1.244   0.638  15.778
18638TIP3    H222986   1.164   0.736  15.857
18639TIP3   OH222987   1.175   0.639  16.360
18639TIP3    H122988   1.271   0.632  16.367
18639TIP3    H222989   1.143   0.616  16.449
18640TIP3   OH222990   0.619   0.708  16.477
18640TIP3    H122991   0.653   0.788  16.525
18640TIP3    H222992   0.557   0.671  16.543
18641TIP3   OH222993   0.706   0.743  15.329
18641TIP3    H122994   0.760   0.673  15.288
18641TIP3    H222995   0.628   0.743  15.271
18642TIP3   OH222996   0.537   0.704  16.164
18642TIP3    H122997   0.557   0.785  16.214
18642TIP3    H222998   0.522   0.641  16.236
18643TIP3   OH222999   1.425   0.648  15.724
18643TIP3    H123000   1.392   0.692  15.644
18643TIP3    H223001   1.468   0.568  15.687
18644TIP3   OH223002   1.096   0.444  16.953
18644TIP3    H123003   1.128   0.401  16.872
18644TIP3    H223004   1.116   0.537  16.937
18645TIP3   OH223005   1.741   0.381  16.260
18645TIP3    H123006   1.676   0.386  16.186
18645TIP3    H223007   1.688   0.396  16.339
18646TIP3   OH223008   1.635   0.442  16.690
18646TIP3    H123009   1.574   0.462  16.762
18646TIP3    H223010   1.695   0.519  16.693
18647TIP3   OH223011   0.604   0.853  15.746
18647TIP3    H123012   0.569   0.769  15.784
18647TIP3    H223013   0.667   0.818  15.680
18648TIP3   OH223014   0.896   0.381  16.249
18648TIP3    H123015   0.993   0.376  16.251
18648TIP3    H223016   0.879   0.368  16.153
18649TIP3   OH223017   1.455   0.563  16.345
18649TIP3    H123018   1.529   0.604  16.394
18649TIP3    H223019   1.430   0.487  16.403
18650TIP3   OH223020   1.089   0.579  16.628
18650TIP3    H123021   1.000   0.605  16.596
18650TIP3    H223022   1.116   0.654  16.683
18651TIP3   OH223023   0.440   0.309  15.940
18651TIP3    H123024   0.512   0.310  15.873
18651TIP3    H223025   0.491   0.274  16.017
18652TIP3   OH223026   1.234   0.747  16.860
18652TIP3    H123027   1.288   0.724  16.937
18652TIP3    H223028   1.144   0.755  16.896
18653TIP3   OH223029   0.213   1.887  15.253
18653TIP3    H123030   0.167   1.886  15.340
18653TIP3    H223031   0.199   1.981  15.237
18654TIP3   OH223032   1.411   1.141  15.348
18654TIP3    H123033   1.337   1.176  15.297
18654TIP3    H223034   1.476   1.116  15.279
18655TIP3   OH223035   0.841   0.679  16.098
18655TIP3    H123036   0.759   0.628  16.109
18655TIP3    H223037   0.891   0.623  16.037
18656TIP3   OH223038   1.343   0.329  16.419
18656TIP3    H123039   1.398   0.265  16.367
18656TIP3    H223040   1.288   0.265  16.468
18657TIP3   OH223041   0.940   0.496  15.826
18657TIP3    H123042   1.018   0.556  15.819
18657TIP3    H223043   0.872   0.544  15.776
18658TIP3   OH223044   0.877   1.140  16.612
18658TIP3    H123045   0.953   1.088  16.646
18658TIP3    H223046   0.917   1.179  16.530
18659TIP3   OH223047   0.175   1.104  15.762
18659TIP3    H123048   0.119   1.167  15.814
18659TIP3    H223049   0.241   1.077  15.830
18660TIP3   OH223050   0.487   0.436  16.855
18660TIP3    H123051   0.584   0.445  16.865
18660TIP3    H223052   0.470   0.500  16.783
18661TIP3   OH223053   0.751   1.179  15.512
18661TIP3    H123054   0.775   1.159  15.421
18661TIP3    H223055   0.746   1.277  15.510
18662TIP3   OH223056   0.432   0.605  16.656
18662TIP3    H123057   0.354   0.602  16.597
18662TIP3    H223058   0.418   0.687  16.706
18663TIP3   OH223059   1.369   1.091  16.072
18663TIP3    H123060   1.309   1.083  16.149
18663TIP3    H223061   1.340   1.020  16.013
18664TIP3   OH223062   0.682   1.284  16.721
18664TIP3    H123063   0.727   1.364  16.689
18664TIP3    H223064   0.746   1.214  16.696
18665TIP3   OH223065   1.637   0.876  15.547
18665TIP3    H123066   1.674   0.833  15.468
18665TIP3    H223067   1.703   0.852  15.615
18666TIP3   OH223068   0.956   0.892  15.374
18666TIP3    H123069   0.985   0.854  15.459
18666TIP3    H223070   0.870   0.848  15.360
18667TIP3   OH223071   0.476   1.410  15.500
18667TIP3    H123072   0.564   1.430  15.537
18667TIP3    H223073   0.485   1.446  15.410
18668TIP3   OH223074   0.084   1.452  16.652
18668TIP3    H123075   0.173   1.415  16.652
18668TIP3    H223076   0.070   1.472  16.747
18669TIP3   OH223077   0.368   1.013  15.938
18669TIP3    H123078   0.458   1.019  15.973
18669TIP3    H223079   0.333   0.941  15.994
18670TIP3   OH223080   1.134   1.449  16.339
18670TIP3    H123081   1.123   1.544  16.357
18670TIP3    H223082   1.221   1.432  16.377
18671TIP3   OH223083   1.557   0.942  16.900
18671TIP3    H123084   1.514   0.993  16.829
18671TIP3    H223085   1.649   0.932  16.868
18672TIP3   OH223086   1.002   1.218  16.385
18672TIP3    H123087   1.045   1.304  16.370
18672TIP3    H223088   1.056   1.154  16.334
18673TIP3   OH223089   0.937   1.623  15.688
18673TIP3    H123090   0.877   1.688  15.728
18673TIP3    H223091   0.875   1.572  15.633
18674TIP3   OH223092   1.113   1.707  16.433
18674TIP3    H123093   1.209   1.712  16.416
18674TIP3    H223094   1.086   1.791  16.391
18675TIP3   OH223095   0.628   1.202  15.768
18675TIP3    H123096   0.663   1.178  15.678
18675TIP3    H223097   0.596   1.116  15.801
18676TIP3   OH223098   0.347   1.329  16.823
18676TIP3    H123099   0.322   1.282  16.741
18676TIP3    H223100   0.431   1.283  16.839
18677TIP3   OH223101   0.303   1.642  15.535
18677TIP3    H123102   0.381   1.586  15.547
18677TIP3    H223103   0.303   1.700  15.615
18678TIP3   OH223104   1.483   0.370  15.607
18678TIP3    H123105   1.527   0.408  15.529
18678TIP3    H223106   1.489   0.275  15.583
18679TIP3   OH223107   0.279   1.144  16.622
18679TIP3    H123108   0.310   1.056  16.595
18679TIP3    H223109   0.181   1.133  16.620
18680TIP3   OH223110   1.522   1.582  15.739
18680TIP3    H123111   1.469   1.501  15.736
18680TIP3    H223112   1.497   1.623  15.655
18681TIP3   OH223113   1.074   1.381  16.758
18681TIP3    H123114   1.005   1.340  16.703
18681TIP3    H223115   1.066   1.477  16.738
18682TIP3   OH223116   1.426   1.107  16.720
18682TIP3    H123117   1.494   1.153  16.666
18682TIP3    H223118   1.374   1.180  16.757
18683TIP3   OH223119   0.627   0.372  15.675
18683TIP3    H123120   0.542   0.399  15.635
18683TIP3    H223121   0.639   0.284  15.635
18684TIP3   OH223122   0.559   0.315  16.528
18684TIP3    H123123   0.552   0.369  16.608
18684TIP3    H223124   0.505   0.368  16.466
18685TIP3   OH223125   0.792   1.526  16.648
18685TIP3    H123126   0.857   1.599  16.651
18685TIP3    H223127   0.738   1.547  16.727
18686TIP3   OH223128   0.844   0.553  16.458
18686TIP3    H123129   0.762   0.606  16.455
18686TIP3    H223130   0.844   0.504  16.373
18687TIP3   OH223131   0.751   0.639  15.580
18687TIP3    H123132   0.738   0.662  15.485
18687TIP3    H223133   0.718   0.548  15.589
18688TIP3   OH223134   0.768   0.186  16.388
18688TIP3    H123135   0.813   0.259  16.342
18688TIP3    H223136   0.690   0.231  16.428
18689TIP3   OH223137   1.060   1.646  16.702
18689TIP3    H123138   1.034   1.732  16.741
18689TIP3    H223139   1.091   1.674  16.613
18690TIP3   OH223140   1.228   0.350  16.731
18690TIP3    H123141   1.230   0.424  16.668
18690TIP3    H223142   1.144   0.312  16.701
18691TIP3   OH223143   0.160   0.410  15.469
18691TIP3    H123144   0.249   0.420  15.509
18691TIP3    H223145   0.109   0.398  15.550
18692TIP3   OH223146   0.289   0.799  16.103
18692TIP3    H123147   0.371   0.747  16.100
18692TIP3    H223148   0.231   0.742  16.047
18693TIP3   OH223149   1.354   1.356  16.851
18693TIP3    H123150   1.276   1.394  16.807
18693TIP3    H223151   1.309   1.303  16.918
18694TIP3   OH223152   1.522   0.658  16.933
18694TIP3    H123153   1.507   0.750  16.906
18694TIP3    H223154   1.613   0.664  16.968
18695TIP3   OH223155   0.148   1.679  15.928
18695TIP3    H123156   0.174   1.736  16.003
18695TIP3    H223157   0.053   1.695  15.919
18696TIP3   OH223158   1.407   0.141  16.045
18696TIP3    H123159   1.431   0.134  16.140
18696TIP3    H223160   1.452   0.061  16.008
18697TIP3   OH223161   1.592   1.481  16.470
18697TIP3    H123162   1.662   1.529  16.423
18697TIP3    H223163   1.567   1.549  16.536
18698TIP3   OH223164   1.662   1.776  15.295
18698TIP3    H123165   1.595   1.755  15.226
18698TIP3    H223166   1.696   1.687  15.316
18699TIP3   OH223167   1.153   1.646  15.143
18699TIP3    H123168   1.065   1.604  15.140
18699TIP3    H223169   1.182   1.615  15.232
18700TIP3   OH223170   0.680   1.623  16.905
18700TIP3    H123171   0.740   1.566  16.956
18700TIP3    H223172   0.620   1.653  16.975
18701TIP3   OH223173   0.527   1.551  15.257
18701TIP3    H123174   0.560   1.469  15.213
18701TIP3    H223175   0.440   1.558  15.215
18702TIP3   OH223176   0.286   1.611  16.966
18702TIP3    H123177   0.285   1.525  16.921
18702TIP3    H223178   0.192   1.632  16.974
18703TIP3   OH223179   1.656   1.122  15.213
18703TIP3    H123180   1.663   1.029  15.241
18703TIP3    H223181   1.709   1.164  15.286
18704TIP3   OH223182   1.178   1.151  16.980
18704TIP3    H123183   1.126   1.134  16.899
18704TIP3    H223184   1.124   1.111  17.050
18705TIP3   OH223185   0.981   1.168  15.282
18705TIP3    H123186   0.993   1.218  15.366
18705TIP3    H223187   0.996   1.074  15.308
18706TIP3   OH223188   0.419   1.130  15.489
18706TIP3    H123189   0.330   1.175  15.497
18706TIP3    H223190   0.478   1.207  15.500
18707TIP3   OH223191   1.542   0.854  15.251
18707TIP3    H123192   1.546   0.758  15.249
18707TIP3    H223193   1.487   0.881  15.176
18708TIP3   OH223194   1.070   1.003  16.743
18708TIP3    H123195   1.142   0.950  16.707
18708TIP3    H223196   1.028   0.938  16.803
18709TIP3   OH223197   1.185   0.774  15.593
18709TIP3    H123198   1.239   0.852  15.616
18709TIP3    H223199   1.100   0.804  15.631
18710TIP3   OH223200   0.977   0.809  16.939
18710TIP3    H123201   0.966   0.829  17.033
18710TIP3    H223202   0.882   0.810  16.907
18711TIP3   OH223203   0.613   1.035  15.174
18711TIP3    H123204   0.547   0.993  15.232
18711TIP3    H223205   0.632   0.960  15.114
18712TIP3   OH223206   0.052   0.993   8.516
18712TIP3    H123207   0.060   0.993   8.613
18712TIP3    H223208  -0.013   1.064   8.501
18713TIP3   OH223209   1.087   0.528  15.466
18713TIP3    H123210   1.082   0.456  15.533
18713TIP3    H223211   1.118   0.605  15.519
18714TIP3   OH223212   1.061   0.328  15.663
18714TIP3    H123213   1.018   0.380  15.735
18714TIP3    H223214   1.153   0.319  15.696
18715TIP3   OH223215   0.949   0.906  15.650
18715TIP3    H123216   0.865   0.952  15.638
18715TIP3    H223217   1.004   0.978  15.688
18716TIP3   OH223218   0.480   0.639  15.154
18716TIP3    H123219   0.459   0.562  15.100
18716TIP3    H223220   0.390   0.673  15.174
18717TIP3   OH223221   0.368   0.947  15.297
18717TIP3    H123222   0.389   1.004  15.375
18717TIP3    H223223   0.270   0.941  15.305
18718TIP3   OH223224   1.239   0.547  15.243
18718TIP3    H123225   1.328   0.511  15.259
18718TIP3    H223226   1.196   0.542  15.331
18719TIP3   OH223227   0.991   0.080  15.676
18719TIP3    H123228   1.005   0.176  15.657
18719TIP3    H223229   1.054   0.073  15.749
18720TIP3   OH223230   0.859   0.490  15.257
18720TIP3    H123231   0.924   0.478  15.184
18720TIP3    H223232   0.920   0.487  15.333
18721TIP3   OH223233   0.594   0.395  15.367
18721TIP3    H123234   0.682   0.405  15.326
18721TIP3    H223235   0.539   0.381  15.288
18722TIP3   OH223236   0.456   0.302  15.154
18722TIP3    H123237   0.450   0.203  15.162
18722TIP3    H223238   0.454   0.312  15.058
18723TIP3   OH223239   1.475   0.395  15.234
18723TIP3    H123240   1.479   0.316  15.293
18723TIP3    H223241   1.482   0.356  15.143
18724TIP3   OH223242   1.045   0.015  15.398
18724TIP3    H123243   0.973  -0.015  15.340
18724TIP3    H223244   1.000   0.034  15.482
18725TIP3   OH223245   1.001   1.885  16.843
18725TIP3    H123246   0.919   1.927  16.813
18725TIP3    H223247   0.978   1.868  16.937
18726TIP3   OH223248   1.642   1.314  16.875
18726TIP3    H123249   1.546   1.333  16.870
18726TIP3    H223250   1.645   1.278  16.965
18727TIP3   OH223251   1.750   1.842  16.397
18727TIP3    H123252   1.829   1.794  16.432
18727TIP3    H223253   1.720   1.780  16.328
18728TIP3   OH223254   1.659   1.671  16.202
18728TIP3    H123255   1.714   1.604  16.159
18728TIP3    H223256   1.601   1.701  16.128
18729TIP3   OH223257  -0.023   1.730  15.597
18729TIP3    H123258   0.036   1.668  15.644
18729TIP3    H223259  -0.074   1.668  15.545
18730TIP3   OH223260   0.139   1.287  15.136
18730TIP3    H123261   0.212   1.271  15.198
18730TIP3    H223262   0.085   1.351  15.185
18731TIP3   OH223263   0.017   1.108  16.607
18731TIP3    H123264  -0.060   1.169  16.599
18731TIP3    H223265   0.025   1.074  16.518
18732TIP3   OH223266   9.328   1.226  15.892
18732TIP3    H123267   9.267   1.155  15.925
18732TIP3    H223268   9.307   1.301  15.950
18733TIP3   OH223269   0.106   1.485  15.679
18733TIP3    H123270   0.198   1.509  15.659
18733TIP3    H223271   0.108   1.468  15.775
18734TIP3   OH223272  -0.035   0.597  16.893
18734TIP3    H123273   0.005   0.667  16.948
18734TIP3    H223274  -0.005   0.517  16.938
18735TIP3   OH223275   0.181   0.763  16.362
18735TIP3    H123276   0.170   0.669  16.384
18735TIP3    H223277   0.206   0.765  16.267
18736TIP3   OH223278   1.673   1.024  15.934
18736TIP3    H123279   1.674   0.996  16.028
18736TIP3    H223280   1.584   0.991  15.908
18737TIP3   OH223281   0.105   0.965  15.346
18737TIP3    H123282   0.064   0.876  15.349
18737TIP3    H223283   0.049   1.021  15.401
18738TIP3   OH223284   0.200   0.368   8.574
18738TIP3    H123285   0.120   0.336   8.529
18738TIP3    H223286   0.270   0.356   8.508
18739TIP3   OH223287   0.215   0.550  16.511
18739TIP3    H123288   0.191   0.456  16.496
18739TIP3    H223289   0.143   0.581  16.568
18740TIP3   OH223290   0.163   0.594  15.959
18740TIP3    H123291   0.065   0.592  15.965
18740TIP3    H223292   0.170   0.600  15.861
18741TIP3   OH223293   0.129   0.683  15.673
18741TIP3    H123294   0.212   0.723  15.638
18741TIP3    H223295   0.079   0.763  15.703
18742TIP3   OH223296   1.672   0.535  15.334
18742TIP3    H123297   1.595   0.490  15.293
18742TIP3    H223298   1.722   0.456  15.365
18743TIP3   OH223299   0.185   0.292  16.481
18743TIP3    H123300   0.159   0.245  16.399
18743TIP3    H223301   0.240   0.225  16.529
18744TIP3   OH223302   1.580   0.348  16.047
18744TIP3    H123303   1.525   0.268  16.032
18744TIP3    H223304   1.512   0.417  16.032
18745TIP3   OH223305   1.737   0.642  15.920
18745TIP3    H123306   1.701   0.606  16.003
18745TIP3    H223307   1.688   0.726  15.919
18746TIP3   OH223308   1.732   0.243  16.540
18746TIP3    H123309   1.826   0.266  16.538
18746TIP3    H223310   1.699   0.310  16.604
18747TIP3   OH223311   0.251   1.772  16.346
18747TIP3    H123312   0.182   1.744  16.410
18747TIP3    H223313   0.199   1.807  16.271
18748TIP3   OH223314   1.698   0.148  15.723
18748TIP3    H123315   1.755   0.142  15.644
18748TIP3    H223316   1.742   0.219  15.773
18749TIP3   OH223317   1.509   1.451  15.288
18749TIP3    H123318   1.582   1.489  15.338
18749TIP3    H223319   1.549   1.434  15.202
18750TIP3   OH223320   1.199   1.620  15.625
18750TIP3    H123321   1.212   1.706  15.671
18750TIP3    H223322   1.103   1.607  15.642
18751TIP3   OH223323   0.777   1.725  15.376
18751TIP3    H123324   0.750   1.671  15.301
18751TIP3    H223325   0.690   1.764  15.399
18752TIP3   OH223326   0.544   1.860  15.444
18752TIP3    H123327   0.461   1.825  15.478
18752TIP3    H223328   0.515   1.909  15.364
18753TIP3   OH223329   0.129   0.082  15.487
18753TIP3    H123330   0.171   0.139  15.555
18753TIP3    H223331   0.084   0.016  15.543
18754TIP3   OH223332   1.465   1.906  15.667
18754TIP3    H123333   1.543   1.950  15.707
18754TIP3    H223334   1.494   1.897  15.576
18755TIP3   OH223335   1.227   1.849  15.761
18755TIP3    H123336   1.318   1.869  15.726
18755TIP3    H223337   1.222   1.909  15.837
18756TIP3   OH223338   0.742   1.811  15.847
18756TIP3    H123339   0.803   1.848  15.912
18756TIP3    H223340   0.731   1.888  15.786
18757TIP3   OH223341   0.564   1.676  15.696
18757TIP3    H123342   0.622   1.716  15.764
18757TIP3    H223343   0.491   1.740  15.702
18758TIP3   OH223344   0.259   1.821  15.732
18758TIP3    H123345   0.234   1.915  15.742
18758TIP3    H223346   0.215   1.780  15.810
18759TIP3   OH223347   1.502   1.744  15.983
18759TIP3    H123348   1.521   1.691  15.903
18759TIP3    H223349   1.414   1.707  16.009
18760TIP3   OH223350   1.285   1.640  16.106
18760TIP3    H123351   1.300   1.545  16.082
18760TIP3    H223352   1.201   1.654  16.057
18761TIP3   OH223353   1.063   1.637  15.959
18761TIP3    H123354   1.018   1.553  15.983
18761TIP3    H223355   1.048   1.640  15.863
18762TIP3   OH223356   0.687   0.281  16.078
18762TIP3    H123357   0.756   0.214  16.066
18762TIP3    H223358   0.660   0.261  16.169
18763TIP3   OH223359   0.237   0.072  16.087
18763TIP3    H123360   0.169   0.123  16.137
18763TIP3    H223361   0.317   0.109  16.126
18764TIP3   OH223362   0.049   0.148  16.261
18764TIP3    H123363  -0.026   0.100  16.301
18764TIP3    H223364   0.015   0.240  16.253
18765TIP3   OH223365   1.469   0.118  16.321
18765TIP3    H123366   1.551   0.106  16.371
18765TIP3    H223367   1.428   0.029  16.331
18766TIP3   OH223368   1.586   0.095  16.765
18766TIP3    H123369   1.550   0.177  16.806
18766TIP3    H223370   1.645   0.131  16.696
18767TIP3   OH223371   1.059   0.077  16.294
18767TIP3    H123372   0.975   0.106  16.333
18767TIP3    H223373   1.039   0.090  16.199
18768TIP3   OH223374   0.491   0.126  16.224
18768TIP3    H123375   0.507   0.104  16.316
18768TIP3    H223376   0.526   0.049  16.174
18769TIP3   OH223377   0.346   0.122  16.618
18769TIP3    H123378   0.417   0.161  16.671
18769TIP3    H223379   0.397   0.056  16.567
18770TIP3   OH223380   1.598   1.685  16.653
18770TIP3    H123381   1.688   1.680  16.692
18770TIP3    H223382   1.583   1.779  16.673
18771TIP3   OH223383   1.455   0.281  16.903
18771TIP3    H123384   1.388   0.232  16.954
18771TIP3    H223385   1.398   0.334  16.846
18772TIP3   OH223386   0.920   0.297  16.630
18772TIP3    H123387   0.844   0.248  16.593
18772TIP3    H223388   0.909   0.383  16.586
18773TIP3   OH223389   0.720   1.877  16.831
18773TIP3    H123390   0.637   1.894  16.879
18773TIP3    H223391   0.715   1.779  16.833
18774TIP3   OH223392   0.066   1.685  16.514
18774TIP3    H123393   0.081   1.597  16.557
18774TIP3    H223394   0.069   1.744  16.594
18775TIP3   OH223395   1.517   0.184  15.408
18775TIP3    H123396   1.580   0.109  15.403
18775TIP3    H223397   1.438   0.141  15.370
18776TIP3   OH223398   1.303   0.089  15.211
18776TIP3    H123399   1.213   0.071  15.244
18776TIP3    H223400   1.335  -0.002  15.194
18777TIP3   OH223401   1.406   1.788  16.948
18777TIP3    H123402   1.472   1.811  16.882
18777TIP3    H223403   1.368   1.705  16.914
18778TIP3   OH223404   0.410   9.383  15.164
18778TIP3    H123405   0.421   9.318  15.093
18778TIP3    H223406   0.349   9.341  15.227
18779TIP3   OH223407   0.135   1.636  15.330
18779TIP3    H123408   0.176   1.628  15.419
18779TIP3    H223409   0.161   1.727  15.307
18780TIP3   OH223410   8.100   2.904  16.320
18780TIP3    H123411   8.113   3.001  16.316
18780TIP3    H223412   8.176   2.876  16.372
18781TIP3   OH223413   8.202   2.770  15.998
18781TIP3    H123414   8.209   2.728  15.910
18781TIP3    H223415   8.284   2.742  16.043
18782TIP3   OH223416   8.957   2.799  15.839
18782TIP3    H123417   8.976   2.736  15.768
18782TIP3    H223418   8.884   2.850  15.802
18783TIP3   OH223419   7.886   3.101  16.131
18783TIP3    H123420   7.909   3.031  16.067
18783TIP3    H223421   7.862   3.173  16.070
18784TIP3   OH223422   8.941   3.216  16.038
18784TIP3    H123423   8.945   3.123  16.070
18784TIP3    H223424   8.852   3.212  16.001
18785TIP3   OH223425   9.203   2.569  16.461
18785TIP3    H123426   9.217   2.664  16.468
18785TIP3    H223427   9.273   2.546  16.398
18786TIP3   OH223428   9.191   2.776  16.199
18786TIP3    H123429   9.138   2.697  16.173
18786TIP3    H223430   9.128   2.827  16.250
18787TIP3   OH223431   8.132   3.647  16.152
18787TIP3    H123432   8.070   3.588  16.201
18787TIP3    H223433   8.173   3.583  16.094
18788TIP3   OH223434   8.397   3.062  15.908
18788TIP3    H123435   8.357   3.041  15.993
18788TIP3    H223436   8.316   3.075  15.854
18789TIP3   OH223437   7.526   2.206  15.897
18789TIP3    H123438   7.519   2.259  15.816
18789TIP3    H223439   7.443   2.232  15.941
18790TIP3   OH223440   8.028   2.500  15.882
18790TIP3    H123441   8.011   2.405  15.867
18790TIP3    H223442   8.039   2.499  15.979
18791TIP3   OH223443   8.741   2.284  16.205
18791TIP3    H123444   8.727   2.364  16.260
18791TIP3    H223445   8.782   2.224  16.270
18792TIP3   OH223446   7.997   2.313  16.347
18792TIP3    H123447   7.942   2.286  16.270
18792TIP3    H223448   7.945   2.388  16.380
18793TIP3   OH223449   9.059   2.555  16.130
18793TIP3    H123450   8.988   2.524  16.070
18793TIP3    H223451   9.041   2.499  16.209
18794TIP3   OH223452   8.602   2.712  16.187
18794TIP3    H123453   8.516   2.671  16.163
18794TIP3    H223454   8.636   2.642  16.247
18795TIP3   OH223455   7.507   2.352  15.655
18795TIP3    H123456   7.545   2.428  15.706
18795TIP3    H223457   7.489   2.398  15.571
18796TIP3   OH223458   8.827   2.215  15.783
18796TIP3    H123459   8.875   2.257  15.857
18796TIP3    H223460   8.890   2.231  15.709
18797TIP3   OH223461   8.157   3.139  16.445
18797TIP3    H123462   8.171   3.144  16.541
18797TIP3    H223463   8.208   3.218  16.414
18798TIP3   OH223464   8.630   2.970  15.806
18798TIP3    H123465   8.687   3.047  15.782
18798TIP3    H223466   8.551   3.016  15.844
18799TIP3   OH223467   7.813   2.269  16.157
18799TIP3    H123468   7.823   2.215  16.079
18799TIP3    H223469   7.724   2.305  16.145
18800TIP3   OH223470   8.885   2.385  15.992
18800TIP3    H123471   8.821   2.444  15.946
18800TIP3    H223472   8.828   2.347  16.064
18801TIP3   OH223473   8.761   3.194  15.707
18801TIP3    H123474   8.776   3.291  15.713
18801TIP3    H223475   8.843   3.164  15.663
18802TIP3   OH223476   9.164   3.148  16.594
18802TIP3    H123477   9.162   3.200  16.676
18802TIP3    H223478   9.135   3.212  16.525
18803TIP3   OH223479   7.805   3.300  15.931
18803TIP3    H123480   7.900   3.319  15.916
18803TIP3    H223481   7.776   3.389  15.960
18804TIP3   OH223482   7.797   2.131  15.811
18804TIP3    H123483   7.878   2.160  15.859
18804TIP3    H223484   7.726   2.160  15.871
18805TIP3   OH223485   8.514   1.935  16.040
18805TIP3    H123486   8.545   1.844  16.048
18805TIP3    H223487   8.597   1.980  16.012
18806TIP3   OH223488   7.970   3.480  16.285
18806TIP3    H123489   7.940   3.396  16.326
18806TIP3    H223490   7.894   3.540  16.305
18807TIP3   OH223491   7.874   3.260  16.426
18807TIP3    H123492   7.890   3.192  16.494
18807TIP3    H223493   7.884   3.207  16.345
18808TIP3   OH223494   7.709   3.132  15.546
18808TIP3    H123495   7.685   3.059  15.607
18808TIP3    H223496   7.689   3.208  15.603
18809TIP3   OH223497   8.257   2.816  16.595
18809TIP3    H123498   8.318   2.892  16.607
18809TIP3    H223499   8.172   2.850  16.629
18810TIP3   OH223500   8.253   2.726  16.868
18810TIP3    H123501   8.199   2.745  16.788
18810TIP3    H223502   8.210   2.646  16.900
18811TIP3   OH223503   7.487   2.783  15.753
18811TIP3    H123504   7.555   2.853  15.755
18811TIP3    H223505   7.436   2.812  15.832
18812TIP3   OH223506   7.862   2.856  16.471
18812TIP3    H123507   7.940   2.869  16.412
18812TIP3    H223508   7.806   2.796  16.416
18813TIP3   OH223509   7.893   2.666  15.559
18813TIP3    H123510   7.920   2.753  15.525
18813TIP3    H223511   7.949   2.662  15.638
18814TIP3   OH223512   8.724   2.898  16.322
18814TIP3    H123513   8.770   2.846  16.392
18814TIP3    H223514   8.669   2.829  16.280
18815TIP3   OH223515   8.590   3.225  16.048
18815TIP3    H123516   8.559   3.206  16.138
18815TIP3    H223517   8.525   3.180  15.992
18816TIP3   OH223518   8.696   2.752  15.943
18816TIP3    H123519   8.660   2.765  16.033
18816TIP3    H223520   8.658   2.828  15.893
18817TIP3   OH223521   8.067   3.341  15.877
18817TIP3    H123522   8.100   3.415  15.824
18817TIP3    H223523   8.082   3.266  15.817
18818TIP3   OH223524   8.640   3.216  15.460
18818TIP3    H123525   8.709   3.274  15.422
18818TIP3    H223526   8.672   3.201  15.552
18819TIP3   OH223527   8.015   2.800  16.696
18819TIP3    H123528   7.954   2.825  16.623
18819TIP3    H223529   7.970   2.839  16.774
18820TIP3   OH223530   8.924   2.856  15.546
18820TIP3    H123531   8.915   2.914  15.467
18820TIP3    H223532   9.020   2.839  15.547
18821TIP3   OH223533   8.273   3.368  16.355
18821TIP3    H123534   8.230   3.424  16.291
18821TIP3    H223535   8.305   3.431  16.421
18822TIP3   OH223536   8.798   3.423  15.390
18822TIP3    H123537   8.809   3.437  15.487
18822TIP3    H223538   8.887   3.394  15.363
18823TIP3   OH223539   7.606   1.921  16.684
18823TIP3    H123540   7.704   1.927  16.681
18823TIP3    H223541   7.586   2.003  16.734
18824TIP3   OH223542   8.865   2.781  16.519
18824TIP3    H123543   8.890   2.862  16.569
18824TIP3    H223544   8.919   2.714  16.561
18825TIP3   OH223545   7.544   3.326  16.913
18825TIP3    H123546   7.515   3.419  16.919
18825TIP3    H223547   7.457   3.285  16.894
18826TIP3   OH223548   9.201   3.051  15.634
18826TIP3    H123549   9.258   3.056  15.713
18826TIP3    H223550   9.214   2.958  15.606
18827TIP3   OH223551   9.196   3.345  16.028
18827TIP3    H123552   9.111   3.303  16.052
18827TIP3    H223553   9.170   3.383  15.941
18828TIP3   OH223554   7.441   3.394  15.386
18828TIP3    H123555   7.457   3.302  15.413
18828TIP3    H223556   7.526   3.413  15.340
18829TIP3   OH223557   8.394   3.343  15.496
18829TIP3    H123558   8.382   3.436  15.467
18829TIP3    H223559   8.488   3.324  15.479
18830TIP3   OH223560   8.289   3.711  16.570
18830TIP3    H123561   8.292   3.735  16.665
18830TIP3    H223562   8.283   3.799  16.527
18831TIP3   OH223563   8.923   3.587  16.364
18831TIP3    H123564   8.914   3.544  16.276
18831TIP3    H223565   9.015   3.568  16.387
18832TIP3   OH223566   7.983   3.655  16.855
18832TIP3    H123567   7.936   3.579  16.895
18832TIP3    H223568   7.974   3.640  16.759
18833TIP3   OH223569   8.008   3.632  16.573
18833TIP3    H123570   8.104   3.652  16.566
18833TIP3    H223571   8.001   3.550  16.520
18834TIP3   OH223572   7.737   2.541  15.347
18834TIP3    H123573   7.794   2.566  15.422
18834TIP3    H223574   7.722   2.446  15.363
18835TIP3   OH223575   8.993   3.200  15.572
18835TIP3    H123576   8.989   3.170  15.481
18835TIP3    H223577   9.078   3.158  15.601
18836TIP3   OH223578   8.733   2.049  15.963
18836TIP3    H123579   8.823   2.044  16.003
18836TIP3    H223580   8.752   2.094  15.878
18837TIP3   OH223581   8.239   1.986  15.629
18837TIP3    H123582   8.217   1.942  15.544
18837TIP3    H223583   8.337   1.994  15.625
18838TIP3   OH223584   7.945   2.394  15.511
18838TIP3    H123585   8.002   2.356  15.441
18838TIP3    H223586   7.988   2.480  15.523
18839TIP3   OH223587   7.888   2.896  16.913
18839TIP3    H123588   7.878   2.905  17.008
18839TIP3    H223589   7.806   2.941  16.885
18840TIP3   OH223590   8.289   2.290  16.881
18840TIP3    H123591   8.340   2.296  16.799
18840TIP3    H223592   8.313   2.201  16.911
18841TIP3   OH223593   8.703   2.511  15.841
18841TIP3    H123594   8.759   2.537  15.766
18841TIP3    H223595   8.697   2.598  15.887
18842TIP3   OH223596   8.718   2.511  16.344
18842TIP3    H123597   8.814   2.508  16.363
18842TIP3    H223598   8.678   2.483  16.429
18843TIP3   OH223599   8.168   2.605  16.461
18843TIP3    H123600   8.205   2.684  16.509
18843TIP3    H223601   8.108   2.568  16.530
18844TIP3   OH223602   8.324   2.631  15.281
18844TIP3    H123603   8.361   2.540  15.270
18844TIP3    H223604   8.239   2.625  15.233
18845TIP3   OH223605   8.063   2.543  16.156
18845TIP3    H123606   8.092   2.629  16.192
18845TIP3    H223607   8.083   2.486  16.231
18846TIP3   OH223608   9.003   2.546  15.678
18846TIP3    H123609   8.920   2.570  15.633
18846TIP3    H223610   9.011   2.450  15.661
18847TIP3   OH223611   8.626   2.313  16.930
18847TIP3    H123612   8.667   2.262  16.857
18847TIP3    H223613   8.657   2.404  16.916
18848TIP3   OH223614   9.236   2.244  16.250
18848TIP3    H123615   9.144   2.244  16.218
18848TIP3    H223616   9.228   2.257  16.346
18849TIP3   OH223617   9.197   2.340  16.748
18849TIP3    H123618   9.122   2.339  16.809
18849TIP3    H223619   9.237   2.427  16.766
18850TIP3   OH223620   8.173   2.672  15.736
18850TIP3    H123621   8.110   2.610  15.779
18850TIP3    H223622   8.220   2.616  15.670
18851TIP3   OH223623   8.438   2.277  16.238
18851TIP3    H123624   8.530   2.282  16.206
18851TIP3    H223625   8.391   2.239  16.161
18852TIP3   OH223626   8.990   2.414  16.355
18852TIP3    H123627   9.050   2.441  16.428
18852TIP3    H223628   8.952   2.328  16.388
18853TIP3   OH223629   8.655   2.456  16.609
18853TIP3    H123630   8.558   2.470  16.605
18853TIP3    H223631   8.683   2.512  16.684
18854TIP3   OH223632   8.018   2.203  15.932
18854TIP3    H123633   8.091   2.205  15.867
18854TIP3    H223634   8.047   2.138  15.998
18855TIP3   OH223635   8.742   2.571  16.850
18855TIP3    H123636   8.806   2.566  16.924
18855TIP3    H223637   8.662   2.612  16.892
18856TIP3   OH223638   7.730   3.776  15.266
18856TIP3    H123639   7.691   3.825  15.342
18856TIP3    H223640   7.649   3.770  15.213
18857TIP3   OH223641   8.926   3.024  15.321
18857TIP3    H123642   8.878   3.036  15.237
18857TIP3    H223643   9.018   3.032  15.288
18858TIP3   OH223644   8.394   2.562  16.105
18858TIP3    H123645   8.301   2.534  16.106
18858TIP3    H223646   8.430   2.502  16.038
18859TIP3   OH223647   8.889   2.171  16.410
18859TIP3    H123648   8.936   2.093  16.372
18859TIP3    H223649   8.836   2.129  16.480
18860TIP3   OH223650   8.455   2.387  15.820
18860TIP3    H123651   8.535   2.440  15.835
18860TIP3    H223652   8.399   2.447  15.768
18861TIP3   OH223653   8.420   3.024  16.621
18861TIP3    H123654   8.496   2.987  16.671
18861TIP3    H223655   8.464   3.050  16.536
18862TIP3   OH223656   7.685   2.973  15.759
18862TIP3    H123657   7.639   3.030  15.827
18862TIP3    H223658   7.771   2.964  15.804
18863TIP3   OH223659   8.032   2.315  16.842
18863TIP3    H123660   8.122   2.318  16.880
18863TIP3    H223661   8.028   2.400  16.795
18864TIP3   OH223662   8.335   3.066  15.526
18864TIP3    H123663   8.325   3.046  15.432
18864TIP3    H223664   8.364   3.159  15.522
18865TIP3   OH223665   7.980   2.524  16.666
18865TIP3    H123666   7.914   2.502  16.598
18865TIP3    H223667   7.947   2.610  16.696
18866TIP3   OH223668   8.892   2.957  16.107
18866TIP3    H123669   8.847   2.948  16.193
18866TIP3    H223670   8.866   2.877  16.058
18867TIP3   OH223671   8.212   3.159  16.731
18867TIP3    H123672   8.251   3.245  16.702
18867TIP3    H223673   8.281   3.096  16.701
18868TIP3   OH223674   9.205   2.798  15.537
18868TIP3    H123675   9.194   2.739  15.459
18868TIP3    H223676   9.227   2.736  15.609
18869TIP3   OH223677   8.546   2.776  15.368
18869TIP3    H123678   8.548   2.698  15.424
18869TIP3    H223679   8.459   2.763  15.325
18870TIP3   OH223680   8.026   3.291  15.496
18870TIP3    H123681   8.093   3.324  15.558
18870TIP3    H223682   8.056   3.332  15.412
18871TIP3   OH223683   7.491   2.511  16.680
18871TIP3    H123684   7.555   2.503  16.753
18871TIP3    H223685   7.475   2.607  16.685
18872TIP3   OH223686   7.469   3.108  15.410
18872TIP3    H123687   7.564   3.126  15.425
18872TIP3    H223688   7.432   3.102  15.501
18873TIP3   OH223689   7.651   3.383  16.660
18873TIP3    H123690   7.698   3.308  16.623
18873TIP3    H223691   7.635   3.361  16.754
18874TIP3   OH223692   7.930   2.889  15.949
18874TIP3    H123693   8.022   2.867  15.968
18874TIP3    H223694   7.886   2.819  16.001
18875TIP3   OH223695   8.678   3.317  16.330
18875TIP3    H123696   8.663   3.408  16.364
18875TIP3    H223697   8.774   3.308  16.347
18876TIP3   OH223698   9.105   2.794  16.794
18876TIP3    H123699   9.023   2.846  16.801
18876TIP3    H223700   9.169   2.844  16.847
18877TIP3   OH223701   8.537   3.083  16.386
18877TIP3    H123702   8.582   3.170  16.371
18877TIP3    H223703   8.598   3.020  16.343
18878TIP3   OH223704   8.491   3.495  15.707
18878TIP3    H123705   8.429   3.567  15.727
18878TIP3    H223706   8.442   3.444  15.640
18879TIP3   OH223707   8.649   3.571  16.423
18879TIP3    H123708   8.745   3.580  16.408
18879TIP3    H223709   8.620   3.653  16.378
18880TIP3   OH223710   8.174   3.081  15.755
18880TIP3    H123711   8.216   3.066  15.667
18880TIP3    H223712   8.117   3.003  15.765
18881TIP3   OH223713   7.898   3.234  16.827
18881TIP3    H123714   7.870   3.179  16.750
18881TIP3    H223715   7.989   3.202  16.839
18882TIP3   OH223716   7.821   3.506  15.536
18882TIP3    H123717   7.903   3.453  15.526
18882TIP3    H223718   7.841   3.569  15.609
18883TIP3   OH223719   7.464   3.637  16.832
18883TIP3    H123720   7.421   3.706  16.884
18883TIP3    H223721   7.534   3.688  16.786
18884TIP3   OH223722   9.018   2.273  15.598
18884TIP3    H123723   9.087   2.302  15.536
18884TIP3    H223724   9.024   2.177  15.588
18885TIP3   OH223725   7.821   3.065  16.628
18885TIP3    H123726   7.836   2.984  16.574
18885TIP3    H223727   7.725   3.075  16.618
18886TIP3   OH223728   9.085   3.446  15.790
18886TIP3    H123729   9.011   3.386  15.768
18886TIP3    H223730   9.083   3.505  15.713
18887TIP3   OH223731   8.615   3.263  16.775
18887TIP3    H123732   8.540   3.215  16.735
18887TIP3    H223733   8.598   3.356  16.751
18888TIP3   OH223734   8.931   3.007  16.703
18888TIP3    H123735   9.013   3.033  16.656
18888TIP3    H223736   8.911   3.088  16.753
18889TIP3   OH223737   8.152   2.244  15.663
18889TIP3    H123738   8.074   2.267  15.611
18889TIP3    H223739   8.185   2.163  15.621
18890TIP3   OH223740   8.106   2.220  16.576
18890TIP3    H123741   8.052   2.250  16.651
18890TIP3    H223742   8.053   2.244  16.498
18891TIP3   OH223743   8.312   3.402  16.664
18891TIP3    H123744   8.383   3.466  16.653
18891TIP3    H223745   8.265   3.438  16.742
18892TIP3   OH223746   8.394   2.410  16.484
18892TIP3    H123747   8.318   2.472  16.470
18892TIP3    H223748   8.408   2.369  16.397
18893TIP3   OH223749   8.300   2.523  15.540
18893TIP3    H123750   8.304   2.568  15.453
18893TIP3    H223751   8.293   2.429  15.515
18894TIP3   OH223752   8.306   2.075  16.442
18894TIP3    H123753   8.336   2.139  16.375
18894TIP3    H223754   8.228   2.123  16.479
18895TIP3   OH223755   8.578   3.519  16.698
18895TIP3    H123756   8.554   3.606  16.739
18895TIP3    H223757   8.611   3.551  16.611
18896TIP3   OH223758   8.729   2.207  16.701
18896TIP3    H123759   8.737   2.289  16.649
18896TIP3    H223760   8.636   2.186  16.677
18897TIP3   OH223761   7.690   2.298  15.453
18897TIP3    H123762   7.786   2.308  15.478
18897TIP3    H223763   7.651   2.303  15.543
18898TIP3   OH223764   7.820   2.656  16.094
18898TIP3    H123765   7.898   2.598  16.100
18898TIP3    H223766   7.759   2.604  16.038
18899TIP3   OH223767   8.880   3.249  16.863
18899TIP3    H123768   8.808   3.280  16.804
18899TIP3    H223769   8.826   3.188  16.919
18900TIP3   OH223770   9.035   2.563  16.942
18900TIP3    H123771   9.035   2.645  16.890
18900TIP3    H223772   9.122   2.528  16.920
18901TIP3   OH223773   7.745   3.575  15.938
18901TIP3    H123774   7.754   3.649  16.001
18901TIP3    H223775   7.647   3.566  15.944
18902TIP3   OH223776   8.981   2.001  16.035
18902TIP3    H123777   8.991   1.975  16.129
18902TIP3    H223778   9.016   1.918  15.991
18903TIP3   OH223779   9.089   3.360  16.443
18903TIP3    H123780   9.173   3.399  16.422
18903TIP3    H223781   9.067   3.414  16.521
18904TIP3   OH223782   9.157   3.683  15.281
18904TIP3    H123783   9.119   3.646  15.198
18904TIP3    H223784   9.205   3.608  15.318
18905TIP3   OH223785   8.744   3.575  15.172
18905TIP3    H123786   8.650   3.593  15.171
18905TIP3    H223787   8.756   3.529  15.258
18906TIP3   OH223788   8.224   3.507  16.914
18906TIP3    H123789   8.290   3.461  16.972
18906TIP3    H223790   8.161   3.538  16.982
18907TIP3   OH223791   8.076   3.415  15.268
18907TIP3    H123792   8.108   3.328  15.234
18907TIP3    H223793   7.989   3.421  15.224
18908TIP3   OH223794   7.810   3.457  16.988
18908TIP3    H123795   7.845   3.386  16.930
18908TIP3    H223796   7.715   3.436  16.979
18909TIP3   OH223797   9.174   3.023  15.237
18909TIP3    H123798   9.208   2.949  15.182
18909TIP3    H223799   9.261   3.059  15.263
18910TIP3   OH223800   8.705   3.061  16.971
18910TIP3    H123801   8.667   3.028  16.887
18910TIP3    H223802   8.678   2.991  17.035
18911TIP3   OH223803   8.523   3.040  15.291
18911TIP3    H123804   8.553   3.101  15.362
18911TIP3    H223805   8.529   2.951  15.332
18912TIP3   OH223806   7.960   3.017  15.507
18912TIP3    H123807   7.871   3.060  15.506
18912TIP3    H223808   8.013   3.099  15.495
18913TIP3   OH223809   9.124   2.710  15.272
18913TIP3    H123810   9.035   2.689  15.303
18913TIP3    H223811   9.107   2.767  15.196
18914TIP3   OH223812   8.607   2.888  16.761
18914TIP3    H123813   8.680   2.845  16.714
18914TIP3    H223814   8.574   2.816  16.818
18915TIP3   OH223815   8.757   2.649  15.610
18915TIP3    H123816   8.802   2.729  15.575
18915TIP3    H223817   8.670   2.687  15.633
18916TIP3   OH223818   8.513   2.695  16.944
18916TIP3    H123819   8.489   2.693  17.038
18916TIP3    H223820   8.423   2.702  16.902
18917TIP3   OH223821   8.164   2.929  15.193
18917TIP3    H123822   8.104   2.885  15.255
18917TIP3    H223823   8.177   2.861  15.124
18918TIP3   OH223824   7.607   2.966   8.515
18918TIP3    H123825   7.633   2.981   8.607
18918TIP3    H223826   7.586   3.055   8.484
18919TIP3   OH223827   8.636   2.422  15.448
18919TIP3    H123828   8.638   2.341  15.503
18919TIP3    H223829   8.636   2.491  15.515
18920TIP3   OH223830   8.591   2.231  15.654
18920TIP3    H123831   8.525   2.268  15.719
18920TIP3    H223832   8.671   2.234  15.711
18921TIP3   OH223833   8.493   2.786  15.669
18921TIP3    H123834   8.405   2.826  15.680
18921TIP3    H223835   8.550   2.859  15.703
18922TIP3   OH223836   8.071   2.561  15.155
18922TIP3    H123837   8.059   2.471  15.122
18922TIP3    H223838   7.983   2.600  15.142
18923TIP3   OH223839   7.863   2.857  15.297
18923TIP3    H123840   7.897   2.898  15.379
18923TIP3    H223841   7.769   2.841  15.320
18924TIP3   OH223842   8.845   2.528  15.259
18924TIP3    H123843   8.890   2.446  15.282
18924TIP3    H223844   8.768   2.523  15.317
18925TIP3   OH223845   8.505   1.973  15.665
18925TIP3    H123846   8.545   2.061  15.648
18925TIP3    H223847   8.582   1.921  15.694
18926TIP3   OH223848   8.439   2.399  15.272
18926TIP3    H123849   8.495   2.367  15.198
18926TIP3    H223850   8.505   2.394  15.346
18927TIP3   OH223851   8.141   2.325  15.331
18927TIP3    H123852   8.236   2.317  15.312
18927TIP3    H223853   8.102   2.278  15.256
18928TIP3   OH223854   7.945   2.187  15.147
18928TIP3    H123855   7.980   2.095  15.154
18928TIP3    H223856   7.983   2.219  15.062
18929TIP3   OH223857   9.010   2.263  15.190
18929TIP3    H123858   8.995   2.220  15.276
18929TIP3    H223859   8.978   2.196  15.128
18930TIP3   OH223860   8.574   1.915  15.405
18930TIP3    H123861   8.493   1.871  15.375
18930TIP3    H223862   8.552   1.932  15.499
18931TIP3   OH223863   8.487   2.063  15.146
18931TIP3    H123864   8.517   1.984  15.192
18931TIP3    H223865   8.565   2.120  15.152
18932TIP3   OH223866   8.534   3.759  16.802
18932TIP3    H123867   8.445   3.798  16.814
18932TIP3    H223868   8.580   3.797  16.877
18933TIP3   OH223869   9.140   3.223  16.915
18933TIP3    H123870   9.047   3.251  16.896
18933TIP3    H223871   9.138   3.220  17.013
18934TIP3   OH223872   9.256   3.744  16.394
18934TIP3    H123873   9.312   3.677  16.438
18934TIP3    H223874   9.238   3.695  16.311
18935TIP3   OH223875   9.201   3.575  16.187
18935TIP3    H123876   9.240   3.489  16.163
18935TIP3    H223877   9.160   3.602  16.102
18936TIP3   OH223878   7.472   3.626  15.941
18936TIP3    H123879   7.429   3.619  15.855
18936TIP3    H223880   7.432   3.706  15.976
18937TIP3   OH223881   7.523   3.606  15.629
18937TIP3    H123882   7.561   3.531  15.679
18937TIP3    H223883   7.488   3.559  15.551
18938TIP3   OH223884   7.628   3.188  15.123
18938TIP3    H123885   7.708   3.199  15.070
18938TIP3    H223886   7.558   3.225  15.062
18939TIP3   OH223887   7.539   3.014  16.623
18939TIP3    H123888   7.455   3.063  16.609
18939TIP3    H223889   7.533   2.948  16.550
18940TIP3   OH223890   7.505   2.816  16.431
18940TIP3    H123891   7.583   2.780  16.382
18940TIP3    H223892   7.441   2.827  16.359
18941TIP3   OH223893   7.531   3.090  15.935
18941TIP3    H123894   7.458   3.033  15.966
18941TIP3    H223895   7.493   3.181  15.943
18942TIP3   OH223896   7.654   3.365  15.694
18942TIP3    H123897   7.715   3.411  15.632
18942TIP3    H223898   7.711   3.344  15.771
18943TIP3   OH223899   7.501   2.782  16.781
18943TIP3    H123900   7.552   2.806  16.860
18943TIP3    H223901   7.517   2.858  16.722
18944TIP3   OH223902   7.696   2.516  16.914
18944TIP3    H123903   7.623   2.559  16.962
18944TIP3    H223904   7.686   2.424  16.946
18945TIP3   OH223905   7.710   2.681  16.336
18945TIP3    H123906   7.728   2.591  16.366
18945TIP3    H223907   7.736   2.676  16.242
18946TIP3   OH223908   9.185   2.888  15.953
18946TIP3    H123909   9.189   2.856  16.046
18946TIP3    H223910   9.090   2.873  15.930
18947TIP3   OH223911   7.592   2.869  15.362
18947TIP3    H123912   7.544   2.783  15.366
18947TIP3    H223913   7.525   2.935  15.392
18948TIP3   OH223914   7.494   2.624  15.388
18948TIP3    H123915   7.586   2.599  15.358
18948TIP3    H223916   7.443   2.549  15.351
18949TIP3   OH223917   7.703   2.270  17.022
18949TIP3    H123918   7.652   2.218  16.956
18949TIP3    H223919   7.795   2.262  16.993
18950TIP3   OH223920   7.778   2.448  16.503
18950TIP3    H123921   7.741   2.364  16.467
18950TIP3    H223922   7.723   2.454  16.583
18951TIP3   OH223923   7.647   2.488  15.951
18951TIP3    H123924   7.550   2.497  15.937
18951TIP3    H223925   7.675   2.503  15.858
18952TIP3   OH223926   7.669   2.560  15.696
18952TIP3    H123927   7.757   2.581  15.657
18952TIP3    H223928   7.626   2.648  15.699
18953TIP3   OH223929   9.220   2.370  15.349
18953TIP3    H123930   9.163   2.356  15.272
18953TIP3    H223931   9.304   2.330  15.320
18954TIP3   OH223932   7.678   2.173  16.477
18954TIP3    H123933   7.643   2.119  16.403
18954TIP3    H223934   7.726   2.106  16.528
18955TIP3   OH223935   9.106   2.238  15.966
18955TIP3    H123936   9.067   2.151  15.989
18955TIP3    H223937   9.029   2.298  15.968
18956TIP3   OH223938   9.250   2.525  15.928
18956TIP3    H123939   9.193   2.498  16.003
18956TIP3    H223940   9.215   2.614  15.912
18957TIP3   OH223941   7.510   2.145  15.292
18957TIP3    H123942   7.574   2.186  15.353
18957TIP3    H223943   7.484   2.068  15.344
18958TIP3   OH223944   7.517   2.167  16.857
18958TIP3    H123945   7.460   2.113  16.914
18958TIP3    H223946   7.456   2.236  16.828
18959TIP3   OH223947   9.251   2.166  16.547
18959TIP3    H123948   9.348   2.160  16.559
18959TIP3    H223949   9.225   2.210  16.630
18960TIP3   OH223950   7.772   3.661  16.311
18960TIP3    H123951   7.700   3.651  16.376
18960TIP3    H223952   7.731   3.715  16.241
18961TIP3   OH223953   9.245   2.042  15.696
18961TIP3    H123954   9.315   2.052  15.631
18961TIP3    H223955   9.278   2.093  15.771
18962TIP3   OH223956   9.052   3.322  15.267
18962TIP3    H123957   9.125   3.287  15.320
18962TIP3    H223958   9.089   3.400  15.220
18963TIP3   OH223959   8.753   3.476  15.658
18963TIP3    H123960   8.766   3.568  15.693
18963TIP3    H223961   8.656   3.470  15.669
18964TIP3   OH223962   8.342   3.601  15.412
18964TIP3    H123963   8.333   3.586  15.316
18964TIP3    H223964   8.252   3.633  15.433
18965TIP3   OH223965   8.102   3.721  15.456
18965TIP3    H123966   8.026   3.708  15.513
18965TIP3    H223967   8.062   3.757  15.373
18966TIP3   OH223968   7.596   1.950  15.514
18966TIP3    H123969   7.660   2.000  15.566
18966TIP3    H223970   7.602   1.862  15.559
18967TIP3   OH223971   9.015   3.779  15.655
18967TIP3    H123972   9.099   3.816  15.688
18967TIP3    H223973   9.012   3.816  15.564
18968TIP3   OH223974   8.769   3.722  15.765
18968TIP3    H123975   8.854   3.746  15.721
18968TIP3    H223976   8.763   3.790  15.835
18969TIP3   OH223977   8.300   3.704  15.836
18969TIP3    H123978   8.343   3.745  15.911
18969TIP3    H223979   8.294   3.777  15.772
18970TIP3   OH223980   8.092   3.564  15.714
18970TIP3    H123981   8.159   3.613  15.766
18970TIP3    H223982   8.016   3.623  15.728
18971TIP3   OH223983   7.829   3.724  15.719
18971TIP3    H123984   7.816   3.819  15.732
18971TIP3    H223985   7.792   3.688  15.803
18972TIP3   OH223986   9.040   3.643  15.974
18972TIP3    H123987   9.072   3.583  15.904
18972TIP3    H223988   8.961   3.593  16.005
18973TIP3   OH223989   8.861   3.497  16.106
18973TIP3    H123990   8.865   3.403  16.086
18973TIP3    H223991   8.776   3.518  16.060
18974TIP3   OH223992   8.633   3.499  15.964
18974TIP3    H123993   8.594   3.412  15.985
18974TIP3    H223994   8.590   3.519  15.879
18975TIP3   OH223995   8.316   2.095  16.074
18975TIP3    H123996   8.396   2.038  16.058
18975TIP3    H223997   8.258   2.036  16.125
18976TIP3   OH223998   7.726   1.916  16.099
18976TIP3    H123999   7.659   1.967  16.150
18976TIP3    H224000   7.812   1.951  16.135
18977TIP3   OH224001   7.553   2.023  16.281
18977TIP3    H124002   7.483   1.975  16.331
18977TIP3    H224003   7.503   2.105  16.255
18978TIP3   OH224004   8.998   1.951  16.307
18978TIP3    H124005   9.081   1.940  16.358
18978TIP3    H224006   8.953   1.864  16.320
18979TIP3   OH224007   9.101   1.916  16.745
18979TIP3    H124008   9.075   1.986  16.808
18979TIP3    H224009   9.160   1.964  16.684
18980TIP3   OH224010   8.577   1.928  16.326
18980TIP3    H124011   8.492   1.942  16.370
18980TIP3    H224012   8.564   1.969  16.239
18981TIP3   OH224013   7.983   1.979  16.190
18981TIP3    H124014   8.007   2.001  16.281
18981TIP3    H224015   8.030   1.893  16.177
18982TIP3   OH224016   7.856   1.956  16.627
18982TIP3    H124017   7.937   2.001  16.655
18982TIP3    H224018   7.893   1.880  16.577
18983TIP3   OH224019   9.132   3.549  16.639
18983TIP3    H124020   9.228   3.539  16.647
18983TIP3    H224021   9.121   3.642  16.670
18984TIP3   OH224022   8.960   2.124  16.880
18984TIP3    H124023   8.892   2.085  16.936
18984TIP3    H224024   8.907   2.184  16.826
18985TIP3   OH224025   8.457   2.200  16.642
18985TIP3    H124026   8.410   2.138  16.583
18985TIP3    H224027   8.431   2.284  16.599
18986TIP3   OH224028   8.250   3.758  16.831
18986TIP3    H124029   8.161   3.773  16.868
18986TIP3    H224030   8.254   3.661  16.849
18987TIP3   OH224031   7.612   3.597  16.509
18987TIP3    H124032   7.623   3.520  16.571
18987TIP3    H224033   7.614   3.670  16.575
18988TIP3   OH224034   9.024   2.013  15.404
18988TIP3    H124035   9.088   1.947  15.370
18988TIP3    H224036   8.948   1.999  15.342
18989TIP3   OH224037   8.830   1.977  15.205
18989TIP3    H124038   8.744   1.953  15.244
18989TIP3    H224039   8.846   1.903  15.143
18990TIP3   OH224040   8.973   3.597  16.935
18990TIP3    H124041   9.014   3.640  16.860
18990TIP3    H224042   8.901   3.546  16.895
18991TIP3   OH224043   7.988   1.915  15.185
18991TIP3    H124044   8.011   1.827  15.153
18991TIP3    H224045   7.895   1.901  15.215
18992TIP3   OH224046   7.673   3.505  15.307
18992TIP3    H124047   7.744   3.482  15.369
18992TIP3    H224048   7.687   3.602  15.306
18993TIP3   OH224049   6.196   2.908  16.340
18993TIP3    H124050   6.219   3.004  16.347
18993TIP3    H224051   6.276   2.867  16.374
18994TIP3   OH224052   6.327   2.774  15.991
18994TIP3    H124053   6.318   2.734  15.902
18994TIP3    H224054   6.398   2.723  16.033
18995TIP3   OH224055   7.124   2.778  15.834
18995TIP3    H124056   7.117   2.705  15.770
18995TIP3    H224057   7.033   2.810  15.836
18996TIP3   OH224058   6.007   3.104  16.139
18996TIP3    H124059   6.032   3.028  16.084
18996TIP3    H224060   5.992   3.173  16.072
18997TIP3   OH224061   7.021   3.237  16.001
18997TIP3    H124062   7.050   3.149  16.031
18997TIP3    H224063   6.926   3.226  16.014
18998TIP3   OH224064   7.340   2.557  16.441
18998TIP3    H124065   7.374   2.646  16.424
18998TIP3    H224066   7.404   2.524  16.506
18999TIP3   OH224067   7.300   2.809  16.197
18999TIP3    H124068   7.265   2.719  16.177
18999TIP3    H224069   7.219   2.863  16.202
19000TIP3   OH224070   6.251   3.652  16.147
19000TIP3    H124071   6.188   3.594  16.197
19000TIP3    H224072   6.271   3.591  16.075
19001TIP3   OH224073   6.524   3.049  15.891
19001TIP3    H124074   6.488   3.034  15.979
19001TIP3    H224075   6.440   3.067  15.843
19002TIP3   OH224076   5.653   2.221  15.934
19002TIP3    H124077   5.640   2.261  15.846
19002TIP3    H224078   5.564   2.236  15.971
19003TIP3   OH224079   6.147   2.501  15.893
19003TIP3    H124080   6.132   2.407  15.874
19003TIP3    H224081   6.161   2.497  15.990
19004TIP3   OH224082   6.855   2.286  16.215
19004TIP3    H124083   6.842   2.367  16.268
19004TIP3    H224084   6.903   2.230  16.278
19005TIP3   OH224085   6.107   2.340  16.328
19005TIP3    H124086   6.048   2.291  16.266
19005TIP3    H224087   6.040   2.391  16.379
19006TIP3   OH224088   7.219   2.562  16.118
19006TIP3    H124089   7.160   2.520  16.054
19006TIP3    H224090   7.188   2.519  16.201
19007TIP3   OH224091   6.738   2.703  16.173
19007TIP3    H124092   6.655   2.659  16.148
19007TIP3    H224093   6.773   2.635  16.235
19008TIP3   OH224094   5.627   2.344  15.671
19008TIP3    H124095   5.669   2.429  15.698
19008TIP3    H224096   5.588   2.370  15.586
19009TIP3   OH224097   6.943   2.208  15.784
19009TIP3    H124098   6.984   2.254  15.860
19009TIP3    H224099   7.011   2.227  15.715
19010TIP3   OH224100   6.281   3.140  16.436
19010TIP3    H124101   6.292   3.145  16.533
19010TIP3    H224102   6.316   3.228  16.408
19011TIP3   OH224103   6.757   2.961  15.797
19011TIP3    H124104   6.809   3.036  15.761
19011TIP3    H224105   6.677   3.007  15.832
19012TIP3   OH224106   5.913   2.249  16.170
19012TIP3    H124107   5.911   2.194  16.090
19012TIP3    H224108   5.837   2.306  16.150
19013TIP3   OH224109   7.010   2.394  15.995
19013TIP3    H124110   6.950   2.461  15.955
19013TIP3    H224111   6.960   2.365  16.075
19014TIP3   OH224112   6.879   3.195  15.704
19014TIP3    H124113   6.901   3.279  15.746
19014TIP3    H224114   6.965   3.178  15.658
19015TIP3   OH224115   7.295   3.128  16.609
19015TIP3    H124116   7.287   3.176  16.694
19015TIP3    H224117   7.278   3.198  16.543
19016TIP3   OH224118   5.911   3.313  15.930
19016TIP3    H124119   6.005   3.332  15.911
19016TIP3    H224120   5.887   3.399  15.971
19017TIP3   OH224121   5.921   2.132  15.812
19017TIP3    H124122   6.003   2.161  15.858
19017TIP3    H224123   5.851   2.173  15.867
19018TIP3   OH224124   6.615   1.950  16.048
19018TIP3    H124125   6.642   1.857  16.050
19018TIP3    H224126   6.701   1.991  16.021
19019TIP3   OH224127   6.084   3.488  16.276
19019TIP3    H124128   6.056   3.409  16.326
19019TIP3    H224129   6.009   3.551  16.294
19020TIP3   OH224130   5.988   3.266  16.427
19020TIP3    H124131   5.993   3.195  16.493
19020TIP3    H224132   6.006   3.216  16.346
19021TIP3   OH224133   5.816   3.129  15.552
19021TIP3    H124134   5.822   3.051  15.611
19021TIP3    H224135   5.792   3.197  15.617
19022TIP3   OH224136   6.366   2.814  16.589
19022TIP3    H124137   6.432   2.885  16.608
19022TIP3    H224138   6.285   2.848  16.632
19023TIP3   OH224139   6.354   2.721  16.869
19023TIP3    H124140   6.290   2.739  16.797
19023TIP3    H224141   6.313   2.647  16.917
19024TIP3   OH224142   5.618   2.788  15.771
19024TIP3    H124143   5.691   2.853  15.770
19024TIP3    H224144   5.560   2.827  15.840
19025TIP3   OH224145   5.979   2.833  16.480
19025TIP3    H124146   6.053   2.862  16.422
19025TIP3    H224147   5.921   2.787  16.415
19026TIP3   OH224148   6.020   2.665  15.604
19026TIP3    H124149   6.030   2.747  15.555
19026TIP3    H224150   6.087   2.677  15.674
19027TIP3   OH224151   6.865   2.890  16.317
19027TIP3    H124152   6.872   2.848  16.405
19027TIP3    H224153   6.808   2.828  16.268
19028TIP3   OH224154   6.714   3.231  16.032
19028TIP3    H124155   6.694   3.213  16.124
19028TIP3    H224156   6.652   3.173  15.983
19029TIP3   OH224157   6.835   2.753  15.930
19029TIP3    H124158   6.805   2.755  16.025
19029TIP3    H224159   6.788   2.831  15.892
19030TIP3   OH224160   6.165   3.339  15.863
19030TIP3    H124161   6.219   3.392  15.803
19030TIP3    H224162   6.181   3.249  15.830
19031TIP3   OH224163   6.717   3.224  15.483
19031TIP3    H124164   6.782   3.276  15.430
19031TIP3    H224165   6.767   3.215  15.567
19032TIP3   OH224166   6.130   2.796  16.704
19032TIP3    H124167   6.075   2.810  16.624
19032TIP3    H224168   6.077   2.838  16.775
19033TIP3   OH224169   7.022   2.816  15.540
19033TIP3    H124170   7.022   2.891  15.479
19033TIP3    H224171   7.115   2.791  15.537
19034TIP3   OH224172   6.355   3.386  16.356
19034TIP3    H124173   6.331   3.445  16.284
19034TIP3    H224174   6.403   3.444  16.416
19035TIP3   OH224175   6.898   3.382  15.382
19035TIP3    H124176   6.913   3.424  15.470
19035TIP3    H224177   6.989   3.358  15.355
19036TIP3   OH224178   5.721   1.925  16.693
19036TIP3    H124179   5.819   1.928  16.691
19036TIP3    H224180   5.703   2.009  16.739
19037TIP3   OH224181   6.965   2.784  16.582
19037TIP3    H124182   7.008   2.867  16.610
19037TIP3    H224183   7.036   2.719  16.581
19038TIP3   OH224184   5.655   3.357  16.919
19038TIP3    H124185   5.623   3.449  16.905
19038TIP3    H224186   5.570   3.310  16.906
19039TIP3   OH224187   7.327   3.041  15.628
19039TIP3    H124188   7.362   3.028  15.718
19039TIP3    H224189   7.286   2.954  15.615
19040TIP3   OH224190   7.348   3.318  15.974
19040TIP3    H124191   7.270   3.264  15.990
19040TIP3    H224192   7.314   3.383  15.911
19041TIP3   OH224193   5.526   3.362  15.407
19041TIP3    H124194   5.555   3.271  15.421
19041TIP3    H224195   5.613   3.400  15.381
19042TIP3   OH224196   6.464   3.327  15.493
19042TIP3    H124197   6.457   3.411  15.443
19042TIP3    H224198   6.558   3.301  15.485
19043TIP3   OH224199   6.400   3.722  16.573
19043TIP3    H124200   6.401   3.755  16.665
19043TIP3    H224201   6.400   3.807  16.524
19044TIP3   OH224202   7.036   3.589  16.351
19044TIP3    H124203   7.015   3.560  16.260
19044TIP3    H224204   7.125   3.553  16.366
19045TIP3   OH224205   6.101   3.664  16.848
19045TIP3    H124206   6.047   3.588  16.875
19045TIP3    H224207   6.098   3.657  16.750
19046TIP3   OH224208   6.127   3.638  16.567
19046TIP3    H124209   6.222   3.657  16.554
19046TIP3    H224210   6.116   3.555  16.518
19047TIP3   OH224211   5.837   2.536  15.355
19047TIP3    H124212   5.902   2.562  15.423
19047TIP3    H224213   5.837   2.438  15.364
19048TIP3   OH224214   7.105   3.180  15.559
19048TIP3    H124215   7.101   3.146  15.467
19048TIP3    H224216   7.191   3.142  15.588
19049TIP3   OH224217   6.847   2.046  15.973
19049TIP3    H124218   6.940   2.035  15.999
19049TIP3    H224219   6.857   2.110  15.899
19050TIP3   OH224220   6.373   2.002  15.637
19050TIP3    H124221   6.339   1.964  15.553
19050TIP3    H224222   6.471   1.993  15.626
19051TIP3   OH224223   6.085   2.395  15.517
19051TIP3    H124224   6.144   2.366  15.443
19051TIP3    H224225   6.116   2.485  15.538
19052TIP3   OH224226   5.992   2.893  16.911
19052TIP3    H124227   5.989   2.916  17.004
19052TIP3    H224228   5.910   2.936  16.881
19053TIP3   OH224229   6.414   2.305  16.895
19053TIP3    H124230   6.451   2.297  16.806
19053TIP3    H224231   6.448   2.226  16.939
19054TIP3   OH224232   6.827   2.511  15.827
19054TIP3    H124233   6.912   2.515  15.778
19054TIP3    H224234   6.823   2.604  15.859
19055TIP3   OH224235   6.840   2.512  16.357
19055TIP3    H124236   6.937   2.504  16.367
19055TIP3    H224237   6.807   2.498  16.448
19056TIP3   OH224238   6.271   2.594  16.471
19056TIP3    H124239   6.308   2.676  16.513
19056TIP3    H224240   6.216   2.561  16.545
19057TIP3   OH224241   6.407   2.629  15.347
19057TIP3    H124242   6.451   2.550  15.308
19057TIP3    H224243   6.329   2.635  15.288
19058TIP3   OH224244   6.197   2.546  16.163
19058TIP3    H124245   6.204   2.628  16.214
19058TIP3    H224246   6.192   2.480  16.236
19059TIP3   OH224247   7.074   2.525  15.709
19059TIP3    H124248   7.050   2.559  15.622
19059TIP3    H224249   7.108   2.436  15.684
19060TIP3   OH224250   6.768   2.314  16.929
19060TIP3    H124251   6.790   2.245  16.863
19060TIP3    H224252   6.788   2.395  16.879
19061TIP3   OH224253   7.405   2.252  16.250
19061TIP3    H124254   7.338   2.261  16.182
19061TIP3    H224255   7.363   2.295  16.327
19062TIP3   OH224256   7.312   2.320  16.745
19062TIP3    H124257   7.239   2.354  16.800
19062TIP3    H224258   7.362   2.403  16.732
19063TIP3   OH224259   6.268   2.686  15.744
19063TIP3    H124260   6.220   2.613  15.790
19063TIP3    H224261   6.334   2.633  15.692
19064TIP3   OH224262   6.550   2.269  16.265
19064TIP3    H124263   6.643   2.274  16.235
19064TIP3    H224264   6.501   2.247  16.184
19065TIP3   OH224265   7.123   2.433  16.340
19065TIP3    H124266   7.193   2.472  16.397
19065TIP3    H224267   7.097   2.353  16.391
19066TIP3   OH224268   6.763   2.468  16.617
19066TIP3    H124269   6.667   2.480  16.612
19066TIP3    H224270   6.788   2.519  16.697
19067TIP3   OH224271   6.142   2.207  15.939
19067TIP3    H124272   6.207   2.208  15.866
19067TIP3    H224273   6.187   2.156  16.009
19068TIP3   OH224274   6.846   2.571  16.854
19068TIP3    H124275   6.908   2.557  16.928
19068TIP3    H224276   6.771   2.616  16.899
19069TIP3   OH224277   5.831   3.760  15.277
19069TIP3    H124278   5.800   3.825  15.342
19069TIP3    H224279   5.788   3.793  15.196
19070TIP3   OH224280   7.061   3.007  15.315
19070TIP3    H124281   7.015   3.074  15.261
19070TIP3    H224282   7.150   3.009  15.271
19071TIP3   OH224283   6.499   2.549  16.090
19071TIP3    H124284   6.404   2.529  16.105
19071TIP3    H224285   6.529   2.477  16.034
19072TIP3   OH224286   7.011   2.185  16.419
19072TIP3    H124287   7.063   2.116  16.373
19072TIP3    H224288   6.971   2.133  16.491
19073TIP3   OH224289   6.595   2.375  15.826
19073TIP3    H124290   6.672   2.436  15.834
19073TIP3    H224291   6.532   2.428  15.775
19074TIP3   OH224292   6.533   3.024  16.616
19074TIP3    H124293   6.608   2.975  16.656
19074TIP3    H224294   6.573   3.052  16.531
19075TIP3   OH224295   5.810   2.977  15.766
19075TIP3    H124296   5.757   3.030  15.831
19075TIP3    H224297   5.891   2.963  15.818
19076TIP3   OH224298   6.155   2.315  16.843
19076TIP3    H124299   6.242   2.337  16.883
19076TIP3    H224300   6.136   2.396  16.792
19077TIP3   OH224301   6.368   3.073  15.473
19077TIP3    H124302   6.449   3.036  15.435
19077TIP3    H224303   6.394   3.166  15.489
19078TIP3   OH224304   6.096   2.518  16.666
19078TIP3    H124305   6.037   2.492  16.593
19078TIP3    H224306   6.052   2.598  16.701
19079TIP3   OH224307   7.031   2.975  16.101
19079TIP3    H124308   6.977   2.973  16.182
19079TIP3    H224309   6.990   2.905  16.048
19080TIP3   OH224310   6.318   3.151  16.715
19080TIP3    H124311   6.361   3.237  16.695
19080TIP3    H224312   6.393   3.091  16.690
19081TIP3   OH224313   7.300   2.757  15.547
19081TIP3    H124314   7.355   2.724  15.473
19081TIP3    H224315   7.366   2.746  15.619
19082TIP3   OH224316   6.646   2.765  15.361
19082TIP3    H124317   6.679   2.724  15.443
19082TIP3    H224318   6.559   2.721  15.349
19083TIP3   OH224319   6.126   3.290  15.512
19083TIP3    H124320   6.203   3.321  15.561
19083TIP3    H224321   6.149   3.329  15.424
19084TIP3   OH224322   5.602   2.512  16.674
19084TIP3    H124323   5.666   2.506  16.749
19084TIP3    H224324   5.580   2.607  16.681
19085TIP3   OH224325   5.587   3.081  15.422
19085TIP3    H124326   5.675   3.108  15.459
19085TIP3    H224327   5.535   3.065  15.505
19086TIP3   OH224328   5.759   3.374  16.668
19086TIP3    H124329   5.801   3.293  16.640
19086TIP3    H224330   5.741   3.362  16.764
19087TIP3   OH224331   6.050   2.882  15.946
19087TIP3    H124332   6.142   2.857  15.966
19087TIP3    H224333   6.003   2.813  15.995
19088TIP3   OH224334   6.796   3.316  16.337
19088TIP3    H124335   6.774   3.410  16.349
19088TIP3    H224336   6.880   3.313  16.387
19089TIP3   OH224337   7.190   2.810  16.884
19089TIP3    H124338   7.141   2.861  16.816
19089TIP3    H224339   7.281   2.810  16.851
19090TIP3   OH224340   6.658   3.084  16.380
19090TIP3    H124341   6.704   3.171  16.370
19090TIP3    H224342   6.717   3.023  16.334
19091TIP3   OH224343   6.606   3.496  15.689
19091TIP3    H124344   6.545   3.558  15.734
19091TIP3    H224345   6.549   3.462  15.618
19092TIP3   OH224346   6.773   3.570  16.433
19092TIP3    H124347   6.869   3.579  16.416
19092TIP3    H224348   6.743   3.656  16.394
19093TIP3   OH224349   6.281   3.085  15.773
19093TIP3    H124350   6.303   3.064  15.680
19093TIP3    H224351   6.209   3.023  15.791
19094TIP3   OH224352   6.015   3.229  16.826
19094TIP3    H124353   5.984   3.172  16.752
19094TIP3    H224354   6.108   3.200  16.828
19095TIP3   OH224355   5.958   3.544  15.513
19095TIP3    H124356   6.041   3.493  15.517
19095TIP3    H224357   5.962   3.594  15.597
19096TIP3   OH224358   5.575   3.634  16.829
19096TIP3    H124359   5.535   3.704  16.883
19096TIP3    H224360   5.648   3.684  16.786
19097TIP3   OH224361   7.143   2.287  15.590
19097TIP3    H124362   7.231   2.323  15.571
19097TIP3    H224363   7.150   2.199  15.548
19098TIP3   OH224364   5.932   3.058  16.626
19098TIP3    H124365   5.947   2.972  16.580
19098TIP3    H224366   5.836   3.068  16.613
19099TIP3   OH224367   7.199   3.455  15.759
19099TIP3    H124368   7.133   3.384  15.757
19099TIP3    H224369   7.169   3.509  15.683
19100TIP3   OH224370   6.731   3.261  16.763
19100TIP3    H124371   6.668   3.218  16.703
19100TIP3    H224372   6.716   3.357  16.741
19101TIP3   OH224373   7.079   2.998  16.723
19101TIP3    H124374   7.144   3.034  16.660
19101TIP3    H224375   7.041   3.080  16.761
19102TIP3   OH224376   6.254   2.247  15.676
19102TIP3    H124377   6.184   2.268  15.612
19102TIP3    H224378   6.291   2.163  15.644
19103TIP3   OH224379   6.220   2.227  16.538
19103TIP3    H124380   6.185   2.272  16.615
19103TIP3    H224381   6.182   2.278  16.462
19104TIP3   OH224382   6.424   3.398  16.662
19104TIP3    H124383   6.492   3.466  16.646
19104TIP3    H224384   6.373   3.440  16.735
19105TIP3   OH224385   6.485   2.409  16.507
19105TIP3    H124386   6.415   2.475  16.491
19105TIP3    H224387   6.502   2.370  16.419
19106TIP3   OH224388   6.400   2.511  15.595
19106TIP3    H124389   6.401   2.557  15.507
19106TIP3    H224390   6.369   2.422  15.573
19107TIP3   OH224391   6.422   2.075  16.439
19107TIP3    H124392   6.461   2.137  16.373
19107TIP3    H224393   6.344   2.129  16.470
19108TIP3   OH224394   6.701   3.524  16.697
19108TIP3    H124395   6.672   3.609  16.736
19108TIP3    H224396   6.738   3.555  16.612
19109TIP3   OH224397   6.857   2.201  16.702
19109TIP3    H124398   6.858   2.286  16.654
19109TIP3    H224399   6.772   2.162  16.672
19110TIP3   OH224400   5.839   2.291  15.494
19110TIP3    H124401   5.932   2.315  15.514
19110TIP3    H224402   5.795   2.294  15.580
19111TIP3   OH224403   5.939   2.642  16.100
19111TIP3    H124404   6.017   2.585  16.092
19111TIP3    H224405   5.871   2.594  16.048
19112TIP3   OH224406   7.004   3.243  16.844
19112TIP3    H124407   6.921   3.274  16.803
19112TIP3    H224408   6.965   3.197  16.921
19113TIP3   OH224409   7.181   2.536  16.921
19113TIP3    H124410   7.164   2.632  16.911
19113TIP3    H224411   7.255   2.536  16.983
19114TIP3   OH224412   5.849   3.585  15.939
19114TIP3    H124413   5.844   3.660  16.003
19114TIP3    H224414   5.753   3.568  15.933
19115TIP3   OH224415   7.108   1.998  16.026
19115TIP3    H124416   7.106   1.983  16.123
19115TIP3    H224417   7.130   1.908  15.994
19116TIP3   OH224418   7.235   3.386  16.463
19116TIP3    H124419   7.318   3.422  16.426
19116TIP3    H224420   7.224   3.446  16.540
19117TIP3   OH224421   7.302   3.667  15.287
19117TIP3    H124422   7.216   3.646  15.246
19117TIP3    H224423   7.339   3.578  15.306
19118TIP3   OH224424   6.805   3.522  15.163
19118TIP3    H124425   6.709   3.537  15.174
19118TIP3    H224426   6.833   3.486  15.249
19119TIP3   OH224427   6.340   3.519  16.897
19119TIP3    H124428   6.402   3.459  16.944
19119TIP3    H224429   6.278   3.543  16.968
19120TIP3   OH224430   6.176   3.410  15.278
19120TIP3    H124431   6.208   3.334  15.226
19120TIP3    H224432   6.120   3.454  15.213
19121TIP3   OH224433   5.919   3.468  16.986
19121TIP3    H124434   5.950   3.391  16.934
19121TIP3    H224435   5.823   3.453  16.982
19122TIP3   OH224436   7.307   3.020  15.207
19122TIP3    H124437   7.335   2.927  15.210
19122TIP3    H224438   7.365   3.065  15.271
19123TIP3   OH224439   6.832   3.050  16.983
19123TIP3    H124440   6.766   3.043  16.912
19123TIP3    H224441   6.787   2.995  17.051
19124TIP3   OH224442   6.630   3.031  15.310
19124TIP3    H124443   6.670   3.087  15.380
19124TIP3    H224444   6.645   2.938  15.340
19125TIP3   OH224445   6.065   3.016  15.509
19125TIP3    H124446   5.982   3.068  15.500
19125TIP3    H224447   6.127   3.090  15.495
19126TIP3   OH224448   7.249   2.731  15.206
19126TIP3    H124449   7.197   2.729  15.288
19126TIP3    H224450   7.203   2.664  15.153
19127TIP3   OH224451   6.724   2.882  16.746
19127TIP3    H124452   6.797   2.829  16.706
19127TIP3    H224453   6.687   2.819  16.810
19128TIP3   OH224454   6.819   2.646  15.560
19128TIP3    H124455   6.884   2.717  15.545
19128TIP3    H224456   6.752   2.689  15.617
19129TIP3   OH224457   6.610   2.690  16.955
19129TIP3    H124458   6.582   2.693  17.048
19129TIP3    H224459   6.522   2.696  16.909
19130TIP3   OH224460   5.732   2.974   8.513
19130TIP3    H124461   5.780   2.996   8.594
19130TIP3    H224462   5.693   3.059   8.488
19131TIP3   OH224463   6.803   2.407  15.448
19131TIP3    H124464   6.766   2.340  15.508
19131TIP3    H224465   6.817   2.485  15.507
19132TIP3   OH224466   6.715   2.217  15.646
19132TIP3    H124467   6.662   2.263  15.715
19132TIP3    H224468   6.804   2.220  15.688
19133TIP3   OH224469   6.604   2.798  15.645
19133TIP3    H124470   6.518   2.826  15.678
19133TIP3    H224471   6.664   2.864  15.686
19134TIP3   OH224472   6.167   2.543  15.153
19134TIP3    H124473   6.137   2.452  15.155
19134TIP3    H224474   6.083   2.592  15.146
19135TIP3   OH224475   5.994   2.839  15.306
19135TIP3    H124476   6.032   2.891  15.380
19135TIP3    H224477   5.901   2.831  15.336
19136TIP3   OH224478   6.980   2.518  15.248
19136TIP3    H124479   7.030   2.435  15.249
19136TIP3    H224480   6.912   2.497  15.316
19137TIP3   OH224481   6.641   1.963  15.635
19137TIP3    H124482   6.673   2.056  15.641
19137TIP3    H224483   6.713   1.916  15.679
19138TIP3   OH224484   6.532   2.405  15.244
19138TIP3    H124485   6.554   2.368  15.156
19138TIP3    H224486   6.610   2.387  15.298
19139TIP3   OH224487   6.251   2.298  15.340
19139TIP3    H124488   6.341   2.317  15.308
19139TIP3    H224489   6.213   2.246  15.265
19140TIP3   OH224490   6.136   2.168  15.134
19140TIP3    H124491   6.126   2.072  15.150
19140TIP3    H224492   6.114   2.171  15.039
19141TIP3   OH224493   7.124   2.292  15.214
19141TIP3    H124494   7.127   2.226  15.286
19141TIP3    H224495   7.151   2.238  15.138
19142TIP3   OH224496   6.634   1.916  15.358
19142TIP3    H124497   6.562   1.848  15.363
19142TIP3    H224498   6.634   1.944  15.451
19143TIP3   OH224499   6.632   2.061  15.132
19143TIP3    H124500   6.634   1.997  15.208
19143TIP3    H224501   6.646   2.143  15.181
19144TIP3   OH224502   6.655   3.761  16.822
19144TIP3    H124503   6.572   3.808  16.805
19144TIP3    H224504   6.646   3.745  16.918
19145TIP3   OH224505   7.295   3.199  16.879
19145TIP3    H124506   7.199   3.217  16.873
19145TIP3    H224507   7.301   3.176  16.973
19146TIP3   OH224508   7.398   3.713  16.398
19146TIP3    H124509   7.475   3.658  16.426
19146TIP3    H224510   7.367   3.664  16.319
19147TIP3   OH224511   7.320   3.554  16.190
19147TIP3    H124512   7.376   3.486  16.149
19147TIP3    H224513   7.267   3.584  16.114
19148TIP3   OH224514   5.561   3.637  15.939
19148TIP3    H124515   5.553   3.639  15.843
19148TIP3    H224516   5.516   3.719  15.963
19149TIP3   OH224517   5.632   3.604  15.644
19149TIP3    H124518   5.666   3.520  15.684
19149TIP3    H224519   5.584   3.569  15.567
19150TIP3   OH224520   5.763   3.132  15.136
19150TIP3    H124521   5.853   3.144  15.102
19150TIP3    H224522   5.720   3.212  15.101
19151TIP3   OH224523   5.654   3.009  16.616
19151TIP3    H124524   5.570   3.059  16.603
19151TIP3    H224525   5.650   2.943  16.543
19152TIP3   OH224526   5.610   2.811  16.429
19152TIP3    H124527   5.689   2.776  16.380
19152TIP3    H224528   5.550   2.828  16.354
19153TIP3   OH224529   5.650   3.093  15.938
19153TIP3    H124530   5.581   3.030  15.969
19153TIP3    H224531   5.605   3.179  15.945
19154TIP3   OH224532   5.757   3.360  15.705
19154TIP3    H124533   5.824   3.397  15.646
19154TIP3    H224534   5.809   3.334  15.785
19155TIP3   OH224535   5.587   2.808  16.799
19155TIP3    H124536   5.652   2.836  16.866
19155TIP3    H224537   5.604   2.876  16.730
19156TIP3   OH224538   5.805   2.512  16.910
19156TIP3    H124539   5.734   2.552  16.965
19156TIP3    H224540   5.791   2.418  16.935
19157TIP3   OH224541   5.818   2.685  16.329
19157TIP3    H124542   5.835   2.596  16.363
19157TIP3    H224543   5.843   2.675  16.235
19158TIP3   OH224544   7.331   2.896  15.945
19158TIP3    H124545   7.332   2.864  16.038
19158TIP3    H224546   7.242   2.862  15.915
19159TIP3   OH224547   5.738   2.847  15.398
19159TIP3    H124548   5.672   2.793  15.350
19159TIP3    H224549   5.701   2.937  15.389
19160TIP3   OH224550   5.574   2.620  15.344
19160TIP3    H124551   5.671   2.610  15.354
19160TIP3    H224552   5.545   2.527  15.351
19161TIP3   OH224553   5.819   2.266  17.022
19161TIP3    H124554   5.757   2.218  16.960
19161TIP3    H224555   5.907   2.252  16.982
19162TIP3   OH224556   5.886   2.442  16.493
19162TIP3    H124557   5.852   2.354  16.465
19162TIP3    H224558   5.831   2.454  16.572
19163TIP3   OH224559   5.773   2.491  15.948
19163TIP3    H124560   5.674   2.498  15.947
19163TIP3    H224561   5.789   2.503  15.852
19164TIP3   OH224562   5.773   2.563  15.687
19164TIP3    H124563   5.857   2.580  15.639
19164TIP3    H224564   5.739   2.654  15.707
19165TIP3   OH224565   7.382   2.401  15.302
19165TIP3    H124566   7.291   2.377  15.281
19165TIP3    H224567   7.429   2.316  15.287
19166TIP3   OH224568   5.796   2.165  16.488
19166TIP3    H124569   5.760   2.123  16.407
19166TIP3    H224570   5.842   2.090  16.531
19167TIP3   OH224571   7.238   2.236  16.002
19167TIP3    H124572   7.201   2.145  16.006
19167TIP3    H224573   7.157   2.291  16.005
19168TIP3   OH224574   7.388   2.528  15.918
19168TIP3    H124575   7.347   2.500  16.003
19168TIP3    H224576   7.341   2.612  15.905
19169TIP3   OH224577   5.613   2.159  15.329
19169TIP3    H124578   5.693   2.209  15.302
19169TIP3    H224579   5.645   2.116  15.410
19170TIP3   OH224580   5.621   2.173  16.857
19170TIP3    H124581   5.577   2.123  16.928
19170TIP3    H224582   5.547   2.229  16.824
19171TIP3   OH224583   7.379   2.160  16.537
19171TIP3    H124584   7.473   2.171  16.519
19171TIP3    H224585   7.369   2.208  16.621
19172TIP3   OH224586   5.893   3.666  16.316
19172TIP3    H124587   5.818   3.646  16.376
19172TIP3    H224588   5.855   3.724  16.247
19173TIP3   OH224589   7.383   2.010  15.703
19173TIP3    H124590   7.453   1.969  15.647
19173TIP3    H224591   7.432   2.083  15.745
19174TIP3   OH224592   7.145   3.335  15.264
19174TIP3    H124593   7.223   3.361  15.315
19174TIP3    H224594   7.177   3.332  15.173
19175TIP3   OH224595   6.872   3.487  15.630
19175TIP3    H124596   6.876   3.579  15.665
19175TIP3    H224597   6.777   3.470  15.644
19176TIP3   OH224598   6.453   3.598  15.392
19176TIP3    H124599   6.438   3.585  15.295
19176TIP3    H224600   6.365   3.635  15.415
19177TIP3   OH224601   6.226   3.731  15.442
19177TIP3    H124602   6.150   3.689  15.486
19177TIP3    H224603   6.183   3.777  15.367
19178TIP3   OH224604   5.719   1.974  15.520
19178TIP3    H124605   5.797   2.016  15.560
19178TIP3    H224606   5.717   1.887  15.564
19179TIP3   OH224607   7.132   3.779  15.668
19179TIP3    H124608   7.212   3.822  15.704
19179TIP3    H224609   7.138   3.804  15.575
19180TIP3   OH224610   6.900   3.722  15.775
19180TIP3    H124611   6.994   3.742  15.753
19180TIP3    H224612   6.882   3.790  15.842
19181TIP3   OH224613   6.434   3.689  15.832
19181TIP3    H124614   6.483   3.730  15.905
19181TIP3    H224615   6.402   3.767  15.782
19182TIP3   OH224616   6.216   3.566  15.696
19182TIP3    H124617   6.282   3.609  15.753
19182TIP3    H224618   6.139   3.624  15.717
19183TIP3   OH224619   5.956   3.720  15.735
19183TIP3    H124620   5.941   3.812  15.765
19183TIP3    H224621   5.918   3.672  15.813
19184TIP3   OH224622   7.164   3.628  15.981
19184TIP3    H124623   7.184   3.569  15.906
19184TIP3    H224624   7.076   3.594  16.010
19185TIP3   OH224625   6.946   3.522  16.098
19185TIP3    H124626   6.961   3.429  16.075
19185TIP3    H224627   6.857   3.535  16.057
19186TIP3   OH224628   6.710   3.517  15.966
19186TIP3    H124629   6.683   3.424  15.984
19186TIP3    H224630   6.710   3.516  15.869
19187TIP3   OH224631   6.359   2.103  16.100
19187TIP3    H124632   6.440   2.087  16.050
19187TIP3    H224633   6.353   2.020  16.148
19188TIP3   OH224634   5.836   1.914  16.103
19188TIP3    H124635   5.776   1.973  16.154
19188TIP3    H224636   5.926   1.949  16.129
19189TIP3   OH224637   5.673   2.026  16.284
19189TIP3    H124638   5.610   1.968  16.333
19189TIP3    H224639   5.615   2.103  16.261
19190TIP3   OH224640   7.125   1.959  16.304
19190TIP3    H124641   7.208   1.945  16.353
19190TIP3    H224642   7.080   1.873  16.320
19191TIP3   OH224643   7.270   1.954  16.754
19191TIP3    H124644   7.210   2.016  16.801
19191TIP3    H224645   7.312   2.009  16.686
19192TIP3   OH224646   6.696   1.930  16.326
19192TIP3    H124647   6.611   1.941  16.372
19192TIP3    H224648   6.681   1.973  16.241
19193TIP3   OH224649   6.086   1.961  16.193
19193TIP3    H124650   6.126   1.996  16.272
19193TIP3    H224651   6.146   1.886  16.170
19194TIP3   OH224652   5.965   1.957  16.628
19194TIP3    H124653   6.048   2.005  16.642
19194TIP3    H224654   6.001   1.879  16.579
19195TIP3   OH224655   7.271   3.572  16.653
19195TIP3    H124656   7.359   3.569  16.696
19195TIP3    H224657   7.252   3.666  16.672
19196TIP3   OH224658   7.085   2.089  16.888
19196TIP3    H124659   6.999   2.046  16.897
19196TIP3    H224660   7.060   2.177  16.855
19197TIP3   OH224661   6.566   2.197  16.651
19197TIP3    H124662   6.522   2.134  16.591
19197TIP3    H224663   6.542   2.282  16.605
19198TIP3   OH224664   6.367   3.776  16.832
19198TIP3    H124665   6.280   3.795  16.872
19198TIP3    H224666   6.364   3.678  16.845
19199TIP3   OH224667   5.723   3.590  16.510
19199TIP3    H124668   5.735   3.514  16.572
19199TIP3    H224669   5.728   3.664  16.574
19200TIP3   OH224670   7.175   2.041  15.371
19200TIP3    H124671   7.219   1.954  15.360
19200TIP3    H224672   7.087   2.023  15.330
19201TIP3   OH224673   6.966   1.979  15.207
19201TIP3    H124674   6.872   1.954  15.217
19201TIP3    H224675   7.004   1.896  15.173
19202TIP3   OH224676   7.070   3.672  16.944
19202TIP3    H124677   7.137   3.712  16.886
19202TIP3    H224678   7.048   3.589  16.900
19203TIP3   OH224679   6.117   1.907  15.194
19203TIP3    H124680   6.140   1.832  15.135
19203TIP3    H224681   6.021   1.890  15.208
19204TIP3   OH224682   5.752   3.493  15.354
19204TIP3    H124683   5.840   3.485  15.397
19204TIP3    H224684   5.756   3.587  15.330
19205TIP3   OH224685   4.322   2.904  16.338
19205TIP3    H124686   4.344   3.000  16.347
19205TIP3    H224687   4.401   2.862  16.375
19206TIP3   OH224688   4.444   2.781  15.999
19206TIP3    H124689   4.443   2.742  15.908
19206TIP3    H224690   4.516   2.733  16.043
19207TIP3   OH224691   5.240   2.801  15.829
19207TIP3    H124692   5.245   2.713  15.787
19207TIP3    H224693   5.156   2.836  15.793
19208TIP3   OH224694   4.114   3.098  16.126
19208TIP3    H124695   4.138   3.026  16.065
19208TIP3    H224696   4.096   3.171  16.066
19209TIP3   OH224697   5.116   3.238  16.004
19209TIP3    H124698   5.148   3.152  16.039
19209TIP3    H224699   5.021   3.227  16.021
19210TIP3   OH224700   5.448   2.556  16.436
19210TIP3    H124701   5.480   2.647  16.429
19210TIP3    H224702   5.509   2.518  16.501
19211TIP3   OH224703   5.406   2.820  16.199
19211TIP3    H124704   5.378   2.726  16.186
19211TIP3    H224705   5.322   2.868  16.202
19212TIP3   OH224706   4.360   3.646  16.148
19212TIP3    H124707   4.299   3.587  16.198
19212TIP3    H224708   4.384   3.582  16.079
19213TIP3   OH224709   4.651   3.055  15.882
19213TIP3    H124710   4.624   3.049  15.974
19213TIP3    H224711   4.563   3.066  15.839
19214TIP3   OH224712   3.752   2.209  15.884
19214TIP3    H124713   3.738   2.257  15.800
19214TIP3    H224714   3.672   2.237  15.932
19215TIP3   OH224715   4.255   2.517  15.887
19215TIP3    H124716   4.240   2.424  15.860
19215TIP3    H224717   4.288   2.502  15.978
19216TIP3   OH224718   4.973   2.286  16.213
19216TIP3    H124719   4.959   2.369  16.264
19216TIP3    H224720   5.022   2.234  16.280
19217TIP3   OH224721   4.225   2.331  16.325
19217TIP3    H124722   4.163   2.288  16.262
19217TIP3    H224723   4.165   2.390  16.373
19218TIP3   OH224724   5.332   2.562  16.135
19218TIP3    H124725   5.270   2.519  16.073
19218TIP3    H224726   5.301   2.523  16.220
19219TIP3   OH224727   4.843   2.708  16.174
19219TIP3    H124728   4.762   2.663  16.140
19219TIP3    H224729   4.872   2.643  16.242
19220TIP3   OH224730   3.750   2.339  15.641
19220TIP3    H124731   3.780   2.423  15.682
19220TIP3    H224732   3.731   2.370  15.550
19221TIP3   OH224733   5.068   2.218  15.801
19221TIP3    H124734   5.119   2.266  15.870
19221TIP3    H224735   5.129   2.231  15.726
19222TIP3   OH224736   4.396   3.135  16.436
19222TIP3    H124737   4.410   3.142  16.533
19222TIP3    H224738   4.433   3.221  16.404
19223TIP3   OH224739   4.880   2.960  15.786
19223TIP3    H124740   4.935   3.033  15.750
19223TIP3    H224741   4.802   3.010  15.820
19224TIP3   OH224742   4.013   2.237  16.172
19224TIP3    H124743   4.021   2.196  16.085
19224TIP3    H224744   3.939   2.296  16.159
19225TIP3   OH224745   5.128   2.397  16.000
19225TIP3    H124746   5.066   2.456  15.952
19225TIP3    H224747   5.074   2.370  16.078
19226TIP3   OH224748   4.993   3.189  15.694
19226TIP3    H124749   5.020   3.270  15.740
19226TIP3    H224750   5.074   3.171  15.639
19227TIP3   OH224751   5.411   3.126  16.615
19227TIP3    H124752   5.400   3.176  16.698
19227TIP3    H224753   5.394   3.196  16.549
19228TIP3   OH224754   4.029   3.311  15.924
19228TIP3    H124755   4.124   3.331  15.910
19228TIP3    H224756   4.003   3.396  15.965
19229TIP3   OH224757   4.037   2.145  15.805
19229TIP3    H124758   4.116   2.175  15.857
19229TIP3    H224759   3.963   2.194  15.844
19230TIP3   OH224760   4.741   1.936  16.041
19230TIP3    H124761   4.777   1.847  16.038
19230TIP3    H224762   4.822   1.988  16.016
19231TIP3   OH224763   4.198   3.475  16.277
19231TIP3    H124764   4.174   3.394  16.326
19231TIP3    H224765   4.120   3.534  16.295
19232TIP3   OH224766   4.081   3.255  16.426
19232TIP3    H124767   4.109   3.191  16.493
19232TIP3    H224768   4.103   3.207  16.344
19233TIP3   OH224769   3.935   3.137  15.552
19233TIP3    H124770   3.920   3.066  15.619
19233TIP3    H224771   3.926   3.216  15.608
19234TIP3   OH224772   4.482   2.810  16.591
19234TIP3    H124773   4.544   2.886  16.607
19234TIP3    H224774   4.397   2.845  16.627
19235TIP3   OH224775   4.474   2.722  16.864
19235TIP3    H124776   4.418   2.743  16.787
19235TIP3    H224777   4.431   2.644  16.902
19236TIP3   OH224778   3.730   2.777  15.762
19236TIP3    H124779   3.801   2.843  15.776
19236TIP3    H224780   3.670   2.802  15.835
19237TIP3   OH224781   4.087   2.861  16.469
19237TIP3    H124782   4.168   2.875  16.414
19237TIP3    H224783   4.033   2.805  16.408
19238TIP3   OH224784   4.135   2.656  15.556
19238TIP3    H124785   4.137   2.745  15.516
19238TIP3    H224786   4.193   2.672  15.633
19239TIP3   OH224787   4.979   2.891  16.309
19239TIP3    H124788   5.001   2.844  16.393
19239TIP3    H224789   4.915   2.829  16.268
19240TIP3   OH224790   4.831   3.232  16.035
19240TIP3    H124791   4.817   3.207  16.127
19240TIP3    H224792   4.769   3.176  15.984
19241TIP3   OH224793   4.953   2.754  15.929
19241TIP3    H124794   4.914   2.762  16.019
19241TIP3    H224795   4.912   2.829  15.881
19242TIP3   OH224796   4.288   3.349  15.875
19242TIP3    H124797   4.340   3.402  15.812
19242TIP3    H224798   4.299   3.259  15.839
19243TIP3   OH224799   4.834   3.206  15.475
19243TIP3    H124800   4.902   3.264  15.431
19243TIP3    H224801   4.876   3.200  15.564
19244TIP3   OH224802   4.240   2.803  16.694
19244TIP3    H124803   4.182   2.825  16.619
19244TIP3    H224804   4.191   2.843  16.770
19245TIP3   OH224805   5.128   2.824  15.572
19245TIP3    H124806   5.128   2.912  15.534
19245TIP3    H224807   5.220   2.796  15.555
19246TIP3   OH224808   4.470   3.379  16.349
19246TIP3    H124809   4.446   3.443  16.282
19246TIP3    H224810   4.508   3.434  16.418
19247TIP3   OH224811   5.001   3.379  15.378
19247TIP3    H124812   5.023   3.428  15.460
19247TIP3    H224813   5.080   3.393  15.323
19248TIP3   OH224814   3.836   1.922  16.684
19248TIP3    H124815   3.934   1.929  16.685
19248TIP3    H224816   3.813   2.004  16.730
19249TIP3   OH224817   5.082   2.777  16.541
19249TIP3    H124818   5.126   2.859  16.572
19249TIP3    H224819   5.143   2.709  16.572
19250TIP3   OH224820   3.770   3.362  16.916
19250TIP3    H124821   3.733   3.452  16.909
19250TIP3    H224822   3.686   3.311  16.907
19251TIP3   OH224823   5.437   3.057  15.640
19251TIP3    H124824   5.482   3.038  15.724
19251TIP3    H224825   5.398   2.968  15.626
19252TIP3   OH224826   5.471   3.329  15.992
19252TIP3    H124827   5.395   3.273  15.971
19252TIP3    H224828   5.453   3.406  15.936
19253TIP3   OH224829   3.665   3.393  15.406
19253TIP3    H124830   3.667   3.298  15.428
19253TIP3    H224831   3.758   3.406  15.373
19254TIP3   OH224832   4.588   3.338  15.496
19254TIP3    H124833   4.579   3.416  15.438
19254TIP3    H224834   4.678   3.304  15.479
19255TIP3   OH224835   4.502   3.711  16.574
19255TIP3    H124836   4.505   3.734  16.669
19255TIP3    H224837   4.509   3.800  16.533
19256TIP3   OH224838   5.143   3.592  16.356
19256TIP3    H124839   5.126   3.564  16.263
19256TIP3    H224840   5.232   3.556  16.373
19257TIP3   OH224841   4.215   3.656  16.847
19257TIP3    H124842   4.155   3.583  16.870
19257TIP3    H224843   4.216   3.650  16.749
19258TIP3   OH224844   4.240   3.638  16.571
19258TIP3    H124845   4.336   3.660  16.560
19258TIP3    H224846   4.233   3.554  16.523
19259TIP3   OH224847   3.974   2.507  15.356
19259TIP3    H124848   4.045   2.555  15.403
19259TIP3    H224849   3.979   2.419  15.399
19260TIP3   OH224850   5.209   3.172  15.547
19260TIP3    H124851   5.199   3.147  15.452
19260TIP3    H224852   5.303   3.151  15.566
19261TIP3   OH224853   4.958   2.050  15.969
19261TIP3    H124854   5.046   2.041  16.010
19261TIP3    H224855   4.983   2.109  15.894
19262TIP3   OH224856   4.465   1.988  15.642
19262TIP3    H124857   4.427   1.947  15.561
19262TIP3    H224858   4.561   1.995  15.621
19263TIP3   OH224859   4.179   2.390  15.538
19263TIP3    H124860   4.245   2.387  15.465
19263TIP3    H224861   4.164   2.486  15.552
19264TIP3   OH224862   4.109   2.893  16.907
19264TIP3    H124863   4.094   2.894  17.003
19264TIP3    H224864   4.036   2.951  16.880
19265TIP3   OH224865   4.523   2.304  16.894
19265TIP3    H124866   4.572   2.301  16.810
19265TIP3    H224867   4.554   2.224  16.937
19266TIP3   OH224868   4.945   2.507  15.839
19266TIP3    H124869   5.016   2.519  15.772
19266TIP3    H224870   4.939   2.599  15.873
19267TIP3   OH224871   4.948   2.510  16.354
19267TIP3    H124872   5.045   2.509  16.366
19267TIP3    H224873   4.916   2.491  16.445
19268TIP3   OH224874   4.388   2.596  16.467
19268TIP3    H124875   4.424   2.677  16.510
19268TIP3    H224876   4.332   2.563  16.540
19269TIP3   OH224877   4.551   2.640  15.342
19269TIP3    H124878   4.587   2.553  15.313
19269TIP3    H224879   4.464   2.635  15.299
19270TIP3   OH224880   4.313   2.544  16.158
19270TIP3    H124881   4.311   2.627  16.209
19270TIP3    H224882   4.309   2.479  16.230
19271TIP3   OH224883   5.206   2.526  15.715
19271TIP3    H124884   5.160   2.567  15.641
19271TIP3    H224885   5.233   2.440  15.679
19272TIP3   OH224886   4.877   2.314  16.932
19272TIP3    H124887   4.907   2.249  16.865
19272TIP3    H224888   4.904   2.399  16.892
19273TIP3   OH224889   5.518   2.243  16.257
19273TIP3    H124890   5.448   2.260  16.192
19273TIP3    H224891   5.473   2.241  16.342
19274TIP3   OH224892   5.420   2.319  16.742
19274TIP3    H124893   5.351   2.353  16.803
19274TIP3    H224894   5.472   2.401  16.729
19275TIP3   OH224895   4.388   2.711  15.751
19275TIP3    H124896   4.329   2.644  15.792
19275TIP3    H224897   4.446   2.654  15.695
19276TIP3   OH224898   4.664   2.278  16.242
19276TIP3    H124899   4.759   2.281  16.218
19276TIP3    H224900   4.625   2.237  16.161
19277TIP3   OH224901   5.218   2.441  16.358
19277TIP3    H124902   5.297   2.475  16.407
19277TIP3    H224903   5.206   2.351  16.395
19278TIP3   OH224904   4.880   2.459  16.618
19278TIP3    H124905   4.784   2.475  16.611
19278TIP3    H224906   4.904   2.512  16.697
19279TIP3   OH224907   4.254   2.212  15.943
19279TIP3    H124908   4.317   2.206  15.868
19279TIP3    H224909   4.288   2.145  16.004
19280TIP3   OH224910   4.957   2.562  16.856
19280TIP3    H124911   5.025   2.557  16.925
19280TIP3    H224912   4.885   2.611  16.901
19281TIP3   OH224913   3.964   3.761  15.269
19281TIP3    H124914   3.937   3.806  15.352
19281TIP3    H224915   3.888   3.781  15.214
19282TIP3   OH224916   5.197   3.084  15.292
19282TIP3    H124917   5.122   3.051  15.238
19282TIP3    H224918   5.270   3.028  15.257
19283TIP3   OH224919   4.612   2.564  16.093
19283TIP3    H124920   4.522   2.535  16.116
19283TIP3    H224921   4.646   2.491  16.039
19284TIP3   OH224922   5.130   2.182  16.421
19284TIP3    H124923   5.173   2.110  16.370
19284TIP3    H224924   5.085   2.132  16.491
19285TIP3   OH224925   4.710   2.386  15.818
19285TIP3    H124926   4.788   2.443  15.831
19285TIP3    H224927   4.647   2.447  15.778
19286TIP3   OH224928   4.649   3.018  16.615
19286TIP3    H124929   4.725   2.968  16.654
19286TIP3    H224930   4.690   3.047  16.529
19287TIP3   OH224931   3.910   2.976  15.762
19287TIP3    H124932   3.864   3.033  15.828
19287TIP3    H224933   3.997   2.968  15.805
19288TIP3   OH224934   4.264   2.317  16.836
19288TIP3    H124935   4.353   2.332  16.876
19288TIP3    H224936   4.250   2.402  16.790
19289TIP3   OH224937   4.543   3.063  15.512
19289TIP3    H124938   4.575   3.031  15.426
19289TIP3    H224939   4.556   3.158  15.501
19290TIP3   OH224940   4.205   2.525  16.661
19290TIP3    H124941   4.136   2.499  16.597
19290TIP3    H224942   4.170   2.609  16.694
19291TIP3   OH224943   5.140   2.978  16.095
19291TIP3    H124944   5.085   2.962  16.174
19291TIP3    H224945   5.112   2.908  16.034
19292TIP3   OH224946   4.441   3.151  16.720
19292TIP3    H124947   4.481   3.237  16.698
19292TIP3    H224948   4.514   3.090  16.695
19293TIP3   OH224949   5.427   2.791  15.550
19293TIP3    H124950   5.446   2.757  15.460
19293TIP3    H224951   5.496   2.746  15.602
19294TIP3   OH224952   4.779   2.786  15.360
19294TIP3    H124953   4.789   2.717  15.428
19294TIP3    H224954   4.685   2.767  15.337
19295TIP3   OH224955   4.249   3.288  15.502
19295TIP3    H124956   4.332   3.312  15.546
19295TIP3    H224957   4.264   3.335  15.417
19296TIP3   OH224958   3.717   2.510  16.675
19296TIP3    H124959   3.780   2.504  16.750
19296TIP3    H224960   3.697   2.605  16.681
19297TIP3   OH224961   3.687   3.104  15.434
19297TIP3    H124962   3.774   3.117  15.476
19297TIP3    H224963   3.631   3.086  15.513
19298TIP3   OH224964   3.900   3.408  16.679
19298TIP3    H124965   3.910   3.323  16.634
19298TIP3    H224966   3.854   3.388  16.764
19299TIP3   OH224967   4.163   2.888  15.942
19299TIP3    H124968   4.255   2.862  15.961
19299TIP3    H224969   4.116   2.818  15.991
19300TIP3   OH224970   4.911   3.324  16.354
19300TIP3    H124971   4.896   3.418  16.377
19300TIP3    H224972   4.999   3.313  16.392
19301TIP3   OH224973   5.306   2.799  16.879
19301TIP3    H124974   5.267   2.869  16.822
19301TIP3    H224975   5.401   2.803  16.856
19302TIP3   OH224976   4.778   3.088  16.377
19302TIP3    H124977   4.824   3.175  16.369
19302TIP3    H224978   4.836   3.026  16.329
19303TIP3   OH224979   4.708   3.517  15.676
19303TIP3    H124980   4.641   3.575  15.715
19303TIP3    H224981   4.655   3.465  15.613
19304TIP3   OH224982   4.883   3.580  16.438
19304TIP3    H124983   4.978   3.593  16.418
19304TIP3    H224984   4.849   3.662  16.395
19305TIP3   OH224985   4.403   3.092  15.774
19305TIP3    H124986   4.435   3.073  15.682
19305TIP3    H224987   4.369   3.005  15.802
19306TIP3   OH224988   4.131   3.235  16.823
19306TIP3    H124989   4.091   3.178  16.753
19306TIP3    H224990   4.221   3.198  16.824
19307TIP3   OH224991   4.083   3.542  15.536
19307TIP3    H124992   4.171   3.503  15.554
19307TIP3    H224993   4.074   3.606  15.611
19308TIP3   OH224994   3.687   3.637  16.829
19308TIP3    H124995   3.645   3.709  16.879
19308TIP3    H224996   3.761   3.686  16.787
19309TIP3   OH224997   5.264   2.271  15.612
19309TIP3    H124998   5.336   2.319  15.565
19309TIP3    H224999   5.254   2.197  15.550
19310TIP3   OH225000   4.046   3.061  16.633
19310TIP3    H125001   4.061   2.978  16.580
19310TIP3    H225002   3.951   3.074  16.616
19311TIP3   OH225003   5.301   3.458  15.751
19311TIP3    H125004   5.236   3.387  15.740
19311TIP3    H225005   5.292   3.506  15.668
19312TIP3   OH225006   4.845   3.258  16.759
19312TIP3    H125007   4.781   3.215  16.699
19312TIP3    H225008   4.829   3.354  16.739
19313TIP3   OH225009   5.194   2.987  16.718
19313TIP3    H125010   5.260   3.031  16.661
19313TIP3    H225011   5.147   3.062  16.759
19314TIP3   OH225012   4.379   2.249  15.696
19314TIP3    H125013   4.320   2.272  15.622
19314TIP3    H225014   4.417   2.164  15.664
19315TIP3   OH225015   4.334   2.230  16.546
19315TIP3    H125016   4.293   2.280  16.618
19315TIP3    H225017   4.297   2.271  16.465
19316TIP3   OH225018   4.540   3.401  16.665
19316TIP3    H125019   4.613   3.464  16.671
19316TIP3    H225020   4.480   3.436  16.734
19317TIP3   OH225021   4.607   2.401  16.494
19317TIP3    H125022   4.539   2.469  16.475
19317TIP3    H225023   4.637   2.371  16.405
19318TIP3   OH225024   4.499   2.514  15.612
19318TIP3    H125025   4.497   2.522  15.515
19318TIP3    H225026   4.462   2.426  15.629
19319TIP3   OH225027   4.537   2.080  16.443
19319TIP3    H125028   4.568   2.145  16.377
19319TIP3    H225029   4.456   2.128  16.476
19320TIP3   OH225030   4.814   3.521  16.700
19320TIP3    H125031   4.795   3.608  16.739
19320TIP3    H225032   4.847   3.551  16.612
19321TIP3   OH225033   4.980   2.204  16.707
19321TIP3    H125034   4.974   2.288  16.658
19321TIP3    H225035   4.893   2.167  16.684
19322TIP3   OH225036   3.953   2.244  15.471
19322TIP3    H125037   4.047   2.257  15.494
19322TIP3    H225038   3.908   2.264  15.556
19323TIP3   OH225039   4.059   2.648  16.090
19323TIP3    H125040   4.136   2.592  16.069
19323TIP3    H225041   3.989   2.605  16.037
19324TIP3   OH225042   5.120   3.242  16.845
19324TIP3    H125043   5.037   3.269  16.801
19324TIP3    H225044   5.084   3.190  16.918
19325TIP3   OH225045   5.293   2.532  16.924
19325TIP3    H125046   5.278   2.626  16.904
19325TIP3    H225047   5.364   2.538  16.990
19326TIP3   OH225048   3.960   3.585  15.939
19326TIP3    H125049   3.958   3.657  16.007
19326TIP3    H225050   3.864   3.573  15.934
19327TIP3   OH225051   5.219   2.004  16.031
19327TIP3    H125052   5.228   1.987  16.127
19327TIP3    H225053   5.238   1.915  15.994
19328TIP3   OH225054   5.352   3.387  16.458
19328TIP3    H125055   5.433   3.424  16.421
19328TIP3    H225056   5.338   3.444  16.536
19329TIP3   OH225057   5.399   3.644  15.321
19329TIP3    H125058   5.308   3.618  15.300
19329TIP3    H225059   5.438   3.555  15.336
19330TIP3   OH225060   4.449   3.506  16.901
19330TIP3    H125061   4.508   3.447  16.954
19330TIP3    H225062   4.377   3.525  16.963
19331TIP3   OH225063   4.298   3.417  15.274
19331TIP3    H125064   4.336   3.330  15.244
19331TIP3    H225065   4.214   3.415  15.223
19332TIP3   OH225066   4.029   3.468  16.987
19332TIP3    H125067   4.063   3.395  16.931
19332TIP3    H225068   3.932   3.451  16.976
19333TIP3   OH225069   5.444   2.997  15.219
19333TIP3    H125070   5.459   2.906  15.245
19333TIP3    H225071   5.490   3.044  15.293
19334TIP3   OH225072   4.941   3.049  16.980
19334TIP3    H125073   4.879   3.041  16.907
19334TIP3    H225074   4.896   2.993  17.048
19335TIP3   OH225075   4.735   3.049  15.276
19335TIP3    H125076   4.770   3.099  15.354
19335TIP3    H225077   4.773   2.960  15.294
19336TIP3   OH225078   4.177   3.016  15.513
19336TIP3    H125079   4.090   3.061  15.513
19336TIP3    H225080   4.231   3.096  15.499
19337TIP3   OH225081   5.291   2.777  15.290
19337TIP3    H125082   5.239   2.696  15.288
19337TIP3    H225083   5.323   2.776  15.199
19338TIP3   OH225084   4.839   2.877  16.748
19338TIP3    H125085   4.912   2.827  16.708
19338TIP3    H225086   4.804   2.814  16.814
19339TIP3   OH225087   4.951   2.630  15.594
19339TIP3    H125088   5.002   2.711  15.568
19339TIP3    H225089   4.880   2.672  15.647
19340TIP3   OH225090   4.728   2.689  16.956
19340TIP3    H125091   4.699   2.696  17.048
19340TIP3    H225092   4.642   2.696  16.908
19341TIP3   OH225093   4.388   2.935  15.194
19341TIP3    H125094   4.342   2.889  15.266
19341TIP3    H225095   4.432   2.861  15.146
19342TIP3   OH225096   3.842   2.973   8.505
19342TIP3    H125097   3.869   2.991   8.596
19342TIP3    H225098   3.807   3.058   8.477
19343TIP3   OH225099   4.844   2.420  15.471
19343TIP3    H125100   4.840   2.346  15.536
19343TIP3    H225101   4.871   2.496  15.528
19344TIP3   OH225102   4.839   2.217  15.661
19344TIP3    H125103   4.781   2.265  15.724
19344TIP3    H225104   4.923   2.220  15.712
19345TIP3   OH225105   4.709   2.791  15.672
19345TIP3    H125106   4.628   2.844  15.672
19345TIP3    H225107   4.774   2.860  15.698
19346TIP3   OH225108   4.306   2.553  15.187
19346TIP3    H125109   4.313   2.466  15.142
19346TIP3    H225110   4.211   2.573  15.180
19347TIP3   OH225111   4.107   2.854  15.310
19347TIP3    H125112   4.142   2.909  15.383
19347TIP3    H225113   4.011   2.855  15.330
19348TIP3   OH225114   5.000   2.466  15.259
19348TIP3    H125115   5.088   2.433  15.287
19348TIP3    H225116   4.946   2.448  15.340
19349TIP3   OH225117   4.752   1.965  15.659
19349TIP3    H125118   4.789   2.057  15.652
19349TIP3    H225119   4.833   1.917  15.684
19350TIP3   OH225120   4.648   2.397  15.255
19350TIP3    H125121   4.707   2.371  15.180
19350TIP3    H225122   4.709   2.385  15.330
19351TIP3   OH225123   4.389   2.328  15.358
19351TIP3    H125124   4.481   2.329  15.324
19351TIP3    H225125   4.346   2.273  15.289
19352TIP3   OH225126   4.246   2.173  15.190
19352TIP3    H125127   4.243   2.076  15.177
19352TIP3    H225128   4.222   2.208  15.103
19353TIP3   OH225129   5.233   2.310  15.256
19353TIP3    H125130   5.259   2.224  15.297
19353TIP3    H225131   5.237   2.285  15.161
19354TIP3   OH225132   4.757   1.934  15.392
19354TIP3    H125133   4.681   1.875  15.380
19354TIP3    H225134   4.762   1.934  15.489
19355TIP3   OH225135   4.756   2.037  15.114
19355TIP3    H125136   4.759   1.999  15.204
19355TIP3    H225137   4.779   2.130  15.126
19356TIP3   OH225138   4.776   3.762  16.809
19356TIP3    H125139   4.690   3.805  16.794
19356TIP3    H225140   4.770   3.746  16.905
19357TIP3   OH225141   5.418   3.218  16.892
19357TIP3    H125142   5.321   3.227  16.889
19357TIP3    H225143   5.428   3.186  16.982
19358TIP3   OH225144   5.512   3.719  16.406
19358TIP3    H125145   5.592   3.667  16.430
19358TIP3    H225146   5.483   3.668  16.328
19359TIP3   OH225147   5.432   3.556  16.199
19359TIP3    H125148   5.482   3.482  16.159
19359TIP3    H225149   5.379   3.587  16.122
19360TIP3   OH225150   3.692   3.636  15.949
19360TIP3    H125151   3.675   3.634  15.854
19360TIP3    H225152   3.632   3.707  15.977
19361TIP3   OH225153   3.749   3.595  15.626
19361TIP3    H125154   3.782   3.516  15.673
19361TIP3    H225155   3.703   3.552  15.552
19362TIP3   OH225156   3.838   3.183  15.126
19362TIP3    H125157   3.932   3.175  15.101
19362TIP3    H225158   3.845   3.223  15.213
19363TIP3   OH225159   3.767   3.016  16.624
19363TIP3    H125160   3.680   3.060  16.608
19363TIP3    H225161   3.768   2.949  16.551
19364TIP3   OH225162   3.738   2.822  16.431
19364TIP3    H125163   3.811   2.781  16.378
19364TIP3    H225164   3.674   2.844  16.361
19365TIP3   OH225165   3.754   3.086  15.942
19365TIP3    H125166   3.687   3.015  15.956
19365TIP3    H225167   3.709   3.166  15.974
19366TIP3   OH225168   3.872   3.364  15.705
19366TIP3    H125169   3.946   3.416  15.669
19366TIP3    H225170   3.911   3.332  15.791
19367TIP3   OH225171   3.718   2.781  16.793
19367TIP3    H125172   3.780   2.801  16.865
19367TIP3    H225173   3.738   2.855  16.731
19368TIP3   OH225174   3.919   2.510  16.908
19368TIP3    H125175   3.849   2.553  16.961
19368TIP3    H225176   3.903   2.416  16.933
19369TIP3   OH225177   3.937   2.676  16.331
19369TIP3    H125178   3.959   2.587  16.364
19369TIP3    H225179   3.966   2.670  16.237
19370TIP3   OH225180   5.453   2.904  15.947
19370TIP3    H125181   5.447   2.868  16.038
19370TIP3    H225182   5.366   2.876  15.910
19371TIP3   OH225183   3.828   2.865  15.377
19371TIP3    H125184   3.777   2.781  15.365
19371TIP3    H225185   3.762   2.928  15.411
19372TIP3   OH225186   3.735   2.621  15.363
19372TIP3    H125187   3.828   2.588  15.364
19372TIP3    H225188   3.685   2.539  15.339
19373TIP3   OH225189   3.931   2.267  17.021
19373TIP3    H125190   3.873   2.217  16.959
19373TIP3    H225191   4.021   2.258  16.985
19374TIP3   OH225192   4.000   2.444  16.495
19374TIP3    H125193   3.970   2.356  16.464
19374TIP3    H225194   3.944   2.450  16.574
19375TIP3   OH225195   3.883   2.500  15.948
19375TIP3    H125196   3.784   2.508  15.942
19375TIP3    H225197   3.904   2.497  15.853
19376TIP3   OH225198   3.890   2.562  15.682
19376TIP3    H125199   3.965   2.590  15.627
19376TIP3    H225200   3.848   2.648  15.707
19377TIP3   OH225201   5.453   2.363  15.402
19377TIP3    H125202   5.385   2.380  15.333
19377TIP3    H225203   5.488   2.276  15.373
19378TIP3   OH225204   3.716   1.949  15.172
19378TIP3    H125205   3.641   1.897  15.205
19378TIP3    H225206   3.708   2.031  15.225
19379TIP3   OH225207   3.913   2.168  16.483
19379TIP3    H125208   3.878   2.120  16.405
19379TIP3    H225209   3.958   2.096  16.532
19380TIP3   OH225210   5.351   2.236  15.986
19380TIP3    H125211   5.312   2.147  16.003
19380TIP3    H225212   5.274   2.295  15.991
19381TIP3   OH225213   5.511   2.538  15.935
19381TIP3    H125214   5.457   2.515  16.013
19381TIP3    H225215   5.458   2.607  15.895
19382TIP3   OH225216   3.749   2.156  15.331
19382TIP3    H125217   3.831   2.199  15.364
19382TIP3    H225218   3.740   2.087  15.401
19383TIP3   OH225219   3.730   2.173  16.859
19383TIP3    H125220   3.685   2.112  16.920
19383TIP3    H225221   3.653   2.218  16.819
19384TIP3   OH225222   5.505   2.138  16.550
19384TIP3    H125223   5.603   2.135  16.548
19384TIP3    H225224   5.488   2.198  16.625
19385TIP3   OH225225   4.013   3.659  16.312
19385TIP3    H125226   3.947   3.647  16.384
19385TIP3    H225227   3.970   3.720  16.249
19386TIP3   OH225228   5.488   2.008  15.708
19386TIP3    H125229   5.548   1.976  15.639
19386TIP3    H225230   5.533   2.086  15.743
19387TIP3   OH225231   5.244   3.362  15.256
19387TIP3    H125232   5.317   3.351  15.319
19387TIP3    H225233   5.218   3.269  15.240
19388TIP3   OH225234   4.971   3.500  15.637
19388TIP3    H125235   4.975   3.588  15.680
19388TIP3    H225236   4.873   3.484  15.641
19389TIP3   OH225237   4.560   3.614  15.376
19389TIP3    H125238   4.523   3.586  15.290
19389TIP3    H225239   4.476   3.644  15.419
19390TIP3   OH225240   4.342   3.737  15.460
19390TIP3    H125241   4.259   3.716  15.503
19390TIP3    H225242   4.312   3.766  15.371
19391TIP3   OH225243   3.808   1.951  15.510
19391TIP3    H125244   3.881   1.992  15.558
19391TIP3    H225245   3.808   1.859  15.543
19392TIP3   OH225246   5.253   3.788  15.674
19392TIP3    H125247   5.328   3.821  15.729
19392TIP3    H225248   5.273   3.830  15.590
19393TIP3   OH225249   5.004   3.738  15.763
19393TIP3    H125250   5.098   3.750  15.736
19393TIP3    H225251   4.998   3.798  15.839
19394TIP3   OH225252   4.540   3.691  15.834
19394TIP3    H125253   4.595   3.732  15.903
19394TIP3    H225254   4.516   3.770  15.780
19395TIP3   OH225255   4.333   3.564  15.700
19395TIP3    H125256   4.402   3.603  15.759
19395TIP3    H225257   4.261   3.626  15.722
19396TIP3   OH225258   4.057   3.721  15.730
19396TIP3    H125259   4.054   3.813  15.764
19396TIP3    H225260   4.024   3.673  15.810
19397TIP3   OH225261   5.275   3.629  15.987
19397TIP3    H125262   5.298   3.567  15.914
19397TIP3    H225263   5.187   3.594  16.015
19398TIP3   OH225264   5.059   3.522  16.100
19398TIP3    H125265   5.073   3.428  16.080
19398TIP3    H225266   4.975   3.536  16.051
19399TIP3   OH225267   4.835   3.516  15.957
19399TIP3    H125268   4.807   3.424  15.975
19399TIP3    H225269   4.830   3.521  15.860
19400TIP3   OH225270   4.538   2.098  16.077
19400TIP3    H125271   4.615   2.038  16.061
19400TIP3    H225272   4.479   2.040  16.126
19401TIP3   OH225273   3.939   1.920  16.094
19401TIP3    H125274   3.883   1.977  16.153
19401TIP3    H225275   4.030   1.943  16.124
19402TIP3   OH225276   3.788   2.032  16.284
19402TIP3    H125277   3.719   1.982  16.333
19402TIP3    H225278   3.738   2.115  16.263
19403TIP3   OH225279   5.237   1.955  16.306
19403TIP3    H125280   5.321   1.939  16.352
19403TIP3    H225281   5.190   1.870  16.323
19404TIP3   OH225282   5.379   1.952  16.759
19404TIP3    H125283   5.322   2.018  16.804
19404TIP3    H225284   5.422   2.004  16.689
19405TIP3   OH225285   4.808   1.929  16.332
19405TIP3    H125286   4.722   1.954  16.371
19405TIP3    H225287   4.807   1.972  16.246
19406TIP3   OH225288   4.188   1.965  16.189
19406TIP3    H125289   4.224   2.001  16.271
19406TIP3    H225290   4.252   1.891  16.172
19407TIP3   OH225291   4.082   1.964  16.630
19407TIP3    H125292   4.164   2.012  16.644
19407TIP3    H225293   4.120   1.883  16.587
19408TIP3   OH225294   5.366   3.571  16.658
19408TIP3    H125295   5.457   3.564  16.695
19408TIP3    H225296   5.353   3.666  16.678
19409TIP3   OH225297   5.199   2.094  16.891
19409TIP3    H125298   5.116   2.046  16.901
19409TIP3    H225299   5.170   2.177  16.852
19410TIP3   OH225300   4.677   2.199  16.651
19410TIP3    H125301   4.631   2.139  16.591
19410TIP3    H225302   4.653   2.284  16.606
19411TIP3   OH225303   4.483   3.762  16.837
19411TIP3    H125304   4.400   3.781  16.883
19411TIP3    H225305   4.481   3.664  16.849
19412TIP3   OH225306   3.845   3.600  16.510
19412TIP3    H125307   3.860   3.526  16.575
19412TIP3    H225308   3.842   3.675  16.573
19413TIP3   OH225309   5.273   2.042  15.363
19413TIP3    H125310   5.336   1.967  15.361
19413TIP3    H225311   5.196   2.007  15.314
19414TIP3   OH225312   5.065   1.975  15.175
19414TIP3    H125313   4.983   1.928  15.199
19414TIP3    H225314   5.109   1.903  15.126
19415TIP3   OH225315   5.183   3.677  16.940
19415TIP3    H125316   5.257   3.712  16.887
19415TIP3    H225317   5.161   3.594  16.896
19416TIP3   OH225318   4.229   1.903  15.196
19416TIP3    H125319   4.265   1.814  15.185
19416TIP3    H225320   4.134   1.888  15.218
19417TIP3   OH225321   3.906   3.488  15.349
19417TIP3    H125322   3.983   3.483  15.411
19417TIP3    H225323   3.905   3.585  15.336
19418TIP3   OH225324   2.426   2.906  16.335
19418TIP3    H125325   2.445   3.002  16.329
19418TIP3    H225326   2.502   2.874  16.385
19419TIP3   OH225327   2.555   2.790  15.993
19419TIP3    H125328   2.548   2.740  15.910
19419TIP3    H225329   2.624   2.743  16.042
19420TIP3   OH225330   3.340   2.793  15.825
19420TIP3    H125331   3.343   2.712  15.771
19420TIP3    H225332   3.253   2.829  15.800
19421TIP3   OH225333   2.243   3.098  16.144
19421TIP3    H125334   2.269   3.032  16.078
19421TIP3    H225335   2.204   3.166  16.088
19422TIP3   OH225336   3.247   3.236  16.009
19422TIP3    H125337   3.276   3.146  16.034
19422TIP3    H225338   3.151   3.226  16.021
19423TIP3   OH225339   3.567   2.563  16.439
19423TIP3    H125340   3.601   2.653  16.427
19423TIP3    H225341   3.629   2.529  16.506
19424TIP3   OH225342   3.522   2.808  16.193
19424TIP3    H125343   3.487   2.717  16.175
19424TIP3    H225344   3.442   2.863  16.198
19425TIP3   OH225345   2.482   3.648  16.151
19425TIP3    H125346   2.421   3.589  16.201
19425TIP3    H225347   2.503   3.588  16.079
19426TIP3   OH225348   2.750   3.061  15.883
19426TIP3    H125349   2.723   3.060  15.975
19426TIP3    H225350   2.661   3.065  15.840
19427TIP3   OH225351   1.882   2.196  15.875
19427TIP3    H125352   1.879   2.258  15.800
19427TIP3    H225353   1.796   2.214  15.916
19428TIP3   OH225354   2.363   2.514  15.885
19428TIP3    H125355   2.356   2.420  15.860
19428TIP3    H225356   2.404   2.503  15.973
19429TIP3   OH225357   3.084   2.281  16.218
19429TIP3    H125358   3.071   2.364  16.269
19429TIP3    H225359   3.136   2.230  16.283
19430TIP3   OH225360   2.342   2.338  16.324
19430TIP3    H125361   2.281   2.292  16.262
19430TIP3    H225362   2.280   2.393  16.374
19431TIP3   OH225363   3.450   2.546  16.113
19431TIP3    H125364   3.385   2.500  16.056
19431TIP3    H225365   3.424   2.512  16.201
19432TIP3   OH225366   2.966   2.699  16.176
19432TIP3    H125367   2.882   2.658  16.148
19432TIP3    H225368   2.998   2.630  16.238
19433TIP3   OH225369   1.867   2.342  15.649
19433TIP3    H125370   1.896   2.428  15.687
19433TIP3    H225371   1.841   2.371  15.560
19434TIP3   OH225372   3.184   2.213  15.795
19434TIP3    H125373   3.231   2.265  15.864
19434TIP3    H225374   3.243   2.224  15.718
19435TIP3   OH225375   2.511   3.140  16.438
19435TIP3    H125376   2.525   3.148  16.534
19435TIP3    H225377   2.542   3.228  16.407
19436TIP3   OH225378   2.983   2.960  15.797
19436TIP3    H125379   3.037   3.036  15.766
19436TIP3    H225380   2.902   3.008  15.825
19437TIP3   OH225381   2.133   2.247  16.175
19437TIP3    H125382   2.134   2.195  16.094
19437TIP3    H225383   2.059   2.306  16.156
19438TIP3   OH225384   3.240   2.393  15.992
19438TIP3    H125385   3.180   2.458  15.948
19438TIP3    H225386   3.189   2.370  16.072
19439TIP3   OH225387   3.095   3.189  15.709
19439TIP3    H125388   3.120   3.276  15.744
19439TIP3    H225389   3.178   3.165  15.660
19440TIP3   OH225390   3.525   3.133  16.617
19440TIP3    H125391   3.515   3.187  16.697
19440TIP3    H225392   3.511   3.199  16.545
19441TIP3   OH225393   2.147   3.303  15.948
19441TIP3    H125394   2.236   3.327  15.914
19441TIP3    H225395   2.128   3.388  15.993
19442TIP3   OH225396   2.159   2.135  15.801
19442TIP3    H125397   2.229   2.173  15.859
19442TIP3    H225398   2.078   2.173  15.839
19443TIP3   OH225399   2.848   1.943  16.042
19443TIP3    H125400   2.875   1.852  16.056
19443TIP3    H225401   2.936   1.983  16.019
19444TIP3   OH225402   2.315   3.479  16.269
19444TIP3    H125403   2.286   3.401  16.321
19444TIP3    H225404   2.240   3.541  16.287
19445TIP3   OH225405   2.224   3.261  16.428
19445TIP3    H125406   2.229   3.189  16.494
19445TIP3    H225407   2.241   3.211  16.346
19446TIP3   OH225408   2.037   3.123  15.548
19446TIP3    H125409   2.035   3.051  15.616
19446TIP3    H225410   2.032   3.201  15.606
19447TIP3   OH225411   2.594   2.816  16.587
19447TIP3    H125412   2.658   2.888  16.607
19447TIP3    H225413   2.511   2.851  16.629
19448TIP3   OH225414   2.583   2.725  16.866
19448TIP3    H125415   2.525   2.746  16.790
19448TIP3    H225416   2.537   2.650  16.907
19449TIP3   OH225417   1.842   2.785  15.752
19449TIP3    H125418   1.918   2.840  15.780
19449TIP3    H225419   1.776   2.812  15.821
19450TIP3   OH225420   2.204   2.832  16.478
19450TIP3    H125421   2.277   2.862  16.418
19450TIP3    H225422   2.146   2.783  16.415
19451TIP3   OH225423   2.226   2.659  15.553
19451TIP3    H125424   2.241   2.752  15.531
19451TIP3    H225425   2.281   2.653  15.632
19452TIP3   OH225426   3.100   2.885  16.313
19452TIP3    H125427   3.110   2.842  16.400
19452TIP3    H225428   3.038   2.823  16.267
19453TIP3   OH225429   2.946   3.233  16.035
19453TIP3    H125430   2.921   3.210  16.126
19453TIP3    H225431   2.890   3.176  15.979
19454TIP3   OH225432   3.067   2.757  15.938
19454TIP3    H125433   3.037   2.757  16.032
19454TIP3    H225434   3.016   2.831  15.897
19455TIP3   OH225435   2.392   3.353  15.860
19455TIP3    H125436   2.453   3.405  15.806
19455TIP3    H225437   2.409   3.262  15.828
19456TIP3   OH225438   2.948   3.217  15.488
19456TIP3    H125439   3.018   3.265  15.437
19456TIP3    H225440   2.995   3.205  15.574
19457TIP3   OH225441   2.359   2.799  16.696
19457TIP3    H125442   2.298   2.809  16.619
19457TIP3    H225443   2.308   2.839  16.770
19458TIP3   OH225444   3.246   2.811  15.536
19458TIP3    H125445   3.229   2.878  15.467
19458TIP3    H225446   3.333   2.783  15.505
19459TIP3   OH225447   2.579   3.388  16.355
19459TIP3    H125448   2.559   3.444  16.280
19459TIP3    H225449   2.632   3.445  16.412
19460TIP3   OH225450   3.125   3.385  15.376
19460TIP3    H125451   3.137   3.424  15.466
19460TIP3    H225452   3.218   3.366  15.351
19461TIP3   OH225453   1.951   1.919  16.684
19461TIP3    H125454   2.048   1.926  16.673
19461TIP3    H225455   1.932   2.006  16.722
19462TIP3   OH225456   3.192   2.785  16.570
19462TIP3    H125457   3.237   2.867  16.598
19462TIP3    H225458   3.259   2.717  16.583
19463TIP3   OH225459   1.885   3.365  16.911
19463TIP3    H125460   1.852   3.456  16.898
19463TIP3    H225461   1.799   3.318  16.905
19464TIP3   OH225462   3.546   3.055  15.648
19464TIP3    H125463   3.594   3.036  15.730
19464TIP3    H225464   3.507   2.965  15.634
19465TIP3   OH225465   3.571   3.321  15.982
19465TIP3    H125466   3.484   3.284  15.999
19465TIP3    H225467   3.550   3.385  15.913
19466TIP3   OH225468   1.761   3.380  15.415
19466TIP3    H125469   1.781   3.286  15.417
19466TIP3    H225470   1.848   3.416  15.386
19467TIP3   OH225471   2.709   3.343  15.495
19467TIP3    H125472   2.685   3.409  15.427
19467TIP3    H225473   2.802   3.318  15.474
19468TIP3   OH225474   2.628   3.713  16.571
19468TIP3    H125475   2.624   3.736  16.666
19468TIP3    H225476   2.629   3.802  16.529
19469TIP3   OH225477   3.266   3.588  16.352
19469TIP3    H125478   3.242   3.559  16.261
19469TIP3    H225479   3.357   3.555  16.363
19470TIP3   OH225480   2.328   3.657  16.842
19470TIP3    H125481   2.271   3.582  16.869
19470TIP3    H225482   2.326   3.650  16.745
19471TIP3   OH225483   2.360   3.638  16.562
19471TIP3    H125484   2.457   3.656  16.554
19471TIP3    H225485   2.355   3.549  16.522
19472TIP3   OH225486   2.050   2.535  15.374
19472TIP3    H125487   2.129   2.571  15.420
19472TIP3    H225488   2.060   2.439  15.388
19473TIP3   OH225489   3.319   3.179  15.572
19473TIP3    H125490   3.313   3.144  15.481
19473TIP3    H225491   3.408   3.146  15.599
19474TIP3   OH225492   3.083   2.038  15.966
19474TIP3    H125493   3.174   2.044  16.000
19474TIP3    H225494   3.093   2.094  15.885
19475TIP3   OH225495   2.587   2.008  15.651
19475TIP3    H125496   2.565   1.979  15.562
19475TIP3    H225497   2.685   2.012  15.649
19476TIP3   OH225498   2.317   2.384  15.501
19476TIP3    H125499   2.383   2.347  15.436
19476TIP3    H225500   2.338   2.478  15.498
19477TIP3   OH225501   2.230   2.894  16.908
19477TIP3    H125502   2.207   2.892  17.002
19477TIP3    H225503   2.161   2.954  16.875
19478TIP3   OH225504   2.640   2.305  16.892
19478TIP3    H125505   2.689   2.297  16.808
19478TIP3    H225506   2.662   2.223  16.936
19479TIP3   OH225507   3.060   2.516  15.833
19479TIP3    H125508   3.141   2.521  15.777
19479TIP3    H225509   3.061   2.606  15.873
19480TIP3   OH225510   3.068   2.508  16.353
19480TIP3    H125511   3.164   2.515  16.369
19480TIP3    H225512   3.034   2.499  16.445
19481TIP3   OH225513   2.502   2.596  16.468
19481TIP3    H125514   2.541   2.679  16.506
19481TIP3    H225515   2.445   2.569  16.542
19482TIP3   OH225516   2.647   2.642  15.304
19482TIP3    H125517   2.674   2.549  15.283
19482TIP3    H225518   2.559   2.643  15.263
19483TIP3   OH225519   2.445   2.540  16.152
19483TIP3    H125520   2.435   2.618  16.210
19483TIP3    H225521   2.432   2.469  16.218
19484TIP3   OH225522   3.307   2.523  15.715
19484TIP3    H125523   3.276   2.561  15.631
19484TIP3    H225524   3.349   2.440  15.686
19485TIP3   OH225525   2.996   2.318  16.933
19485TIP3    H125526   3.016   2.249  16.866
19485TIP3    H225527   3.019   2.400  16.884
19486TIP3   OH225528   3.633   2.259  16.254
19486TIP3    H125529   3.568   2.268  16.182
19486TIP3    H225530   3.588   2.294  16.331
19487TIP3   OH225531   3.533   2.321  16.739
19487TIP3    H125532   3.464   2.352  16.801
19487TIP3    H225533   3.586   2.402  16.729
19488TIP3   OH225534   2.506   2.689  15.735
19488TIP3    H125535   2.449   2.622  15.778
19488TIP3    H225536   2.565   2.634  15.678
19489TIP3   OH225537   2.776   2.276  16.250
19489TIP3    H125538   2.869   2.278  16.222
19489TIP3    H225539   2.730   2.231  16.176
19490TIP3   OH225540   3.351   2.430  16.341
19490TIP3    H125541   3.420   2.469  16.399
19490TIP3    H225542   3.326   2.348  16.390
19491TIP3   OH225543   2.991   2.468  16.618
19491TIP3    H125544   2.895   2.479  16.615
19491TIP3    H225545   3.018   2.520  16.697
19492TIP3   OH225546   2.367   2.222  15.946
19492TIP3    H125547   2.430   2.211  15.871
19492TIP3    H225548   2.397   2.155  16.009
19493TIP3   OH225549   3.071   2.572  16.853
19493TIP3    H125550   3.133   2.560  16.926
19493TIP3    H225551   2.996   2.619  16.896
19494TIP3   OH225552   2.071   3.774  15.277
19494TIP3    H125553   2.033   3.812  15.359
19494TIP3    H225554   1.994   3.784  15.218
19495TIP3   OH225555   3.282   3.026  15.342
19495TIP3    H125556   3.218   3.057  15.274
19495TIP3    H225557   3.362   3.009  15.290
19496TIP3   OH225558   2.730   2.557  16.102
19496TIP3    H125559   2.635   2.538  16.119
19496TIP3    H225560   2.752   2.494  16.033
19497TIP3   OH225561   3.243   2.181  16.421
19497TIP3    H125562   3.290   2.114  16.366
19497TIP3    H225563   3.195   2.124  16.483
19498TIP3   OH225564   2.826   2.380  15.819
19498TIP3    H125565   2.905   2.435  15.834
19498TIP3    H225566   2.768   2.439  15.769
19499TIP3   OH225567   2.757   3.025  16.614
19499TIP3    H125568   2.832   2.978  16.655
19499TIP3    H225569   2.798   3.052  16.528
19500TIP3   OH225570   2.029   2.979  15.771
19500TIP3    H125571   1.977   3.036  15.833
19500TIP3    H225572   2.109   2.965  15.825
19501TIP3   OH225573   2.380   2.316  16.842
19501TIP3    H125574   2.467   2.336  16.882
19501TIP3    H225575   2.360   2.401  16.797
19502TIP3   OH225576   2.644   3.083  15.536
19502TIP3    H125577   2.657   3.051  15.446
19502TIP3    H225578   2.682   3.172  15.534
19503TIP3   OH225579   2.311   2.524  16.673
19503TIP3    H125580   2.247   2.504  16.601
19503TIP3    H225581   2.279   2.610  16.706
19504TIP3   OH225582   3.260   2.973  16.103
19504TIP3    H125583   3.203   2.965  16.182
19504TIP3    H225584   3.223   2.904  16.045
19505TIP3   OH225585   2.554   3.165  16.724
19505TIP3    H125586   2.598   3.251  16.702
19505TIP3    H225587   2.624   3.101  16.695
19506TIP3   OH225588   3.553   2.799  15.532
19506TIP3    H125589   3.568   2.747  15.451
19506TIP3    H225590   3.609   2.755  15.598
19507TIP3   OH225591   2.886   2.778  15.371
19507TIP3    H125592   2.915   2.732  15.451
19507TIP3    H225593   2.798   2.737  15.357
19508TIP3   OH225594   2.352   3.284  15.493
19508TIP3    H125595   2.419   3.289  15.562
19508TIP3    H225596   2.394   3.341  15.425
19509TIP3   OH225597   1.834   2.508  16.676
19509TIP3    H125598   1.900   2.506  16.749
19509TIP3    H225599   1.807   2.601  16.683
19510TIP3   OH225600   1.790   3.094  15.429
19510TIP3    H125601   1.881   3.101  15.466
19510TIP3    H225602   1.738   3.086  15.512
19511TIP3   OH225603   1.995   3.386  16.661
19511TIP3    H125604   2.038   3.303  16.642
19511TIP3    H225605   1.969   3.380  16.755
19512TIP3   OH225606   2.273   2.892  15.946
19512TIP3    H125607   2.363   2.858  15.963
19512TIP3    H225608   2.219   2.825  15.990
19513TIP3   OH225609   3.029   3.320  16.347
19513TIP3    H125610   3.017   3.415  16.371
19513TIP3    H225611   3.117   3.306  16.385
19514TIP3   OH225612   3.415   2.801  16.887
19514TIP3    H125613   3.374   2.863  16.822
19514TIP3    H225614   3.508   2.798  16.858
19515TIP3   OH225615   2.891   3.084  16.376
19515TIP3    H125616   2.938   3.170  16.368
19515TIP3    H225617   2.949   3.022  16.329
19516TIP3   OH225618   2.830   3.508  15.689
19516TIP3    H125619   2.764   3.572  15.723
19516TIP3    H225620   2.776   3.456  15.627
19517TIP3   OH225621   3.007   3.577  16.440
19517TIP3    H125622   3.103   3.585  16.420
19517TIP3    H225623   2.977   3.660  16.397
19518TIP3   OH225624   2.499   3.094  15.770
19518TIP3    H125625   2.541   3.074  15.682
19518TIP3    H225626   2.435   3.021  15.776
19519TIP3   OH225627   2.244   3.229  16.827
19519TIP3    H125628   2.217   3.175  16.750
19519TIP3    H225629   2.338   3.204  16.831
19520TIP3   OH225630   2.175   3.535  15.525
19520TIP3    H125631   2.263   3.492  15.527
19520TIP3    H225632   2.181   3.598  15.601
19521TIP3   OH225633   1.806   3.636  16.828
19521TIP3    H125634   1.768   3.708  16.881
19521TIP3    H225635   1.877   3.687  16.783
19522TIP3   OH225636   3.375   2.271  15.584
19522TIP3    H125637   3.431   2.325  15.525
19522TIP3    H225638   3.401   2.183  15.552
19523TIP3   OH225639   2.155   3.059  16.625
19523TIP3    H125640   2.166   2.971  16.580
19523TIP3    H225641   2.059   3.073  16.613
19524TIP3   OH225642   3.424   3.463  15.755
19524TIP3    H125643   3.359   3.391  15.753
19524TIP3    H225644   3.411   3.500  15.667
19525TIP3   OH225645   2.962   3.262  16.754
19525TIP3    H125646   2.897   3.217  16.699
19525TIP3    H225647   2.941   3.357  16.740
19526TIP3   OH225648   3.311   2.994  16.720
19526TIP3    H125649   3.378   3.036  16.663
19526TIP3    H225650   3.265   3.071  16.757
19527TIP3   OH225651   2.493   2.280  15.697
19527TIP3    H125652   2.428   2.307  15.629
19527TIP3    H225653   2.530   2.197  15.661
19528TIP3   OH225654   2.447   2.225  16.542
19528TIP3    H125655   2.410   2.269  16.619
19528TIP3    H225656   2.417   2.281  16.466
19529TIP3   OH225657   2.661   3.404  16.665
19529TIP3    H125658   2.730   3.469  16.645
19529TIP3    H225659   2.612   3.450  16.736
19530TIP3   OH225660   2.708   2.402  16.501
19530TIP3    H125661   2.644   2.474  16.483
19530TIP3    H225662   2.733   2.371  16.413
19531TIP3   OH225663   2.641   2.528  15.560
19531TIP3    H125664   2.648   2.564  15.469
19531TIP3    H225665   2.617   2.435  15.549
19532TIP3   OH225666   2.652   2.080  16.443
19532TIP3    H125667   2.688   2.140  16.374
19532TIP3    H225668   2.574   2.133  16.473
19533TIP3   OH225669   2.933   3.523  16.698
19533TIP3    H125670   2.911   3.610  16.737
19533TIP3    H225671   2.969   3.553  16.612
19534TIP3   OH225672   3.086   2.205  16.707
19534TIP3    H125673   3.081   2.287  16.654
19534TIP3    H225674   3.001   2.163  16.682
19535TIP3   OH225675   2.067   2.269  15.458
19535TIP3    H125676   2.164   2.277  15.472
19535TIP3    H225677   2.034   2.282  15.549
19536TIP3   OH225678   2.176   2.639  16.100
19536TIP3    H125679   2.248   2.578  16.081
19536TIP3    H225680   2.102   2.600  16.047
19537TIP3   OH225681   3.234   3.239  16.843
19537TIP3    H125682   3.152   3.268  16.799
19537TIP3    H225683   3.193   3.190  16.917
19538TIP3   OH225684   3.399   2.527  16.933
19538TIP3    H125685   3.381   2.622  16.920
19538TIP3    H225686   3.481   2.531  16.984
19539TIP3   OH225687   2.087   3.575  15.936
19539TIP3    H125688   2.085   3.645  16.003
19539TIP3    H225689   1.990   3.563  15.925
19540TIP3   OH225690   3.346   1.998  16.030
19540TIP3    H125691   3.342   1.982  16.127
19540TIP3    H225692   3.366   1.907  15.999
19541TIP3   OH225693   3.490   3.363  16.466
19541TIP3    H125694   3.553   3.421  16.422
19541TIP3    H225695   3.455   3.426  16.533
19542TIP3   OH225696   3.539   3.673  15.313
19542TIP3    H125697   3.447   3.649  15.330
19542TIP3    H225698   3.582   3.586  15.320
19543TIP3   OH225699   3.025   3.524  15.127
19543TIP3    H125700   2.943   3.471  15.129
19543TIP3    H225701   3.067   3.496  15.210
19544TIP3   OH225702   2.567   3.514  16.905
19544TIP3    H125703   2.629   3.456  16.956
19544TIP3    H225704   2.504   3.538  16.975
19545TIP3   OH225705   2.412   3.430  15.266
19545TIP3    H125706   2.435   3.339  15.234
19545TIP3    H225707   2.317   3.433  15.241
19546TIP3   OH225708   2.146   3.468  16.985
19546TIP3    H125709   2.181   3.393  16.933
19546TIP3    H225710   2.050   3.449  16.973
19547TIP3   OH225711   3.555   2.994  15.230
19547TIP3    H125712   3.567   2.899  15.246
19547TIP3    H225713   3.596   3.038  15.308
19548TIP3   OH225714   3.049   3.052  16.977
19548TIP3    H125715   2.994   3.032  16.900
19548TIP3    H225716   3.009   2.993  17.043
19549TIP3   OH225717   2.858   3.035  15.316
19549TIP3    H125718   2.894   3.095  15.385
19549TIP3    H225719   2.863   2.946  15.358
19550TIP3   OH225720   2.289   3.010  15.502
19550TIP3    H125721   2.201   3.054  15.499
19550TIP3    H225722   2.342   3.090  15.485
19551TIP3   OH225723   3.432   2.740  15.242
19551TIP3    H125724   3.377   2.664  15.214
19551TIP3    H225725   3.410   2.806  15.174
19552TIP3   OH225726   2.951   2.880  16.747
19552TIP3    H125727   3.025   2.830  16.707
19552TIP3    H225728   2.917   2.816  16.813
19553TIP3   OH225729   3.048   2.642  15.584
19553TIP3    H125730   3.108   2.718  15.566
19553TIP3    H225731   2.976   2.685  15.636
19554TIP3   OH225732   2.835   2.690  16.957
19554TIP3    H125733   2.801   2.691  17.049
19554TIP3    H225734   2.751   2.700  16.907
19555TIP3   OH225735   2.497   2.940  15.190
19555TIP3    H125736   2.428   2.872  15.196
19555TIP3    H225737   2.568   2.891  15.147
19556TIP3   OH225738   1.948   2.969   8.513
19556TIP3    H125739   1.984   2.988   8.601
19556TIP3    H225740   1.919   3.057   8.484
19557TIP3   OH225741   2.965   2.426  15.450
19557TIP3    H125742   2.965   2.353  15.516
19557TIP3    H225743   2.980   2.504  15.507
19558TIP3   OH225744   2.956   2.226  15.653
19558TIP3    H125745   2.901   2.268  15.723
19558TIP3    H225746   3.042   2.226  15.698
19559TIP3   OH225747   2.824   2.793  15.665
19559TIP3    H125748   2.739   2.822  15.701
19559TIP3    H225749   2.883   2.864  15.697
19560TIP3   OH225750   2.381   2.534  15.154
19560TIP3    H125751   2.383   2.474  15.079
19560TIP3    H225752   2.320   2.603  15.123
19561TIP3   OH225753   2.218   2.857  15.291
19561TIP3    H125754   2.248   2.903  15.373
19561TIP3    H225755   2.129   2.825  15.317
19562TIP3   OH225756   3.176   2.529  15.242
19562TIP3    H125757   3.240   2.455  15.255
19562TIP3    H225758   3.114   2.519  15.316
19563TIP3   OH225759   2.863   1.975  15.673
19563TIP3    H125760   2.903   2.062  15.652
19563TIP3    H225761   2.941   1.927  15.703
19564TIP3   OH225762   2.761   2.392  15.253
19564TIP3    H125763   2.807   2.364  15.170
19564TIP3    H225764   2.831   2.379  15.320
19565TIP3   OH225765   2.516   2.305  15.349
19565TIP3    H125766   2.599   2.327  15.304
19565TIP3    H225767   2.473   2.250  15.280
19566TIP3   OH225768   2.364   2.152  15.182
19566TIP3    H125769   2.350   2.058  15.157
19566TIP3    H225770   2.360   2.196  15.094
19567TIP3   OH225771   3.355   2.308  15.235
19567TIP3    H125772   3.363   2.223  15.282
19567TIP3    H225773   3.347   2.283  15.140
19568TIP3   OH225774   2.878   1.930  15.397
19568TIP3    H125775   2.799   1.875  15.380
19568TIP3    H225776   2.879   1.924  15.494
19569TIP3   OH225777   2.892   2.024  15.120
19569TIP3    H125778   2.881   1.990  15.211
19569TIP3    H225779   2.922   2.116  15.136
19570TIP3   OH225780   2.881   3.762  16.810
19570TIP3    H125781   2.800   3.816  16.800
19570TIP3    H225782   2.876   3.742  16.906
19571TIP3   OH225783   3.534   3.227  16.897
19571TIP3    H125784   3.438   3.229  16.881
19571TIP3    H225785   3.535   3.188  16.985
19572TIP3   OH225786   3.638   3.719  16.401
19572TIP3    H125787   3.717   3.665  16.425
19572TIP3    H225788   3.606   3.669  16.324
19573TIP3   OH225789   3.552   3.557  16.194
19573TIP3    H125790   3.610   3.492  16.150
19573TIP3    H225791   3.498   3.585  16.116
19574TIP3   OH225792   1.807   3.630  15.927
19574TIP3    H125793   1.784   3.645  15.834
19574TIP3    H225794   1.765   3.706  15.969
19575TIP3   OH225795   1.861   3.603  15.630
19575TIP3    H125796   1.895   3.523  15.676
19575TIP3    H225797   1.814   3.560  15.556
19576TIP3   OH225798   1.884   3.013  16.618
19576TIP3    H125799   1.799   3.061  16.602
19576TIP3    H225800   1.880   2.945  16.547
19577TIP3   OH225801   1.840   2.817  16.433
19577TIP3    H125802   1.913   2.779  16.379
19577TIP3    H225803   1.776   2.841  16.363
19578TIP3   OH225804   1.870   3.100  15.939
19578TIP3    H125805   1.800   3.036  15.963
19578TIP3    H225806   1.830   3.186  15.964
19579TIP3   OH225807   2.000   3.370  15.706
19579TIP3    H125808   2.075   3.405  15.655
19579TIP3    H225809   2.042   3.342  15.791
19580TIP3   OH225810   1.844   2.783  16.788
19580TIP3    H125811   1.896   2.810  16.866
19580TIP3    H225812   1.859   2.858  16.727
19581TIP3   OH225813   2.030   2.513  16.912
19581TIP3    H125814   1.956   2.552  16.963
19581TIP3    H225815   2.017   2.419  16.935
19582TIP3   OH225816   2.039   2.676  16.326
19582TIP3    H125817   2.067   2.589  16.360
19582TIP3    H225818   2.074   2.673  16.234
19583TIP3   OH225819   3.563   2.893  15.934
19583TIP3    H125820   3.561   2.861  16.027
19583TIP3    H225821   3.471   2.870  15.904
19584TIP3   OH225822   1.938   2.861  15.393
19584TIP3    H125823   1.883   2.787  15.358
19584TIP3    H225824   1.872   2.929  15.415
19585TIP3   OH225825   1.820   2.651  15.300
19585TIP3    H125826   1.908   2.617  15.330
19585TIP3    H225827   1.764   2.569  15.308
19586TIP3   OH225828   2.049   2.269  17.028
19586TIP3    H125829   1.993   2.216  16.967
19586TIP3    H225830   2.139   2.264  16.991
19587TIP3   OH225831   2.110   2.448  16.500
19587TIP3    H125832   2.078   2.361  16.466
19587TIP3    H225833   2.059   2.448  16.583
19588TIP3   OH225834   1.990   2.496  15.960
19588TIP3    H125835   1.893   2.502  15.949
19588TIP3    H225836   2.017   2.500  15.867
19589TIP3   OH225837   1.999   2.571  15.689
19589TIP3    H125838   2.077   2.591  15.634
19589TIP3    H225839   1.959   2.660  15.703
19590TIP3   OH225840   3.612   2.388  15.322
19590TIP3    H125841   3.529   2.388  15.271
19590TIP3    H225842   3.652   2.301  15.298
19591TIP3   OH225843   1.805   1.971  15.178
19591TIP3    H125844   1.753   1.899  15.219
19591TIP3    H225845   1.799   2.041  15.247
19592TIP3   OH225846   2.026   2.174  16.482
19592TIP3    H125847   1.991   2.124  16.405
19592TIP3    H225848   2.073   2.105  16.531
19593TIP3   OH225849   3.469   2.236  15.999
19593TIP3    H125850   3.432   2.144  16.003
19593TIP3    H225851   3.387   2.290  16.002
19594TIP3   OH225852   3.622   2.533  15.913
19594TIP3    H125853   3.573   2.492  15.987
19594TIP3    H225854   3.574   2.616  15.906
19595TIP3   OH225855   1.840   2.176  15.343
19595TIP3    H125856   1.923   2.230  15.342
19595TIP3    H225857   1.867   2.114  15.413
19596TIP3   OH225858   1.846   2.181  16.861
19596TIP3    H125859   1.799   2.112  16.912
19596TIP3    H225860   1.770   2.237  16.835
19597TIP3   OH225861   3.615   2.145  16.547
19597TIP3    H125862   3.710   2.159  16.530
19597TIP3    H225863   3.597   2.207  16.621
19598TIP3   OH225864   2.127   3.654  16.317
19598TIP3    H125865   2.054   3.647  16.382
19598TIP3    H225866   2.098   3.723  16.256
19599TIP3   OH225867   3.624   2.015  15.707
19599TIP3    H125868   3.682   1.977  15.638
19599TIP3    H225869   3.682   2.078  15.754
19600TIP3   OH225870   3.379   3.337  15.294
19600TIP3    H125871   3.465   3.370  15.325
19600TIP3    H225872   3.397   3.299  15.206
19601TIP3   OH225873   3.094   3.487  15.638
19601TIP3    H125874   3.101   3.580  15.670
19601TIP3    H225875   2.996   3.477  15.641
19602TIP3   OH225876   2.698   3.613  15.368
19602TIP3    H125877   2.679   3.579  15.279
19602TIP3    H225878   2.608   3.642  15.399
19603TIP3   OH225879   2.471   3.745  15.439
19603TIP3    H125880   2.394   3.728  15.497
19603TIP3    H225881   2.431   3.788  15.361
19604TIP3   OH225882   1.935   1.963  15.514
19604TIP3    H125883   2.005   2.006  15.565
19604TIP3    H225884   1.925   1.877  15.560
19605TIP3   OH225885   3.369   3.797  15.669
19605TIP3    H125886   3.446   3.823  15.723
19605TIP3    H225887   3.388   3.847  15.588
19606TIP3   OH225888   3.131   3.728  15.758
19606TIP3    H125889   3.222   3.751  15.729
19606TIP3    H225890   3.121   3.787  15.835
19607TIP3   OH225891   2.646   3.686  15.823
19607TIP3    H125892   2.700   3.718  15.896
19607TIP3    H225893   2.630   3.770  15.773
19608TIP3   OH225894   2.436   3.577  15.688
19608TIP3    H125895   2.506   3.610  15.749
19608TIP3    H225896   2.363   3.633  15.720
19609TIP3   OH225897   2.183   3.721  15.725
19609TIP3    H125898   2.172   3.812  15.759
19609TIP3    H225899   2.152   3.671  15.803
19610TIP3   OH225900   3.396   3.628  15.985
19610TIP3    H125901   3.415   3.568  15.909
19610TIP3    H225902   3.306   3.596  16.012
19611TIP3   OH225903   3.177   3.519  16.100
19611TIP3    H125904   3.187   3.424  16.083
19611TIP3    H225905   3.091   3.536  16.055
19612TIP3   OH225906   2.945   3.528  15.968
19612TIP3    H125907   2.908   3.439  15.983
19612TIP3    H225908   2.941   3.532  15.870
19613TIP3   OH225909   2.634   2.093  16.085
19613TIP3    H125910   2.716   2.053  16.051
19613TIP3    H225911   2.591   2.018  16.127
19614TIP3   OH225912   2.057   1.916  16.100
19614TIP3    H125913   1.991   1.970  16.149
19614TIP3    H225914   2.142   1.950  16.136
19615TIP3   OH225915   1.903   2.038  16.281
19615TIP3    H125916   1.837   1.981  16.327
19615TIP3    H225917   1.848   2.118  16.262
19616TIP3   OH225918   3.355   1.956  16.297
19616TIP3    H125919   3.435   1.944  16.353
19616TIP3    H225920   3.308   1.872  16.315
19617TIP3   OH225921   3.494   1.956  16.751
19617TIP3    H125922   3.437   2.018  16.802
19617TIP3    H225923   3.531   2.011  16.680
19618TIP3   OH225924   2.928   1.936  16.327
19618TIP3    H125925   2.839   1.956  16.362
19618TIP3    H225926   2.932   1.990  16.247
19619TIP3   OH225927   2.304   1.968  16.194
19619TIP3    H125928   2.341   1.999  16.277
19619TIP3    H225929   2.364   1.892  16.172
19620TIP3   OH225930   2.196   1.966  16.623
19620TIP3    H125931   2.278   2.014  16.639
19620TIP3    H225932   2.231   1.883  16.584
19621TIP3   OH225933   3.484   3.567  16.651
19621TIP3    H125934   3.572   3.565  16.694
19621TIP3    H225935   3.465   3.661  16.669
19622TIP3   OH225936   3.315   2.088  16.893
19622TIP3    H125937   3.229   2.049  16.912
19622TIP3    H225938   3.290   2.175  16.858
19623TIP3   OH225939   2.799   2.200  16.651
19623TIP3    H125940   2.760   2.135  16.591
19623TIP3    H225941   2.770   2.282  16.605
19624TIP3   OH225942   2.593   3.767  16.831
19624TIP3    H125943   2.505   3.783  16.869
19624TIP3    H225944   2.594   3.670  16.848
19625TIP3   OH225945   1.950   3.596  16.502
19625TIP3    H125946   1.963   3.517  16.560
19625TIP3    H225947   1.956   3.667  16.569
19626TIP3   OH225948   3.398   2.045  15.396
19626TIP3    H125949   3.447   1.961  15.381
19626TIP3    H225950   3.322   2.035  15.334
19627TIP3   OH225951   3.196   1.981  15.195
19627TIP3    H125952   3.102   1.971  15.217
19627TIP3    H225953   3.219   1.889  15.172
19628TIP3   OH225954   3.290   3.661  16.948
19628TIP3    H125955   3.363   3.706  16.903
19628TIP3    H225956   3.278   3.580  16.897
19629TIP3   OH225957   2.326   1.893  15.149
19629TIP3    H125958   2.338   1.799  15.139
19629TIP3    H225959   2.245   1.899  15.203
19630TIP3   OH225960   1.984   3.504  15.348
19630TIP3    H125961   2.042   3.517  15.428
19630TIP3    H225962   1.984   3.594  15.311
19631TIP3   OH225963   0.541   2.913  16.328
19631TIP3    H125964   0.550   3.011  16.337
19631TIP3    H225965   0.620   2.883  16.376
19632TIP3   OH225966   0.693   2.765  16.006
19632TIP3    H125967   0.678   2.730  15.916
19632TIP3    H225968   0.766   2.712  16.043
19633TIP3   OH225969   1.459   2.790  15.832
19633TIP3    H125970   1.465   2.708  15.781
19633TIP3    H225971   1.364   2.810  15.831
19634TIP3   OH225972   0.310   3.127  16.142
19634TIP3    H125973   0.290   3.047  16.093
19634TIP3    H225974   0.325   3.192  16.071
19635TIP3   OH225975   1.352   3.236  16.007
19635TIP3    H125976   1.383   3.148  16.038
19635TIP3    H225977   1.257   3.226  16.027
19636TIP3   OH225978   1.686   2.565  16.439
19636TIP3    H125979   1.712   2.657  16.426
19636TIP3    H225980   1.762   2.533  16.491
19637TIP3   OH225981   1.643   2.812  16.200
19637TIP3    H125982   1.611   2.720  16.184
19637TIP3    H225983   1.563   2.867  16.196
19638TIP3   OH225984   0.590   3.655  16.127
19638TIP3    H125985   0.531   3.594  16.178
19638TIP3    H225986   0.638   3.591  16.072
19639TIP3   OH225987   0.850   3.026  15.912
19639TIP3    H125988   0.818   2.993  15.999
19639TIP3    H225989   0.768   3.066  15.877
19640TIP3   OH225990   0.002   2.264  15.873
19640TIP3    H125991  -0.012   2.356  15.846
19640TIP3    H225992  -0.086   2.248  15.913
19641TIP3   OH225993   0.527   2.514  15.879
19641TIP3    H125994   0.497   2.423  15.875
19641TIP3    H225995   0.554   2.521  15.973
19642TIP3   OH225996   1.201   2.287  16.221
19642TIP3    H125997   1.196   2.369  16.274
19642TIP3    H225998   1.257   2.232  16.280
19643TIP3   OH225999   0.438   2.333  16.334
19643TIP3    H126000   0.388   2.293  16.260
19643TIP3    H226001   0.372   2.396  16.367
19644TIP3   OH226002   1.565   2.559  16.120
19644TIP3    H126003   1.497   2.522  16.061
19644TIP3    H226004   1.536   2.520  16.205
19645TIP3   OH226005   1.086   2.705  16.176
19645TIP3    H126006   1.005   2.660  16.144
19645TIP3    H226007   1.118   2.639  16.240
19646TIP3   OH226008   1.301   2.213  15.797
19646TIP3    H126009   1.350   2.258  15.868
19646TIP3    H226010   1.366   2.224  15.725
19647TIP3   OH226011   0.614   3.144  16.441
19647TIP3    H126012   0.649   3.152  16.532
19647TIP3    H226013   0.641   3.231  16.402
19648TIP3   OH226014   1.092   2.970  15.805
19648TIP3    H126015   1.144   3.048  15.777
19648TIP3    H226016   1.011   3.011  15.842
19649TIP3   OH226017   0.270   2.286  16.137
19649TIP3    H126018   0.302   2.231  16.063
19649TIP3    H226019   0.208   2.348  16.093
19650TIP3   OH226020   1.356   2.389  16.001
19650TIP3    H126021   1.296   2.450  15.953
19650TIP3    H226022   1.302   2.364  16.079
19651TIP3   OH226023   1.214   3.195  15.707
19651TIP3    H126024   1.230   3.285  15.739
19651TIP3    H226025   1.301   3.177  15.663
19652TIP3   OH226026   1.639   3.124  16.609
19652TIP3    H126027   1.636   3.178  16.690
19652TIP3    H226028   1.625   3.195  16.541
19653TIP3   OH226029   0.295   3.322  15.964
19653TIP3    H126030   0.392   3.335  15.952
19653TIP3    H226031   0.266   3.414  15.968
19654TIP3   OH226032   0.205   2.101  15.762
19654TIP3    H126033   0.272   2.113  15.832
19654TIP3    H226034   0.139   2.167  15.795
19655TIP3   OH226035   0.944   1.955  16.043
19655TIP3    H126036   0.978   1.865  16.053
19655TIP3    H226037   1.028   2.001  16.015
19656TIP3   OH226038   0.444   3.503  16.282
19656TIP3    H126039   0.408   3.418  16.313
19656TIP3    H226040   0.375   3.566  16.313
19657TIP3   OH226041   0.303   3.261  16.424
19657TIP3    H126042   0.333   3.185  16.478
19657TIP3    H226043   0.281   3.219  16.338
19658TIP3   OH226044   0.183   3.128  15.532
19658TIP3    H126045   0.182   3.053  15.596
19658TIP3    H226046   0.141   3.197  15.586
19659TIP3   OH226047   0.713   2.822  16.591
19659TIP3    H126048   0.779   2.893  16.609
19659TIP3    H226049   0.636   2.853  16.642
19660TIP3   OH226050   0.708   2.715  16.869
19660TIP3    H126051   0.635   2.739  16.807
19660TIP3    H226052   0.667   2.645  16.921
19661TIP3   OH226053  -0.007   2.764  15.784
19661TIP3    H126054   0.062   2.833  15.777
19661TIP3    H226055  -0.064   2.806  15.853
19662TIP3   OH226056   0.352   2.813  16.498
19662TIP3    H126057   0.417   2.856  16.437
19662TIP3    H226058   0.293   2.769  16.431
19663TIP3   OH226059   0.377   2.637  15.544
19663TIP3    H126060   0.390   2.700  15.470
19663TIP3    H226061   0.414   2.689  15.618
19664TIP3   OH226062   1.224   2.885  16.317
19664TIP3    H126063   1.230   2.840  16.404
19664TIP3    H226064   1.164   2.825  16.268
19665TIP3   OH226065   1.046   3.238  16.035
19665TIP3    H126066   1.035   3.224  16.130
19665TIP3    H226067   0.976   3.184  15.996
19666TIP3   OH226068   1.192   2.768  15.934
19666TIP3    H126069   1.156   2.764  16.025
19666TIP3    H226070   1.138   2.839  15.893
19667TIP3   OH226071   0.544   3.343  15.878
19667TIP3    H126072   0.565   3.410  15.811
19667TIP3    H226073   0.548   3.261  15.826
19668TIP3   OH226074   1.055   3.224  15.486
19668TIP3    H126075   1.125   3.271  15.434
19668TIP3    H226076   1.103   3.210  15.571
19669TIP3   OH226077   0.485   2.783  16.724
19669TIP3    H126078   0.435   2.783  16.639
19669TIP3    H226079   0.431   2.839  16.784
19670TIP3   OH226080   1.348   2.828  15.565
19670TIP3    H126081   1.342   2.916  15.525
19670TIP3    H226082   1.439   2.805  15.539
19671TIP3   OH226083   0.695   3.387  16.349
19671TIP3    H126084   0.637   3.455  16.311
19671TIP3    H226085   0.759   3.437  16.401
19672TIP3   OH226086   1.237   3.390  15.372
19672TIP3    H126087   1.242   3.428  15.462
19672TIP3    H226088   1.331   3.364  15.358
19673TIP3   OH226089   0.107   1.872  16.698
19673TIP3    H126090   0.187   1.921  16.669
19673TIP3    H226091   0.105   1.887  16.795
19674TIP3   OH226092   1.311   2.777  16.553
19674TIP3    H126093   1.353   2.863  16.576
19674TIP3    H226094   1.378   2.713  16.579
19675TIP3   OH226095  -0.001   3.392  16.896
19675TIP3    H126096  -0.051   3.449  16.955
19675TIP3    H226097  -0.064   3.317  16.886
19676TIP3   OH226098   1.656   3.062  15.658
19676TIP3    H126099   1.709   3.043  15.737
19676TIP3    H226100   1.625   2.971  15.639
19677TIP3   OH226101   1.702   3.320  15.978
19677TIP3    H126102   1.635   3.266  15.934
19677TIP3    H226103   1.685   3.407  15.939
19678TIP3   OH226104   0.814   3.340  15.490
19678TIP3    H126105   0.818   3.425  15.443
19678TIP3    H226106   0.905   3.303  15.484
19679TIP3   OH226107   0.751   3.716  16.562
19679TIP3    H126108   0.750   3.740  16.657
19679TIP3    H226109   0.749   3.805  16.520
19680TIP3   OH226110   1.378   3.589  16.345
19680TIP3    H126111   1.362   3.560  16.252
19680TIP3    H226112   1.469   3.559  16.361
19681TIP3   OH226113   0.454   3.668  16.855
19681TIP3    H126114   0.405   3.589  16.887
19681TIP3    H226115   0.444   3.660  16.759
19682TIP3   OH226116   0.493   3.632  16.553
19682TIP3    H126117   0.588   3.651  16.537
19682TIP3    H226118   0.482   3.545  16.513
19683TIP3   OH226119   0.162   2.570  15.390
19683TIP3    H126120   0.238   2.578  15.452
19683TIP3    H226121   0.122   2.485  15.415
19684TIP3   OH226122   1.442   3.197  15.572
19684TIP3    H126123   1.431   3.161  15.482
19684TIP3    H226124   1.525   3.152  15.602
19685TIP3   OH226125   1.179   2.048  15.973
19685TIP3    H126126   1.270   2.036  16.006
19685TIP3    H226127   1.196   2.110  15.898
19686TIP3   OH226128   0.703   1.994  15.637
19686TIP3    H126129   0.670   1.940  15.562
19686TIP3    H226130   0.801   1.988  15.631
19687TIP3   OH226131   0.390   2.367  15.539
19687TIP3    H126132   0.453   2.356  15.463
19687TIP3    H226133   0.389   2.465  15.548
19688TIP3   OH226134   0.334   2.896  16.906
19688TIP3    H126135   0.290   2.850  16.980
19688TIP3    H226136   0.260   2.948  16.869
19689TIP3   OH226137   0.750   2.288  16.872
19689TIP3    H126138   0.786   2.276  16.782
19689TIP3    H226139   0.769   2.202  16.910
19690TIP3   OH226140   1.169   2.514  15.836
19690TIP3    H126141   1.246   2.524  15.776
19690TIP3    H226142   1.165   2.604  15.874
19691TIP3   OH226143   1.195   2.517  16.360
19691TIP3    H126144   1.292   2.509  16.370
19691TIP3    H226145   1.164   2.499  16.452
19692TIP3   OH226146   0.624   2.608  16.463
19692TIP3    H126147   0.661   2.686  16.510
19692TIP3    H226148   0.562   2.573  16.530
19693TIP3   OH226149   0.773   2.623  15.344
19693TIP3    H126150   0.810   2.547  15.294
19693TIP3    H226151   0.692   2.637  15.293
19694TIP3   OH226152   0.546   2.576  16.165
19694TIP3    H126153   0.565   2.662  16.206
19694TIP3    H226154   0.533   2.520  16.244
19695TIP3   OH226155   1.427   2.522  15.718
19695TIP3    H126156   1.384   2.570  15.645
19695TIP3    H226157   1.459   2.441  15.673
19696TIP3   OH226158   1.085   2.313  16.931
19696TIP3    H126159   1.126   2.251  16.867
19696TIP3    H226160   1.118   2.400  16.901
19697TIP3   OH226161   1.741   2.254  16.252
19697TIP3    H126162   1.673   2.270  16.185
19697TIP3    H226163   1.706   2.300  16.330
19698TIP3   OH226164   1.645   2.322  16.743
19698TIP3    H126165   1.584   2.365  16.806
19698TIP3    H226166   1.700   2.400  16.720
19699TIP3   OH226167   0.595   2.741  15.748
19699TIP3    H126168   0.556   2.658  15.782
19699TIP3    H226169   0.657   2.704  15.682
19700TIP3   OH226170   0.894   2.259  16.268
19700TIP3    H126171   0.989   2.259  16.244
19700TIP3    H226172   0.849   2.240  16.183
19701TIP3   OH226173   1.465   2.432  16.346
19701TIP3    H126174   1.535   2.470  16.404
19701TIP3    H226175   1.445   2.345  16.389
19702TIP3   OH226176   1.112   2.465  16.615
19702TIP3    H126177   1.016   2.482  16.606
19702TIP3    H226178   1.133   2.512  16.699
19703TIP3   OH226179   0.425   2.172  15.942
19703TIP3    H126180   0.506   2.191  15.890
19703TIP3    H226181   0.461   2.116  16.014
19704TIP3   OH226182   1.179   2.556  16.859
19704TIP3    H126183   1.248   2.554  16.928
19704TIP3    H226184   1.108   2.608  16.902
19705TIP3   OH226185   0.192   3.750  15.275
19705TIP3    H126186   0.160   3.792  15.358
19705TIP3    H226187   0.117   3.769  15.218
19706TIP3   OH226188   1.391   3.018  15.353
19706TIP3    H126189   1.315   3.030  15.293
19706TIP3    H226190   1.461   3.000  15.289
19707TIP3   OH226191   0.860   2.540  16.093
19707TIP3    H126192   0.766   2.524  16.111
19707TIP3    H226193   0.883   2.469  16.030
19708TIP3   OH226194   1.358   2.182  16.414
19708TIP3    H126195   1.409   2.111  16.368
19708TIP3    H226196   1.325   2.136  16.493
19709TIP3   OH226197   0.943   2.374  15.814
19709TIP3    H126198   1.018   2.438  15.822
19709TIP3    H226199   0.873   2.429  15.774
19710TIP3   OH226200   0.889   3.024  16.621
19710TIP3    H126201   0.965   2.975  16.660
19710TIP3    H226202   0.928   3.051  16.535
19711TIP3   OH226203   0.172   2.976  15.744
19711TIP3    H126204   0.127   3.035  15.807
19711TIP3    H226205   0.258   2.961  15.788
19712TIP3   OH226206   0.499   2.314  16.796
19712TIP3    H126207   0.592   2.318  16.826
19712TIP3    H226208   0.480   2.408  16.779
19713TIP3   OH226209   0.778   3.053  15.532
19713TIP3    H126210   0.775   3.008  15.447
19713TIP3    H226211   0.795   3.145  15.507
19714TIP3   OH226212   0.410   2.529  16.666
19714TIP3    H126213   0.342   2.504  16.601
19714TIP3    H226214   0.384   2.619  16.692
19715TIP3   OH226215   1.371   2.973  16.096
19715TIP3    H126216   1.330   2.955  16.183
19715TIP3    H226217   1.335   2.903  16.039
19716TIP3   OH226218   0.676   3.168  16.717
19716TIP3    H126219   0.722   3.251  16.692
19716TIP3    H226220   0.744   3.101  16.696
19717TIP3   OH226221   1.647   2.801  15.525
19717TIP3    H126222   1.670   2.750  15.446
19717TIP3    H226223   1.707   2.765  15.592
19718TIP3   OH226224   1.003   2.773  15.370
19718TIP3    H126225   1.052   2.721  15.434
19718TIP3    H226226   0.917   2.726  15.368
19719TIP3   OH226227   0.491   3.294  15.514
19719TIP3    H126228   0.580   3.310  15.548
19719TIP3    H226229   0.500   3.334  15.425
19720TIP3   OH226230   0.081   3.335  16.652
19720TIP3    H126231   0.172   3.306  16.643
19720TIP3    H226232   0.072   3.358  16.747
19721TIP3   OH226233   0.374   2.880  15.936
19721TIP3    H126234   0.468   2.865  15.957
19721TIP3    H226235   0.332   2.824  16.004
19722TIP3   OH226236   1.142   3.320  16.340
19722TIP3    H126237   1.130   3.415  16.359
19722TIP3    H226238   1.227   3.306  16.383
19723TIP3   OH226239   1.528   2.800  16.869
19723TIP3    H126240   1.478   2.863  16.813
19723TIP3    H226241   1.618   2.806  16.832
19724TIP3   OH226242   1.007   3.086  16.387
19724TIP3    H126243   1.051   3.173  16.375
19724TIP3    H226244   1.057   3.028  16.327
19725TIP3   OH226245   0.942   3.510  15.680
19725TIP3    H126246   0.881   3.582  15.702
19725TIP3    H226247   0.877   3.445  15.646
19726TIP3   OH226248   1.110   3.577  16.425
19726TIP3    H126249   1.207   3.587  16.408
19726TIP3    H226250   1.079   3.663  16.388
19727TIP3   OH226251   0.625   3.096  15.766
19727TIP3    H126252   0.667   3.077  15.679
19727TIP3    H226253   0.601   3.007  15.794
19728TIP3   OH226254   0.364   3.242  16.817
19728TIP3    H126255   0.338   3.181  16.744
19728TIP3    H226256   0.450   3.200  16.839
19729TIP3   OH226257   0.344   3.563  15.504
19729TIP3    H126258   0.406   3.501  15.544
19729TIP3    H226259   0.298   3.603  15.582
19730TIP3   OH226260   1.489   2.269  15.592
19730TIP3    H126261   1.571   2.317  15.569
19730TIP3    H226262   1.498   2.187  15.542
19731TIP3   OH226263   0.289   3.042  16.632
19731TIP3    H126264   0.319   2.956  16.594
19731TIP3    H226265   0.191   3.031  16.635
19732TIP3   OH226266   1.536   3.452  15.761
19732TIP3    H126267   1.478   3.374  15.757
19732TIP3    H226268   1.523   3.488  15.672
19733TIP3   OH226269   1.080   3.269  16.755
19733TIP3    H126270   1.011   3.228  16.700
19733TIP3    H226271   1.067   3.365  16.736
19734TIP3   OH226272   1.421   2.997  16.714
19734TIP3    H126273   1.490   3.041  16.659
19734TIP3    H226274   1.374   3.072  16.755
19735TIP3   OH226275   0.611   2.266  15.649
19735TIP3    H126276   0.519   2.282  15.622
19735TIP3    H226277   0.627   2.172  15.626
19736TIP3   OH226278   0.570   2.230  16.537
19736TIP3    H126279   0.528   2.276  16.612
19736TIP3    H226280   0.528   2.278  16.461
19737TIP3   OH226281   0.785   3.408  16.660
19737TIP3    H126282   0.850   3.480  16.656
19737TIP3    H226283   0.732   3.437  16.736
19738TIP3   OH226284   0.820   2.408  16.493
19738TIP3    H126285   0.758   2.482  16.478
19738TIP3    H226286   0.837   2.373  16.404
19739TIP3   OH226287   0.745   2.523  15.601
19739TIP3    H126288   0.764   2.546  15.508
19739TIP3    H226289   0.691   2.442  15.596
19740TIP3   OH226290   0.767   2.083  16.428
19740TIP3    H126291   0.813   2.145  16.367
19740TIP3    H226292   0.695   2.143  16.461
19741TIP3   OH226293   1.067   3.531  16.695
19741TIP3    H126294   1.037   3.617  16.730
19741TIP3    H226295   1.088   3.557  16.603
19742TIP3   OH226296   1.207   2.208  16.714
19742TIP3    H126297   1.195   2.295  16.671
19742TIP3    H226298   1.127   2.163  16.682
19743TIP3   OH226299   0.149   2.283  15.459
19743TIP3    H126300   0.239   2.291  15.498
19743TIP3    H226301   0.091   2.299  15.534
19744TIP3   OH226302   0.295   2.686  16.127
19744TIP3    H126303   0.380   2.641  16.111
19744TIP3    H226304   0.235   2.631  16.071
19745TIP3   OH226305   1.349   3.248  16.854
19745TIP3    H126306   1.270   3.279  16.805
19745TIP3    H226307   1.306   3.189  16.918
19746TIP3   OH226308   1.525   2.529  16.906
19746TIP3    H126309   1.508   2.624  16.891
19746TIP3    H226310   1.593   2.532  16.975
19747TIP3   OH226311   0.147   3.566  15.932
19747TIP3    H126312   0.176   3.630  16.001
19747TIP3    H226313   0.054   3.587  15.921
19748TIP3   OH226314   1.443   2.001  16.028
19748TIP3    H126315   1.449   1.992  16.125
19748TIP3    H226316   1.470   1.911  16.000
19749TIP3   OH226317   1.607   3.359  16.471
19749TIP3    H126318   1.673   3.411  16.423
19749TIP3    H226319   1.575   3.426  16.534
19750TIP3   OH226320   1.637   3.673  15.304
19750TIP3    H126321   1.581   3.653  15.225
19750TIP3    H226322   1.674   3.586  15.321
19751TIP3   OH226323   1.246   3.565  15.157
19751TIP3    H126324   1.151   3.577  15.152
19751TIP3    H226325   1.252   3.498  15.229
19752TIP3   OH226326   0.680   3.505  16.912
19752TIP3    H126327   0.731   3.446  16.971
19752TIP3    H226328   0.615   3.541  16.975
19753TIP3   OH226329   0.535   3.427  15.272
19753TIP3    H126330   0.571   3.348  15.226
19753TIP3    H226331   0.450   3.441  15.225
19754TIP3   OH226332   0.278   3.491  16.977
19754TIP3    H126333   0.281   3.412  16.918
19754TIP3    H226334   0.185   3.518  16.968
19755TIP3   OH226335   1.653   2.985  15.221
19755TIP3    H126336   1.645   2.892  15.250
19755TIP3    H226337   1.687   3.033  15.300
19756TIP3   OH226338   1.169   3.054  16.981
19756TIP3    H126339   1.105   3.045  16.909
19756TIP3    H226340   1.132   2.993  17.048
19757TIP3   OH226341   0.987   3.039  15.297
19757TIP3    H126342   1.002   3.095  15.376
19757TIP3    H226343   1.005   2.948  15.331
19758TIP3   OH226344   0.427   3.018  15.481
19758TIP3    H126345   0.338   3.060  15.486
19758TIP3    H226346   0.480   3.099  15.497
19759TIP3   OH226347   1.549   2.728  15.216
19759TIP3    H126348   1.466   2.683  15.196
19759TIP3    H226349   1.594   2.733  15.131
19760TIP3   OH226350   1.076   2.884  16.748
19760TIP3    H126351   1.147   2.830  16.709
19760TIP3    H226352   1.033   2.821  16.808
19761TIP3   OH226353   1.165   2.645  15.593
19761TIP3    H126354   1.218   2.727  15.580
19761TIP3    H226355   1.089   2.682  15.641
19762TIP3   OH226356   0.959   2.698  16.952
19762TIP3    H126357   0.931   2.702  17.045
19762TIP3    H226358   0.871   2.701  16.906
19763TIP3   OH226359   0.615   2.923  15.175
19763TIP3    H126360   0.526   2.886  15.188
19763TIP3    H226361   0.658   2.851  15.123
19764TIP3   OH226362   0.047   2.888   8.518
19764TIP3    H126363   0.047   2.892   8.615
19764TIP3    H226364  -0.004   2.966   8.492
19765TIP3   OH226365   1.099   2.413  15.459
19765TIP3    H126366   1.093   2.334  15.517
19765TIP3    H226367   1.113   2.487  15.522
19766TIP3   OH226368   1.084   2.213  15.642
19766TIP3    H126369   1.037   2.265  15.711
19766TIP3    H226370   1.173   2.203  15.681
19767TIP3   OH226371   0.942   2.797  15.667
19767TIP3    H126372   0.861   2.846  15.687
19767TIP3    H226373   1.008   2.862  15.698
19768TIP3   OH226374   0.502   2.549  15.113
19768TIP3    H126375   0.438   2.496  15.162
19768TIP3    H226376   0.443   2.616  15.070
19769TIP3   OH226377   0.365   2.823  15.315
19769TIP3    H126378   0.403   2.893  15.372
19769TIP3    H226379   0.269   2.840  15.328
19770TIP3   OH226380   1.248   2.474  15.243
19770TIP3    H126381   1.329   2.431  15.274
19770TIP3    H226382   1.186   2.452  15.316
19771TIP3   OH226383   0.973   1.970  15.654
19771TIP3    H126384   1.010   2.061  15.643
19771TIP3    H226385   1.051   1.923  15.688
19772TIP3   OH226386   0.891   2.396  15.251
19772TIP3    H126387   0.954   2.364  15.184
19772TIP3    H226388   0.938   2.372  15.332
19773TIP3   OH226389   0.575   2.318  15.343
19773TIP3    H126390   0.663   2.287  15.316
19773TIP3    H226391   0.517   2.275  15.277
19774TIP3   OH226392   0.414   2.172  15.170
19774TIP3    H126393   0.446   2.079  15.166
19774TIP3    H226394   0.440   2.209  15.083
19775TIP3   OH226395   1.483   2.306  15.224
19775TIP3    H126396   1.507   2.223  15.270
19775TIP3    H226397   1.452   2.273  15.137
19776TIP3   OH226398   1.017   1.928  15.387
19776TIP3    H126399   0.936   1.874  15.380
19776TIP3    H226400   1.006   1.958  15.480
19777TIP3   OH226401   0.979   2.036  15.078
19777TIP3    H126402   1.002   1.988  15.160
19777TIP3    H226403   1.015   2.124  15.103
19778TIP3   OH226404   1.002   3.776  16.802
19778TIP3    H126405   0.916   3.821  16.791
19778TIP3    H226406   0.995   3.752  16.896
19779TIP3   OH226407   1.649   3.229  16.898
19779TIP3    H126408   1.552   3.233  16.890
19779TIP3    H226409   1.656   3.189  16.985
19780TIP3   OH226410   1.741   3.725  16.395
19780TIP3    H126411   1.821   3.674  16.422
19780TIP3    H226412   1.709   3.667  16.323
19781TIP3   OH226413   1.659   3.554  16.193
19781TIP3    H126414   1.714   3.486  16.150
19781TIP3    H226415   1.606   3.588  16.117
19782TIP3   OH226416  -0.020   3.596  15.603
19782TIP3    H126417   0.033   3.534  15.658
19782TIP3    H226418  -0.034   3.539  15.527
19783TIP3   OH226419   0.080   3.173  15.125
19783TIP3    H126420   0.173   3.184  15.098
19783TIP3    H226421   0.045   3.260  15.100
19784TIP3   OH226422   0.029   2.988  16.629
19784TIP3    H126423  -0.039   3.054  16.603
19784TIP3    H226424   0.044   2.938  16.548
19785TIP3   OH226425   9.337   3.118  15.892
19785TIP3    H126426   9.279   3.046  15.927
19785TIP3    H226427   9.315   3.192  15.952
19786TIP3   OH226428   0.117   3.364  15.693
19786TIP3    H126429   0.212   3.367  15.673
19786TIP3    H226430   0.116   3.340  15.788
19787TIP3   OH226431  -0.002   2.503  16.955
19787TIP3    H126432   0.044   2.575  17.000
19787TIP3    H226433   0.060   2.430  16.970
19788TIP3   OH226434   0.183   2.654  16.367
19788TIP3    H126435   0.188   2.563  16.403
19788TIP3    H226436   0.208   2.644  16.272
19789TIP3   OH226437   1.674   2.893  15.936
19789TIP3    H126438   1.677   2.865  16.029
19789TIP3    H226439   1.582   2.868  15.912
19790TIP3   OH226440   0.072   2.855  15.360
19790TIP3    H126441   0.079   2.757  15.361
19790TIP3    H226442   0.000   2.873  15.423
19791TIP3   OH226443   0.170   2.285  17.026
19791TIP3    H126444   0.114   2.219  16.983
19791TIP3    H226445   0.259   2.257  17.002
19792TIP3   OH226446   0.220   2.431  16.510
19792TIP3    H126447   0.206   2.335  16.488
19792TIP3    H226448   0.149   2.442  16.574
19793TIP3   OH226449   0.159   2.492  15.984
19793TIP3    H126450   0.062   2.491  15.969
19793TIP3    H226451   0.185   2.502  15.890
19794TIP3   OH226452   0.144   2.560  15.720
19794TIP3    H126453   0.205   2.604  15.660
19794TIP3    H226454   0.076   2.629  15.736
19795TIP3   OH226455   1.711   2.406  15.340
19795TIP3    H126456   1.634   2.394  15.281
19795TIP3    H226457   1.759   2.322  15.327
19796TIP3   OH226458   0.176   2.171  16.488
19796TIP3    H126459   0.146   2.140  16.400
19796TIP3    H226460   0.230   2.094  16.518
19797TIP3   OH226461   1.591   2.228  15.988
19797TIP3    H126462   1.548   2.140  15.998
19797TIP3    H226463   1.515   2.288  16.001
19798TIP3   OH226464   1.736   2.533  15.915
19798TIP3    H126465   1.686   2.496  15.989
19798TIP3    H226466   1.696   2.621  15.910
19799TIP3   OH226467   1.721   2.157  16.541
19799TIP3    H126468   1.813   2.175  16.520
19799TIP3    H226469   1.709   2.206  16.625
19800TIP3   OH226470   0.245   3.663  16.345
19800TIP3    H126471   0.169   3.638  16.399
19800TIP3    H226472   0.201   3.696  16.264
19801TIP3   OH226473   1.716   2.008  15.710
19801TIP3    H126474   1.787   1.971  15.654
19801TIP3    H226475   1.760   2.081  15.756
19802TIP3   OH226476   1.499   3.328  15.290
19802TIP3    H126477   1.580   3.349  15.340
19802TIP3    H226478   1.529   3.323  15.199
19803TIP3   OH226479   1.210   3.493  15.631
19803TIP3    H126480   1.210   3.584  15.670
19803TIP3    H226481   1.113   3.476  15.638
19804TIP3   OH226482   0.770   3.634  15.380
19804TIP3    H126483   0.743   3.568  15.315
19804TIP3    H226484   0.682   3.673  15.401
19805TIP3   OH226485   0.536   3.752  15.438
19805TIP3    H126486   0.465   3.689  15.461
19805TIP3    H226487   0.502   3.789  15.355
19806TIP3   OH226488   0.106   1.970  15.481
19806TIP3    H126489   0.156   2.026  15.542
19806TIP3    H226490   0.071   1.900  15.540
19807TIP3   OH226491   1.471   3.793  15.664
19807TIP3    H126492   1.542   3.853  15.693
19807TIP3    H226493   1.482   3.795  15.568
19808TIP3   OH226494   1.235   3.725  15.767
19808TIP3    H126495   1.329   3.743  15.743
19808TIP3    H226496   1.222   3.789  15.840
19809TIP3   OH226497   0.734   3.711  15.840
19809TIP3    H126498   0.796   3.756  15.899
19809TIP3    H226499   0.724   3.777  15.768
19810TIP3   OH226500   0.564   3.555  15.703
19810TIP3    H126501   0.619   3.609  15.766
19810TIP3    H226502   0.483   3.608  15.706
19811TIP3   OH226503   0.255   3.690  15.727
19811TIP3    H126504   0.249   3.786  15.739
19811TIP3    H226505   0.204   3.655  15.803
19812TIP3   OH226506   1.507   3.632  15.980
19812TIP3    H126507   1.534   3.576  15.904
19812TIP3    H226508   1.419   3.595  16.003
19813TIP3   OH226509   1.291   3.524  16.093
19813TIP3    H126510   1.308   3.432  16.067
19813TIP3    H226511   1.201   3.537  16.053
19814TIP3   OH226512   1.052   3.518  15.966
19814TIP3    H126513   1.025   3.425  15.979
19814TIP3    H226514   1.036   3.533  15.871
19815TIP3   OH226515   0.723   2.114  16.074
19815TIP3    H126516   0.805   2.069  16.044
19815TIP3    H226517   0.684   2.045  16.128
19816TIP3   OH226518   0.210   1.896  16.104
19816TIP3    H126519   0.155   1.964  16.151
19816TIP3    H226520   0.298   1.937  16.113
19817TIP3   OH226521   0.064   2.048  16.271
19817TIP3    H126522   0.003   1.997  16.330
19817TIP3    H226523   0.005   2.123  16.245
19818TIP3   OH226524   1.466   1.955  16.303
19818TIP3    H126525   1.551   1.946  16.349
19818TIP3    H226526   1.425   1.866  16.319
19819TIP3   OH226527   1.615   1.955  16.755
19819TIP3    H126528   1.557   2.017  16.805
19819TIP3    H226529   1.650   2.011  16.684
19820TIP3   OH226530   1.042   1.946  16.309
19820TIP3    H126531   0.953   1.947  16.348
19820TIP3    H226532   1.028   1.992  16.225
19821TIP3   OH226533   0.456   2.002  16.182
19821TIP3    H126534   0.457   2.004  16.279
19821TIP3    H226535   0.510   1.922  16.161
19822TIP3   OH226536   0.327   1.969  16.587
19822TIP3    H126537   0.404   2.025  16.605
19822TIP3    H226538   0.369   1.885  16.557
19823TIP3   OH226539   1.598   3.567  16.645
19823TIP3    H126540   1.688   3.560  16.680
19823TIP3    H226541   1.584   3.662  16.666
19824TIP3   OH226542   1.433   2.092  16.887
19824TIP3    H126543   1.348   2.045  16.893
19824TIP3    H226544   1.405   2.179  16.856
19825TIP3   OH226545   0.902   2.194  16.642
19825TIP3    H126546   0.864   2.134  16.577
19825TIP3    H226547   0.884   2.280  16.597
19826TIP3   OH226548   0.721   3.756  16.827
19826TIP3    H126549   0.637   3.773  16.875
19826TIP3    H226550   0.720   3.658  16.837
19827TIP3   OH226551   0.060   3.575  16.522
19827TIP3    H126552   0.082   3.491  16.568
19827TIP3    H226553   0.076   3.642  16.593
19828TIP3   OH226554   1.512   2.036  15.338
19828TIP3    H126555   1.550   1.946  15.342
19828TIP3    H226556   1.428   2.020  15.293
19829TIP3   OH226557   1.291   1.949  15.165
19829TIP3    H126558   1.221   1.962  15.230
19829TIP3    H226559   1.273   1.859  15.135
19830TIP3   OH226560   1.407   3.674  16.938
19830TIP3    H126561   1.482   3.709  16.886
19830TIP3    H226562   1.387   3.589  16.896
19831TIP3   OH226563   0.462   1.905  15.162
19831TIP3    H126564   0.456   1.857  15.076
19831TIP3    H226565   0.371   1.886  15.198
19832TIP3   OH226566   0.127   3.504  15.333
19832TIP3    H126567   0.213   3.485  15.375
19832TIP3    H226568   0.143   3.599  15.312
19833TIP3   OH226569   8.081   4.785  16.335
19833TIP3    H126570   8.097   4.882  16.329
19833TIP3    H226571   8.164   4.754  16.375
19834TIP3   OH226572   8.202   4.670  16.000
19834TIP3    H126573   8.201   4.628  15.912
19834TIP3    H226574   8.285   4.637  16.041
19835TIP3   OH226575   8.951   4.687  15.841
19835TIP3    H126576   8.961   4.614  15.778
19835TIP3    H226577   8.878   4.736  15.801
19836TIP3   OH226578   7.891   4.993  16.141
19836TIP3    H126579   7.912   4.921  16.079
19836TIP3    H226580   7.869   5.063  16.077
19837TIP3   OH226581   8.940   5.112  16.028
19837TIP3    H126582   8.943   5.020  16.064
19837TIP3    H226583   8.851   5.109  15.992
19838TIP3   OH226584   9.196   4.452  16.455
19838TIP3    H126585   9.213   4.547  16.453
19838TIP3    H226586   9.276   4.419  16.413
19839TIP3   OH226587   9.186   4.664  16.195
19839TIP3    H126588   9.129   4.586  16.178
19839TIP3    H226589   9.128   4.722  16.247
19840TIP3   OH226590   8.141   5.537  16.155
19840TIP3    H126591   8.078   5.480  16.205
19840TIP3    H226592   8.177   5.470  16.096
19841TIP3   OH226593   8.390   4.936  15.894
19841TIP3    H126594   8.355   4.918  15.982
19841TIP3    H226595   8.307   4.948  15.844
19842TIP3   OH226596   7.532   4.096  15.896
19842TIP3    H126597   7.530   4.148  15.814
19842TIP3    H226598   7.447   4.121  15.934
19843TIP3   OH226599   8.033   4.390  15.885
19843TIP3    H126600   8.020   4.295  15.871
19843TIP3    H226601   8.033   4.390  15.983
19844TIP3   OH226602   8.748   4.169  16.196
19844TIP3    H126603   8.730   4.247  16.252
19844TIP3    H226604   8.785   4.108  16.262
19845TIP3   OH226605   7.989   4.192  16.353
19845TIP3    H126606   7.938   4.165  16.273
19845TIP3    H226607   7.943   4.273  16.378
19846TIP3   OH226608   9.050   4.443  16.128
19846TIP3    H126609   8.983   4.406  16.068
19846TIP3    H226610   9.036   4.387  16.208
19847TIP3   OH226611   8.611   4.591  16.183
19847TIP3    H126612   8.529   4.549  16.149
19847TIP3    H226613   8.647   4.519  16.239
19848TIP3   OH226614   7.513   4.234  15.649
19848TIP3    H126615   7.554   4.316  15.688
19848TIP3    H226616   7.467   4.275  15.574
19849TIP3   OH226617   8.828   4.101  15.778
19849TIP3    H126618   8.870   4.148  15.854
19849TIP3    H226619   8.894   4.116  15.708
19850TIP3   OH226620   8.163   5.026  16.446
19850TIP3    H126621   8.175   5.032  16.542
19850TIP3    H226622   8.209   5.108  16.415
19851TIP3   OH226623   8.633   4.867  15.807
19851TIP3    H126624   8.688   4.943  15.778
19851TIP3    H226625   8.555   4.913  15.845
19852TIP3   OH226626   7.812   4.152  16.143
19852TIP3    H126627   7.808   4.084  16.074
19852TIP3    H226628   7.727   4.196  16.131
19853TIP3   OH226629   8.881   4.272  15.984
19853TIP3    H126630   8.818   4.335  15.941
19853TIP3    H226631   8.827   4.235  16.059
19854TIP3   OH226632   8.764   5.085  15.715
19854TIP3    H126633   8.775   5.177  15.745
19854TIP3    H226634   8.850   5.070  15.670
19855TIP3   OH226635   9.170   5.037  16.588
19855TIP3    H126636   9.166   5.087  16.672
19855TIP3    H226637   9.135   5.100  16.521
19856TIP3   OH226638   7.810   5.190  15.940
19856TIP3    H126639   7.901   5.215  15.910
19856TIP3    H226640   7.782   5.271  15.985
19857TIP3   OH226641   7.801   4.026  15.808
19857TIP3    H126642   7.884   4.059  15.849
19857TIP3    H226643   7.731   4.068  15.861
19858TIP3   OH226644   8.518   3.819  16.043
19858TIP3    H126645   8.549   3.727  16.052
19858TIP3    H226646   8.601   3.862  16.010
19859TIP3   OH226647   7.977   5.371  16.279
19859TIP3    H126648   7.946   5.289  16.323
19859TIP3    H226649   7.902   5.432  16.300
19860TIP3   OH226650   7.865   5.149  16.423
19860TIP3    H126651   7.881   5.080  16.490
19860TIP3    H226652   7.879   5.098  16.341
19861TIP3   OH226653   7.701   5.029  15.545
19861TIP3    H126654   7.701   4.954  15.609
19861TIP3    H226655   7.700   5.104  15.607
19862TIP3   OH226656   8.257   4.700  16.597
19862TIP3    H126657   8.315   4.778  16.607
19862TIP3    H226658   8.171   4.731  16.633
19863TIP3   OH226659   8.249   4.615  16.874
19863TIP3    H126660   8.195   4.634  16.794
19863TIP3    H226661   8.204   4.538  16.910
19864TIP3   OH226662   7.495   4.672  15.782
19864TIP3    H126663   7.557   4.746  15.768
19864TIP3    H226664   7.435   4.713  15.848
19865TIP3   OH226665   7.855   4.738  16.477
19865TIP3    H126666   7.934   4.753  16.419
19865TIP3    H226667   7.801   4.679  16.419
19866TIP3   OH226668   7.884   4.551  15.558
19866TIP3    H126669   7.918   4.632  15.516
19866TIP3    H226670   7.939   4.549  15.638
19867TIP3   OH226671   8.714   4.783  16.321
19867TIP3    H126672   8.772   4.737  16.385
19867TIP3    H226673   8.661   4.710  16.281
19868TIP3   OH226674   8.595   5.124  16.045
19868TIP3    H126675   8.590   5.121  16.142
19868TIP3    H226676   8.516   5.077  16.015
19869TIP3   OH226677   8.699   4.648  15.940
19869TIP3    H126678   8.663   4.652  16.032
19869TIP3    H226679   8.661   4.728  15.898
19870TIP3   OH226680   8.059   5.237  15.861
19870TIP3    H126681   8.107   5.291  15.797
19870TIP3    H226682   8.076   5.146  15.832
19871TIP3   OH226683   8.603   5.118  15.492
19871TIP3    H126684   8.674   5.169  15.447
19871TIP3    H226685   8.652   5.089  15.572
19872TIP3   OH226686   8.013   4.678  16.703
19872TIP3    H126687   7.952   4.706  16.630
19872TIP3    H226688   7.968   4.714  16.783
19873TIP3   OH226689   8.915   4.724  15.560
19873TIP3    H126690   8.904   4.785  15.485
19873TIP3    H226691   9.012   4.713  15.557
19874TIP3   OH226692   8.259   5.263  16.361
19874TIP3    H126693   8.222   5.322  16.295
19874TIP3    H226694   8.302   5.323  16.423
19875TIP3   OH226695   8.803   5.286  15.397
19875TIP3    H126696   8.808   5.323  15.489
19875TIP3    H226697   8.898   5.269  15.380
19876TIP3   OH226698   7.605   3.806  16.681
19876TIP3    H126699   7.702   3.818  16.679
19876TIP3    H226700   7.576   3.885  16.730
19877TIP3   OH226701   8.884   4.679  16.508
19877TIP3    H126702   8.899   4.753  16.570
19877TIP3    H226703   8.920   4.603  16.556
19878TIP3   OH226704   7.538   5.247  16.915
19878TIP3    H126705   7.507   5.339  16.908
19878TIP3    H226706   7.452   5.201  16.906
19879TIP3   OH226707   9.205   4.928  15.649
19879TIP3    H126708   9.259   4.923  15.730
19879TIP3    H226709   9.206   4.836  15.617
19880TIP3   OH226710   9.206   5.224  16.014
19880TIP3    H126711   9.123   5.175  16.037
19880TIP3    H226712   9.176   5.269  15.932
19881TIP3   OH226713   7.439   5.271  15.403
19881TIP3    H126714   7.450   5.176  15.411
19881TIP3    H226715   7.522   5.291  15.354
19882TIP3   OH226716   8.338   5.225  15.511
19882TIP3    H126717   8.324   5.291  15.441
19882TIP3    H226718   8.433   5.204  15.505
19883TIP3   OH226719   8.279   5.602  16.570
19883TIP3    H126720   8.283   5.623  16.666
19883TIP3    H226721   8.284   5.691  16.529
19884TIP3   OH226722   8.926   5.470  16.362
19884TIP3    H126723   8.920   5.432  16.271
19884TIP3    H226724   9.019   5.454  16.385
19885TIP3   OH226725   7.980   5.546  16.848
19885TIP3    H126726   7.931   5.467  16.877
19885TIP3    H226727   7.980   5.534  16.751
19886TIP3   OH226728   8.011   5.520  16.570
19886TIP3    H126729   8.107   5.542  16.563
19886TIP3    H226730   8.010   5.434  16.525
19887TIP3   OH226731   7.726   4.408  15.356
19887TIP3    H126732   7.766   4.469  15.422
19887TIP3    H226733   7.730   4.323  15.404
19888TIP3   OH226734   8.992   5.071  15.565
19888TIP3    H126735   9.017   5.071  15.471
19888TIP3    H226736   9.071   5.025  15.603
19889TIP3   OH226737   8.735   3.929  15.949
19889TIP3    H126738   8.822   3.934  15.994
19889TIP3    H226739   8.753   3.981  15.869
19890TIP3   OH226740   8.240   3.893  15.621
19890TIP3    H126741   8.204   3.835  15.550
19890TIP3    H226742   8.337   3.882  15.614
19891TIP3   OH226743   7.959   4.273  15.514
19891TIP3    H126744   8.015   4.234  15.442
19891TIP3    H226745   7.964   4.369  15.495
19892TIP3   OH226746   7.887   4.777  16.914
19892TIP3    H126747   7.870   4.782  17.009
19892TIP3    H226748   7.814   4.833  16.881
19893TIP3   OH226749   8.290   4.176  16.888
19893TIP3    H126750   8.338   4.180  16.805
19893TIP3    H226751   8.313   4.087  16.918
19894TIP3   OH226752   8.706   4.410  15.840
19894TIP3    H126753   8.752   4.440  15.760
19894TIP3    H226754   8.705   4.496  15.889
19895TIP3   OH226755   8.715   4.393  16.338
19895TIP3    H126756   8.811   4.391  16.358
19895TIP3    H226757   8.676   4.375  16.427
19896TIP3   OH226758   8.169   4.495  16.459
19896TIP3    H126759   8.209   4.572  16.507
19896TIP3    H226760   8.105   4.463  16.526
19897TIP3   OH226761   8.298   4.492  15.341
19897TIP3    H126762   8.337   4.412  15.299
19897TIP3    H226763   8.255   4.531  15.264
19898TIP3   OH226764   8.041   4.442  16.167
19898TIP3    H126765   8.063   4.524  16.216
19898TIP3    H226766   8.076   4.377  16.229
19899TIP3   OH226767   8.980   4.424  15.705
19899TIP3    H126768   8.927   4.442  15.627
19899TIP3    H226769   9.005   4.331  15.694
19900TIP3   OH226770   8.627   4.201  16.931
19900TIP3    H126771   8.672   4.156  16.857
19900TIP3    H226772   8.659   4.292  16.929
19901TIP3   OH226773   9.226   4.123  16.246
19901TIP3    H126774   9.142   4.131  16.199
19901TIP3    H226775   9.206   4.149  16.337
19902TIP3   OH226776   9.197   4.226  16.747
19902TIP3    H126777   9.128   4.232  16.814
19902TIP3    H226778   9.248   4.307  16.764
19903TIP3   OH226779   8.144   4.597  15.742
19903TIP3    H126780   8.097   4.527  15.793
19903TIP3    H226781   8.208   4.542  15.691
19904TIP3   OH226782   8.434   4.168  16.233
19904TIP3    H126783   8.524   4.174  16.199
19904TIP3    H226784   8.389   4.115  16.163
19905TIP3   OH226785   8.985   4.295  16.353
19905TIP3    H126786   9.048   4.326  16.421
19905TIP3    H226787   8.951   4.210  16.388
19906TIP3   OH226788   8.641   4.349  16.609
19906TIP3    H126789   8.545   4.368  16.605
19906TIP3    H226790   8.674   4.402  16.685
19907TIP3   OH226791   8.032   4.099  15.919
19907TIP3    H126792   8.111   4.090  15.864
19907TIP3    H226793   8.049   4.040  15.994
19908TIP3   OH226794   8.745   4.462  16.851
19908TIP3    H126795   8.801   4.452  16.930
19908TIP3    H226796   8.662   4.500  16.889
19909TIP3   OH226797   7.735   5.666  15.268
19909TIP3    H126798   7.687   5.688  15.349
19909TIP3    H226799   7.660   5.668  15.205
19910TIP3   OH226800   8.955   4.896  15.315
19910TIP3    H126801   8.918   4.889  15.226
19910TIP3    H226802   9.048   4.922  15.294
19911TIP3   OH226803   8.397   4.468  16.083
19911TIP3    H126804   8.308   4.435  16.104
19911TIP3    H226805   8.434   4.396  16.028
19912TIP3   OH226806   8.884   4.053  16.410
19912TIP3    H126807   8.935   3.978  16.372
19912TIP3    H226808   8.831   4.009  16.478
19913TIP3   OH226809   8.478   4.280  15.813
19913TIP3    H126810   8.559   4.336  15.817
19913TIP3    H226811   8.414   4.337  15.769
19914TIP3   OH226812   8.415   4.910  16.619
19914TIP3    H126813   8.491   4.869  16.665
19914TIP3    H226814   8.459   4.939  16.535
19915TIP3   OH226815   7.692   4.863  15.751
19915TIP3    H126816   7.642   4.916  15.817
19915TIP3    H226817   7.777   4.853  15.797
19916TIP3   OH226818   8.031   4.198  16.837
19916TIP3    H126819   8.119   4.211  16.877
19916TIP3    H226820   8.021   4.280  16.784
19917TIP3   OH226821   8.232   4.964  15.486
19917TIP3    H126822   8.307   4.904  15.494
19917TIP3    H226823   8.275   5.052  15.490
19918TIP3   OH226824   7.979   4.406  16.651
19918TIP3    H126825   7.912   4.385  16.583
19918TIP3    H226826   7.941   4.486  16.693
19919TIP3   OH226827   8.896   4.858  16.112
19919TIP3    H126828   8.855   4.839  16.198
19919TIP3    H226829   8.871   4.779  16.061
19920TIP3   OH226830   8.208   5.049  16.731
19920TIP3    H126831   8.253   5.134  16.708
19920TIP3    H226832   8.274   4.984  16.702
19921TIP3   OH226833   9.189   4.670  15.555
19921TIP3    H126834   9.187   4.622  15.470
19921TIP3    H226835   9.224   4.605  15.618
19922TIP3   OH226836   8.537   4.655  15.363
19922TIP3    H126837   8.587   4.627  15.441
19922TIP3    H226838   8.452   4.610  15.377
19923TIP3   OH226839   8.022   5.195  15.504
19923TIP3    H126840   8.099   5.211  15.560
19923TIP3    H226841   8.052   5.233  15.418
19924TIP3   OH226842   7.486   4.396  16.681
19924TIP3    H126843   7.554   4.390  16.751
19924TIP3    H226844   7.467   4.492  16.687
19925TIP3   OH226845   7.476   4.966  15.407
19925TIP3    H126846   7.563   4.999  15.441
19925TIP3    H226847   7.421   4.964  15.488
19926TIP3   OH226848   7.655   5.272  16.667
19926TIP3    H126849   7.687   5.187  16.637
19926TIP3    H226850   7.627   5.259  16.760
19927TIP3   OH226851   7.930   4.773  15.958
19927TIP3    H126852   8.020   4.742  15.975
19927TIP3    H226853   7.879   4.704  16.005
19928TIP3   OH226854   8.680   5.205  16.304
19928TIP3    H126855   8.657   5.293  16.340
19928TIP3    H226856   8.773   5.198  16.332
19929TIP3   OH226857   9.104   4.684  16.792
19929TIP3    H126858   9.021   4.733  16.804
19929TIP3    H226859   9.170   4.738  16.839
19930TIP3   OH226860   8.543   4.975  16.387
19930TIP3    H126861   8.588   5.055  16.353
19930TIP3    H226862   8.596   4.904  16.345
19931TIP3   OH226863   8.486   5.386  15.712
19931TIP3    H126864   8.429   5.457  15.748
19931TIP3    H226865   8.427   5.351  15.642
19932TIP3   OH226866   8.650   5.453  16.427
19932TIP3    H126867   8.746   5.458  16.413
19932TIP3    H226868   8.622   5.537  16.385
19933TIP3   OH226869   8.153   4.970  15.769
19933TIP3    H126870   8.154   4.957  15.671
19933TIP3    H226871   8.094   4.898  15.797
19934TIP3   OH226872   7.902   5.115  16.827
19934TIP3    H126873   7.877   5.056  16.752
19934TIP3    H226874   7.994   5.084  16.837
19935TIP3   OH226875   7.855   5.418  15.526
19935TIP3    H126876   7.940   5.371  15.540
19935TIP3    H226877   7.851   5.477  15.603
19936TIP3   OH226878   7.463   5.523  16.834
19936TIP3    H126879   7.417   5.594  16.882
19936TIP3    H226880   7.533   5.575  16.788
19937TIP3   OH226881   9.030   4.159  15.602
19937TIP3    H126882   9.092   4.195  15.535
19937TIP3    H226883   9.050   4.064  15.594
19938TIP3   OH226884   7.817   4.951  16.630
19938TIP3    H126885   7.831   4.866  16.581
19938TIP3    H226886   7.721   4.958  16.621
19939TIP3   OH226887   9.080   5.338  15.782
19939TIP3    H126888   9.008   5.277  15.760
19939TIP3    H226889   9.089   5.389  15.700
19940TIP3   OH226890   8.615   5.146  16.773
19940TIP3    H126891   8.538   5.099  16.737
19940TIP3    H226892   8.597   5.240  16.749
19941TIP3   OH226893   8.936   4.891  16.707
19941TIP3    H126894   9.016   4.919  16.658
19941TIP3    H226895   8.909   4.974  16.751
19942TIP3   OH226896   8.173   4.152  15.667
19942TIP3    H126897   8.083   4.156  15.632
19942TIP3    H226898   8.200   4.060  15.647
19943TIP3   OH226899   8.095   4.092  16.579
19943TIP3    H126900   8.047   4.128  16.655
19943TIP3    H226901   8.044   4.126  16.502
19944TIP3   OH226902   8.310   5.290  16.671
19944TIP3    H126903   8.388   5.346  16.671
19944TIP3    H226904   8.258   5.325  16.746
19945TIP3   OH226905   8.384   4.289  16.485
19945TIP3    H126906   8.318   4.359  16.468
19945TIP3    H226907   8.411   4.257  16.397
19946TIP3   OH226908   8.268   4.403  15.614
19946TIP3    H126909   8.255   4.416  15.518
19946TIP3    H226910   8.227   4.316  15.633
19947TIP3   OH226911   8.291   3.962  16.442
19947TIP3    H126912   8.323   4.032  16.383
19947TIP3    H226913   8.218   4.010  16.489
19948TIP3   OH226914   8.575   5.402  16.699
19948TIP3    H126915   8.553   5.488  16.743
19948TIP3    H226916   8.613   5.437  16.614
19949TIP3   OH226917   8.732   4.095  16.703
19949TIP3    H126918   8.742   4.174  16.647
19949TIP3    H226919   8.639   4.073  16.679
19950TIP3   OH226920   7.726   4.153  15.461
19950TIP3    H126921   7.817   4.174  15.494
19950TIP3    H226922   7.674   4.157  15.544
19951TIP3   OH226923   7.807   4.549  16.091
19951TIP3    H126924   7.888   4.494  16.096
19951TIP3    H226925   7.746   4.490  16.041
19952TIP3   OH226926   8.881   5.137  16.858
19952TIP3    H126927   8.820   5.180  16.797
19952TIP3    H226928   8.818   5.072  16.897
19953TIP3   OH226929   9.054   4.434  16.962
19953TIP3    H126930   9.031   4.506  16.902
19953TIP3    H226931   9.150   4.426  16.947
19954TIP3   OH226932   7.734   5.465  15.933
19954TIP3    H126933   7.739   5.539  15.998
19954TIP3    H226934   7.637   5.458  15.925
19955TIP3   OH226935   8.978   3.888  16.034
19955TIP3    H126936   8.989   3.865  16.129
19955TIP3    H226937   9.014   3.806  15.992
19956TIP3   OH226938   9.089   5.248  16.443
19956TIP3    H126939   9.179   5.280  16.436
19956TIP3    H226940   9.060   5.303  16.519
19957TIP3   OH226941   9.197   5.561  15.289
19957TIP3    H126942   9.132   5.513  15.234
19957TIP3    H226943   9.259   5.490  15.312
19958TIP3   OH226944   8.705   5.405  15.157
19958TIP3    H126945   8.608   5.403  15.151
19958TIP3    H226946   8.720   5.387  15.253
19959TIP3   OH226947   8.220   5.391  16.919
19959TIP3    H126948   8.289   5.344  16.971
19959TIP3    H226949   8.165   5.425  16.992
19960TIP3   OH226950   8.086   5.313  15.267
19960TIP3    H126951   8.113   5.222  15.240
19960TIP3    H226952   8.000   5.321  15.220
19961TIP3   OH226953   7.801   5.336  16.985
19961TIP3    H126954   7.847   5.267  16.934
19961TIP3    H226955   7.709   5.313  16.958
19962TIP3   OH226956   9.211   4.933  15.249
19962TIP3    H126957   9.207   4.848  15.201
19962TIP3    H226958   9.308   4.943  15.256
19963TIP3   OH226959   8.705   4.944  16.960
19963TIP3    H126960   8.651   4.912  16.884
19963TIP3    H226961   8.681   4.881  17.030
19964TIP3   OH226962   7.955   4.910  15.510
19964TIP3    H126963   7.873   4.965  15.505
19964TIP3    H226964   8.022   4.979  15.492
19965TIP3   OH226965   9.123   4.615  15.242
19965TIP3    H126966   9.035   4.576  15.245
19965TIP3    H226967   9.118   4.664  15.157
19966TIP3   OH226968   8.608   4.775  16.757
19966TIP3    H126969   8.685   4.733  16.716
19966TIP3    H226970   8.573   4.703  16.813
19967TIP3   OH226971   8.716   4.539  15.595
19967TIP3    H126972   8.783   4.605  15.564
19967TIP3    H226973   8.645   4.598  15.629
19968TIP3   OH226974   8.512   4.581  16.944
19968TIP3    H126975   8.488   4.581  17.038
19968TIP3    H226976   8.421   4.589  16.903
19969TIP3   OH226977   8.169   4.807  15.181
19969TIP3    H126978   8.127   4.781  15.265
19969TIP3    H226979   8.206   4.723  15.147
19970TIP3   OH226980   7.609   4.855   8.513
19970TIP3    H126981   7.651   4.877   8.597
19970TIP3    H226982   7.578   4.941   8.482
19971TIP3   OH226983   8.638   4.324  15.450
19971TIP3    H126984   8.625   4.245  15.506
19971TIP3    H226985   8.636   4.396  15.517
19972TIP3   OH226986   8.588   4.112  15.647
19972TIP3    H126987   8.527   4.162  15.709
19972TIP3    H226988   8.670   4.116  15.701
19973TIP3   OH226989   8.485   4.700  15.659
19973TIP3    H126990   8.404   4.725  15.705
19973TIP3    H226991   8.546   4.769  15.694
19974TIP3   OH226992   8.009   4.420  15.175
19974TIP3    H126993   7.958   4.396  15.253
19974TIP3    H226994   7.958   4.496  15.143
19975TIP3   OH226995   7.880   4.729  15.326
19975TIP3    H126996   7.909   4.794  15.393
19975TIP3    H226997   7.783   4.730  15.340
19976TIP3   OH226998   8.834   4.416  15.261
19976TIP3    H126999   8.893   4.339  15.263
19976TIP3    H227000   8.766   4.390  15.328
19977TIP3   OH227001   8.513   3.857  15.652
19977TIP3    H127002   8.554   3.946  15.646
19977TIP3    H227003   8.588   3.803  15.682
19978TIP3   OH227004   8.403   4.262  15.245
19978TIP3    H127005   8.466   4.251  15.171
19978TIP3    H227006   8.468   4.266  15.317
19979TIP3   OH227007   8.130   4.183  15.332
19979TIP3    H127008   8.219   4.220  15.319
19979TIP3    H227009   8.147   4.093  15.302
19980TIP3   OH227010   8.995   4.173  15.211
19980TIP3    H127011   9.006   4.111  15.285
19980TIP3    H227012   9.005   4.115  15.134
19981TIP3   OH227013   8.526   3.799  15.370
19981TIP3    H127014   8.455   3.733  15.379
19981TIP3    H227015   8.525   3.834  15.461
19982TIP3   OH227016   8.530   3.913  15.103
19982TIP3    H127017   8.526   3.874  15.193
19982TIP3    H227018   8.554   4.006  15.123
19983TIP3   OH227019   8.534   5.638  16.808
19983TIP3    H127020   8.449   5.683  16.825
19983TIP3    H227021   8.592   5.683  16.869
19984TIP3   OH227022   9.142   5.112  16.915
19984TIP3    H127023   9.049   5.139  16.895
19984TIP3    H227024   9.137   5.111  17.013
19985TIP3   OH227025   9.257   5.626  16.396
19985TIP3    H127026   9.319   5.559  16.433
19985TIP3    H227027   9.238   5.581  16.311
19986TIP3   OH227028   9.204   5.462  16.185
19986TIP3    H127029   9.242   5.375  16.161
19986TIP3    H227030   9.156   5.484  16.102
19987TIP3   OH227031   7.459   5.522  15.933
19987TIP3    H127032   7.432   5.532  15.841
19987TIP3    H227033   7.405   5.590  15.976
19988TIP3   OH227034   7.501   5.462  15.618
19988TIP3    H127035   7.532   5.385  15.670
19988TIP3    H227036   7.481   5.418  15.533
19989TIP3   OH227037   7.651   5.045  15.105
19989TIP3    H127038   7.747   5.054  15.084
19989TIP3    H227039   7.620   5.134  15.078
19990TIP3   OH227040   7.542   4.900  16.622
19990TIP3    H127041   7.454   4.943  16.609
19990TIP3    H227042   7.544   4.838  16.546
19991TIP3   OH227043   7.491   4.705  16.411
19991TIP3    H127044   7.570   4.671  16.364
19991TIP3    H227045   7.428   4.716  16.338
19992TIP3   OH227046   7.527   4.967  15.924
19992TIP3    H127047   7.464   4.899  15.956
19992TIP3    H227048   7.485   5.050  15.954
19993TIP3   OH227049   7.667   5.251  15.698
19993TIP3    H127050   7.718   5.319  15.650
19993TIP3    H227051   7.721   5.235  15.778
19994TIP3   OH227052   7.492   4.666  16.791
19994TIP3    H127053   7.550   4.688  16.866
19994TIP3    H227054   7.509   4.741  16.731
19995TIP3   OH227055   7.690   4.400  16.905
19995TIP3    H127056   7.616   4.438  16.957
19995TIP3    H227057   7.680   4.306  16.931
19996TIP3   OH227058   7.707   4.567  16.334
19996TIP3    H127059   7.726   4.476  16.364
19996TIP3    H227060   7.731   4.561  16.239
19997TIP3   OH227061   9.176   4.780  15.953
19997TIP3    H127062   9.185   4.743  16.044
19997TIP3    H227063   9.084   4.755  15.927
19998TIP3   OH227064   7.615   4.742  15.371
19998TIP3    H127065   7.557   4.662  15.369
19998TIP3    H227066   7.551   4.815  15.385
19999TIP3   OH227067   7.480   4.513  15.346
19999TIP3    H127068   7.565   4.465  15.334
19999TIP3    H227069   7.415   4.440  15.351
20000TIP3   OH227070   7.706   4.157  17.027
20000TIP3    H127071   7.656   4.105  16.960
20000TIP3    H227072   7.798   4.154  16.996
20001TIP3   OH227073   7.770   4.338  16.489
20001TIP3    H127074   7.737   4.250  16.461
20001TIP3    H227075   7.724   4.340  16.575
20002TIP3   OH227076   7.653   4.378  15.945
20002TIP3    H127077   7.555   4.391  15.940
20002TIP3    H227078   7.677   4.386  15.851
20003TIP3   OH227079   7.665   4.448  15.675
20003TIP3    H127080   7.755   4.475  15.646
20003TIP3    H227081   7.622   4.534  15.696
20004TIP3   OH227082   9.230   4.256  15.360
20004TIP3    H127083   9.184   4.269  15.275
20004TIP3    H227084   9.305   4.199  15.336
20005TIP3   OH227085   7.478   3.859  15.194
20005TIP3    H127086   7.425   3.785  15.230
20005TIP3    H227087   7.449   3.934  15.247
20006TIP3   OH227088   7.692   4.071  16.483
20006TIP3    H127089   7.656   4.023  16.406
20006TIP3    H227090   7.731   4.000  16.536
20007TIP3   OH227091   9.097   4.119  15.966
20007TIP3    H127092   9.060   4.030  15.987
20007TIP3    H227093   9.019   4.177  15.970
20008TIP3   OH227094   9.250   4.408  15.944
20008TIP3    H127095   9.184   4.385  16.012
20008TIP3    H227096   9.235   4.503  15.935
20009TIP3   OH227097   7.493   4.093  15.344
20009TIP3    H127098   7.588   4.118  15.355
20009TIP3    H227099   7.489   4.024  15.413
20010TIP3   OH227100   7.511   4.062  16.855
20010TIP3    H127101   7.470   4.008  16.924
20010TIP3    H227102   7.432   4.105  16.816
20011TIP3   OH227103   9.256   4.051  16.546
20011TIP3    H127104   9.353   4.048  16.559
20011TIP3    H227105   9.227   4.094  16.629
20012TIP3   OH227106   7.792   5.559  16.313
20012TIP3    H127107   7.726   5.527  16.379
20012TIP3    H227108   7.738   5.608  16.249
20013TIP3   OH227109   9.242   3.913  15.695
20013TIP3    H127110   9.303   3.905  15.620
20013TIP3    H227111   9.284   3.978  15.753
20014TIP3   OH227112   9.062   5.245  15.302
20014TIP3    H127113   9.150   5.284  15.308
20014TIP3    H227114   9.039   5.260  15.210
20015TIP3   OH227115   8.754   5.379  15.652
20015TIP3    H127116   8.759   5.472  15.685
20015TIP3    H227117   8.658   5.364  15.661
20016TIP3   OH227118   8.322   5.527  15.383
20016TIP3    H127119   8.322   5.497  15.288
20016TIP3    H227120   8.227   5.544  15.399
20017TIP3   OH227121   8.089   5.663  15.432
20017TIP3    H127122   8.016   5.611  15.467
20017TIP3    H227123   8.058   5.688  15.343
20018TIP3   OH227124   7.601   3.843  15.508
20018TIP3    H127125   7.672   3.891  15.553
20018TIP3    H227126   7.603   3.756  15.552
20019TIP3   OH227127   9.013   5.666  15.654
20019TIP3    H127128   9.095   5.705  15.693
20019TIP3    H227129   9.017   5.699  15.562
20020TIP3   OH227130   8.766   5.625  15.763
20020TIP3    H127131   8.856   5.647  15.729
20020TIP3    H227132   8.758   5.685  15.840
20021TIP3   OH227133   8.302   5.584  15.840
20021TIP3    H127134   8.344   5.639  15.908
20021TIP3    H227135   8.283   5.653  15.772
20022TIP3   OH227136   8.099   5.462  15.696
20022TIP3    H127137   8.163   5.499  15.760
20022TIP3    H227138   8.024   5.520  15.716
20023TIP3   OH227139   7.826   5.607  15.720
20023TIP3    H127140   7.830   5.690  15.771
20023TIP3    H227141   7.785   5.546  15.786
20024TIP3   OH227142   9.042   5.529  15.970
20024TIP3    H127143   9.069   5.473  15.894
20024TIP3    H227144   8.962   5.483  16.003
20025TIP3   OH227145   8.860   5.395  16.106
20025TIP3    H127146   8.871   5.300  16.090
20025TIP3    H227147   8.773   5.409  16.062
20026TIP3   OH227148   8.631   5.388  15.962
20026TIP3    H127149   8.593   5.299  15.984
20026TIP3    H227150   8.594   5.400  15.872
20027TIP3   OH227151   8.324   3.992  16.062
20027TIP3    H127152   8.396   3.925  16.052
20027TIP3    H227153   8.256   3.945  16.112
20028TIP3   OH227154   7.727   3.811  16.094
20028TIP3    H127155   7.660   3.862  16.146
20028TIP3    H227156   7.812   3.840  16.134
20029TIP3   OH227157   7.561   3.917  16.289
20029TIP3    H127158   7.498   3.860  16.340
20029TIP3    H227159   7.502   3.992  16.266
20030TIP3   OH227160   8.999   3.838  16.307
20030TIP3    H127161   9.082   3.823  16.357
20030TIP3    H227162   8.954   3.750  16.315
20031TIP3   OH227163   9.108   3.798  16.744
20031TIP3    H127164   9.081   3.869  16.807
20031TIP3    H227165   9.164   3.844  16.681
20032TIP3   OH227166   8.576   3.817  16.325
20032TIP3    H127167   8.488   3.826  16.364
20032TIP3    H227168   8.565   3.856  16.236
20033TIP3   OH227169   7.984   3.861  16.195
20033TIP3    H127170   8.013   3.879  16.285
20033TIP3    H227171   8.032   3.777  16.175
20034TIP3   OH227172   7.859   3.844  16.635
20034TIP3    H127173   7.943   3.887  16.653
20034TIP3    H227174   7.890   3.762  16.590
20035TIP3   OH227175   9.131   5.433  16.639
20035TIP3    H127176   9.227   5.421  16.651
20035TIP3    H227177   9.126   5.529  16.663
20036TIP3   OH227178   8.960   3.995  16.885
20036TIP3    H127179   8.887   3.944  16.920
20036TIP3    H227180   8.915   4.051  16.820
20037TIP3   OH227181   8.453   4.079  16.642
20037TIP3    H127182   8.401   4.021  16.582
20037TIP3    H227183   8.430   4.166  16.601
20038TIP3   OH227184   8.244   5.642  16.830
20038TIP3    H127185   8.154   5.654  16.868
20038TIP3    H227186   8.251   5.546  16.847
20039TIP3   OH227187   7.619   5.481  16.500
20039TIP3    H127188   7.624   5.407  16.567
20039TIP3    H227189   7.614   5.558  16.561
20040TIP3   OH227190   9.036   3.903  15.413
20040TIP3    H127191   9.104   3.841  15.379
20040TIP3    H227192   8.965   3.887  15.347
20041TIP3   OH227193   8.841   3.865  15.210
20041TIP3    H127194   8.755   3.851  15.252
20041TIP3    H227195   8.841   3.796  15.141
20042TIP3   OH227196   8.975   5.478  16.930
20042TIP3    H127197   9.011   5.520  16.851
20042TIP3    H227198   8.915   5.412  16.895
20043TIP3   OH227199   7.994   3.809  15.216
20043TIP3    H127200   8.010   3.750  15.140
20043TIP3    H227201   7.897   3.795  15.230
20044TIP3   OH227202   7.670   5.400  15.342
20044TIP3    H127203   7.740   5.371  15.405
20044TIP3    H227204   7.700   5.492  15.329
20045TIP3   OH227205   6.207   4.787  16.329
20045TIP3    H127206   6.217   4.884  16.323
20045TIP3    H227207   6.289   4.761  16.374
20046TIP3   OH227208   6.330   4.672  15.986
20046TIP3    H127209   6.330   4.635  15.895
20046TIP3    H227210   6.407   4.631  16.030
20047TIP3   OH227211   7.132   4.659  15.851
20047TIP3    H127212   7.134   4.586  15.787
20047TIP3    H227213   7.050   4.704  15.824
20048TIP3   OH227214   6.015   4.978  16.157
20048TIP3    H127215   6.041   4.911  16.092
20048TIP3    H227216   5.978   5.046  16.098
20049TIP3   OH227217   7.014   5.124  16.010
20049TIP3    H127218   7.044   5.036  16.041
20049TIP3    H227219   6.918   5.110  16.018
20050TIP3   OH227220   7.336   4.441  16.450
20050TIP3    H127221   7.367   4.530  16.425
20050TIP3    H227222   7.396   4.420  16.523
20051TIP3   OH227223   7.297   4.694  16.199
20051TIP3    H127224   7.260   4.606  16.173
20051TIP3    H227225   7.217   4.750  16.207
20052TIP3   OH227226   6.248   5.533  16.157
20052TIP3    H127227   6.188   5.469  16.203
20052TIP3    H227228   6.270   5.478  16.081
20053TIP3   OH227229   6.526   4.945  15.888
20053TIP3    H127230   6.493   4.944  15.979
20053TIP3    H227231   6.443   4.961  15.839
20054TIP3   OH227232   5.645   4.088  15.890
20054TIP3    H127233   5.645   4.144  15.810
20054TIP3    H227234   5.556   4.110  15.924
20055TIP3   OH227235   6.147   4.388  15.890
20055TIP3    H127236   6.125   4.297  15.867
20055TIP3    H227237   6.162   4.380  15.986
20056TIP3   OH227238   6.855   4.168  16.216
20056TIP3    H127239   6.843   4.253  16.263
20056TIP3    H227240   6.905   4.119  16.283
20057TIP3   OH227241   6.100   4.197  16.350
20057TIP3    H127242   6.048   4.174  16.269
20057TIP3    H227243   6.051   4.274  16.382
20058TIP3   OH227244   7.217   4.442  16.118
20058TIP3    H127245   7.157   4.399  16.055
20058TIP3    H227246   7.187   4.401  16.203
20059TIP3   OH227247   6.733   4.589  16.171
20059TIP3    H127248   6.647   4.546  16.148
20059TIP3    H227249   6.767   4.522  16.234
20060TIP3   OH227250   5.633   4.225  15.656
20060TIP3    H127251   5.665   4.315  15.680
20060TIP3    H227252   5.610   4.237  15.562
20061TIP3   OH227253   6.962   4.087  15.789
20061TIP3    H127254   7.008   4.137  15.858
20061TIP3    H227255   7.022   4.102  15.712
20062TIP3   OH227256   6.281   5.025  16.436
20062TIP3    H127257   6.297   5.026  16.532
20062TIP3    H227258   6.305   5.117  16.410
20063TIP3   OH227259   6.758   4.850  15.782
20063TIP3    H127260   6.816   4.922  15.749
20063TIP3    H227261   6.681   4.900  15.817
20064TIP3   OH227262   5.944   4.167  16.132
20064TIP3    H127263   5.974   4.122  16.051
20064TIP3    H227264   5.852   4.189  16.112
20065TIP3   OH227265   7.007   4.276  15.987
20065TIP3    H127266   6.947   4.342  15.946
20065TIP3    H227267   6.956   4.251  16.068
20066TIP3   OH227268   6.875   5.078  15.690
20066TIP3    H127269   6.881   5.167  15.728
20066TIP3    H227270   6.967   5.071  15.654
20067TIP3   OH227271   7.289   5.013  16.611
20067TIP3    H127272   7.286   5.064  16.695
20067TIP3    H227273   7.273   5.082  16.543
20068TIP3   OH227274   5.919   5.186  15.936
20068TIP3    H127275   6.009   5.211  15.906
20068TIP3    H227276   5.898   5.265  15.989
20069TIP3   OH227277   5.930   4.023  15.803
20069TIP3    H127278   6.013   4.054  15.846
20069TIP3    H227279   5.862   4.048  15.869
20070TIP3   OH227280   6.610   3.830  16.046
20070TIP3    H127281   6.640   3.738  16.054
20070TIP3    H227282   6.696   3.871  16.017
20071TIP3   OH227283   6.086   5.361  16.273
20071TIP3    H127284   6.060   5.283  16.326
20071TIP3    H227285   6.008   5.420  16.286
20072TIP3   OH227286   5.993   5.147  16.423
20072TIP3    H127287   6.002   5.078  16.491
20072TIP3    H227288   6.005   5.092  16.343
20073TIP3   OH227289   5.810   5.019  15.555
20073TIP3    H127290   5.807   4.944  15.619
20073TIP3    H227291   5.794   5.094  15.615
20074TIP3   OH227292   6.362   4.702  16.585
20074TIP3    H127293   6.427   4.773  16.610
20074TIP3    H227294   6.278   4.739  16.619
20075TIP3   OH227295   6.360   4.602  16.861
20075TIP3    H127296   6.298   4.624  16.788
20075TIP3    H227297   6.319   4.522  16.897
20076TIP3   OH227298   5.621   4.661  15.765
20076TIP3    H127299   5.694   4.727  15.767
20076TIP3    H227300   5.562   4.698  15.834
20077TIP3   OH227301   5.979   4.742  16.467
20077TIP3    H127302   6.057   4.761  16.410
20077TIP3    H227303   5.924   4.685  16.406
20078TIP3   OH227304   6.001   4.560  15.549
20078TIP3    H127305   6.032   4.642  15.508
20078TIP3    H227306   6.050   4.564  15.633
20079TIP3   OH227307   6.859   4.773  16.312
20079TIP3    H127308   6.868   4.728  16.398
20079TIP3    H227309   6.795   4.715  16.264
20080TIP3   OH227310   6.709   5.119  16.027
20080TIP3    H127311   6.700   5.093  16.119
20080TIP3    H227312   6.651   5.058  15.978
20081TIP3   OH227313   6.839   4.652  15.933
20081TIP3    H127314   6.796   4.652  16.022
20081TIP3    H227315   6.794   4.726  15.887
20082TIP3   OH227316   6.165   5.236  15.860
20082TIP3    H127317   6.224   5.288  15.803
20082TIP3    H227318   6.183   5.145  15.831
20083TIP3   OH227319   6.714   5.114  15.474
20083TIP3    H127320   6.782   5.166  15.426
20083TIP3    H227321   6.761   5.098  15.559
20084TIP3   OH227322   6.124   4.678  16.696
20084TIP3    H127323   6.070   4.700  16.617
20084TIP3    H227324   6.075   4.722  16.769
20085TIP3   OH227325   7.010   4.722  15.580
20085TIP3    H127326   6.995   4.802  15.528
20085TIP3    H227327   7.093   4.694  15.537
20086TIP3   OH227328   6.348   5.272  16.353
20086TIP3    H127329   6.325   5.333  16.282
20086TIP3    H227330   6.397   5.327  16.416
20087TIP3   OH227331   6.891   5.281  15.383
20087TIP3    H127332   6.899   5.323  15.472
20087TIP3    H227333   6.984   5.252  15.368
20088TIP3   OH227334   5.722   3.804  16.683
20088TIP3    H127335   5.819   3.819  16.677
20088TIP3    H227336   5.694   3.882  16.735
20089TIP3   OH227337   6.960   4.670  16.579
20089TIP3    H127338   7.006   4.752  16.608
20089TIP3    H227339   7.032   4.605  16.576
20090TIP3   OH227340   5.658   5.249  16.910
20090TIP3    H127341   5.615   5.337  16.909
20090TIP3    H227342   5.577   5.195  16.905
20091TIP3   OH227343   7.326   4.944  15.625
20091TIP3    H127344   7.372   4.942  15.710
20091TIP3    H227345   7.290   4.852  15.624
20092TIP3   OH227346   7.354   5.215  15.992
20092TIP3    H127347   7.273   5.170  15.965
20092TIP3    H227348   7.354   5.290  15.930
20093TIP3   OH227349   5.547   5.269  15.392
20093TIP3    H127350   5.576   5.180  15.416
20093TIP3    H227351   5.634   5.307  15.363
20094TIP3   OH227352   6.467   5.226  15.485
20094TIP3    H127353   6.465   5.302  15.425
20094TIP3    H227354   6.559   5.192  15.476
20095TIP3   OH227355   6.392   5.601  16.572
20095TIP3    H127356   6.397   5.626  16.666
20095TIP3    H227357   6.395   5.690  16.529
20096TIP3   OH227358   7.036   5.476  16.356
20096TIP3    H127359   7.014   5.442  16.266
20096TIP3    H227360   7.124   5.435  16.373
20097TIP3   OH227361   6.106   5.553  16.841
20097TIP3    H127362   6.042   5.487  16.873
20097TIP3    H227363   6.102   5.538  16.744
20098TIP3   OH227364   6.126   5.521  16.566
20098TIP3    H127365   6.222   5.542  16.557
20098TIP3    H227366   6.120   5.437  16.517
20099TIP3   OH227367   5.852   4.414  15.355
20099TIP3    H127368   5.912   4.457  15.420
20099TIP3    H227369   5.845   4.323  15.390
20100TIP3   OH227370   7.104   5.076  15.559
20100TIP3    H127371   7.091   5.039  15.469
20100TIP3    H227372   7.192   5.038  15.582
20101TIP3   OH227373   6.836   3.936  15.966
20101TIP3    H127374   6.921   3.934  16.013
20101TIP3    H227375   6.861   3.988  15.887
20102TIP3   OH227376   6.345   3.868  15.644
20102TIP3    H127377   6.304   3.826  15.564
20102TIP3    H227378   6.440   3.866  15.619
20103TIP3   OH227379   6.082   4.303  15.547
20103TIP3    H127380   6.137   4.274  15.470
20103TIP3    H227381   6.064   4.397  15.525
20104TIP3   OH227382   5.993   4.782  16.906
20104TIP3    H127383   5.987   4.780  17.002
20104TIP3    H227384   5.914   4.836  16.885
20105TIP3   OH227385   6.406   4.193  16.892
20105TIP3    H127386   6.458   4.199  16.810
20105TIP3    H227387   6.433   4.107  16.927
20106TIP3   OH227388   6.835   4.410  15.821
20106TIP3    H127389   6.916   4.408  15.766
20106TIP3    H227390   6.840   4.503  15.853
20107TIP3   OH227391   6.841   4.395  16.352
20107TIP3    H127392   6.938   4.394  16.366
20107TIP3    H227393   6.805   4.375  16.441
20108TIP3   OH227394   6.273   4.470  16.484
20108TIP3    H127395   6.303   4.555  16.524
20108TIP3    H227396   6.214   4.436  16.555
20109TIP3   OH227397   6.391   4.521  15.331
20109TIP3    H127398   6.437   4.438  15.303
20109TIP3    H227399   6.314   4.520  15.272
20110TIP3   OH227400   6.187   4.422  16.166
20110TIP3    H127401   6.192   4.509  16.208
20110TIP3    H227402   6.195   4.365  16.244
20111TIP3   OH227403   7.084   4.413  15.705
20111TIP3    H127404   7.059   4.451  15.619
20111TIP3    H227405   7.110   4.322  15.681
20112TIP3   OH227406   6.772   4.203  16.938
20112TIP3    H127407   6.801   4.138  16.872
20112TIP3    H227408   6.791   4.288  16.892
20113TIP3   OH227409   7.400   4.136  16.250
20113TIP3    H127410   7.330   4.145  16.184
20113TIP3    H227411   7.363   4.183  16.326
20114TIP3   OH227412   7.304   4.207  16.747
20114TIP3    H127413   7.239   4.246  16.809
20114TIP3    H227414   7.362   4.285  16.737
20115TIP3   OH227415   6.272   4.585  15.744
20115TIP3    H127416   6.220   4.516  15.791
20115TIP3    H227417   6.329   4.530  15.685
20116TIP3   OH227418   6.545   4.148  16.270
20116TIP3    H127419   6.639   4.152  16.242
20116TIP3    H227420   6.498   4.136  16.186
20117TIP3   OH227421   7.118   4.316  16.342
20117TIP3    H127422   7.188   4.354  16.401
20117TIP3    H227423   7.094   4.233  16.389
20118TIP3   OH227424   6.768   4.349  16.614
20118TIP3    H127425   6.672   4.366  16.612
20118TIP3    H227426   6.798   4.401  16.692
20119TIP3   OH227427   6.152   4.103  15.929
20119TIP3    H127428   6.217   4.093  15.858
20119TIP3    H227429   6.199   4.060  16.003
20120TIP3   OH227430   6.840   4.456  16.855
20120TIP3    H127431   6.906   4.446  16.926
20120TIP3    H227432   6.766   4.501  16.902
20121TIP3   OH227433   5.848   5.661  15.270
20121TIP3    H127434   5.805   5.683  15.354
20121TIP3    H227435   5.771   5.676  15.211
20122TIP3   OH227436   7.075   4.914  15.336
20122TIP3    H127437   7.003   4.940  15.277
20122TIP3    H227438   7.147   4.893  15.273
20123TIP3   OH227439   6.499   4.455  16.091
20123TIP3    H127440   6.406   4.430  16.110
20123TIP3    H227441   6.523   4.393  16.021
20124TIP3   OH227442   7.015   4.065  16.417
20124TIP3    H127443   7.062   3.996  16.364
20124TIP3    H227444   6.976   4.011  16.487
20125TIP3   OH227445   6.603   4.269  15.818
20125TIP3    H127446   6.682   4.326  15.815
20125TIP3    H227447   6.540   4.319  15.763
20126TIP3   OH227448   6.534   4.908  16.616
20126TIP3    H127449   6.608   4.858  16.658
20126TIP3    H227450   6.576   4.934  16.530
20127TIP3   OH227451   5.805   4.855  15.761
20127TIP3    H127452   5.754   4.909  15.827
20127TIP3    H227453   5.893   4.856  15.803
20128TIP3   OH227454   6.146   4.202  16.834
20128TIP3    H127455   6.234   4.215  16.874
20128TIP3    H227456   6.132   4.286  16.787
20129TIP3   OH227457   6.390   4.958  15.519
20129TIP3    H127458   6.429   4.904  15.449
20129TIP3    H227459   6.427   5.046  15.499
20130TIP3   OH227460   6.078   4.405  16.660
20130TIP3    H127461   6.015   4.384  16.588
20130TIP3    H227462   6.049   4.495  16.683
20131TIP3   OH227463   7.019   4.862  16.097
20131TIP3    H127464   6.968   4.848  16.179
20131TIP3    H227465   6.989   4.789  16.039
20132TIP3   OH227466   6.327   5.035  16.719
20132TIP3    H127467   6.360   5.124  16.692
20132TIP3    H227468   6.403   4.979  16.693
20133TIP3   OH227469   7.304   4.678  15.561
20133TIP3    H127470   7.319   4.635  15.475
20133TIP3    H227471   7.374   4.640  15.616
20134TIP3   OH227472   6.664   4.629  15.335
20134TIP3    H127473   6.696   4.600  15.422
20134TIP3    H227474   6.570   4.608  15.341
20135TIP3   OH227475   6.130   5.172  15.499
20135TIP3    H127476   6.200   5.164  15.566
20135TIP3    H227477   6.174   5.232  15.437
20136TIP3   OH227478   5.598   4.393  16.676
20136TIP3    H127479   5.666   4.384  16.747
20136TIP3    H227480   5.578   4.488  16.686
20137TIP3   OH227481   5.568   4.972  15.425
20137TIP3    H127482   5.657   4.990  15.462
20137TIP3    H227483   5.515   4.968  15.507
20138TIP3   OH227484   5.802   5.298  16.673
20138TIP3    H127485   5.800   5.210  16.633
20138TIP3    H227486   5.759   5.285  16.759
20139TIP3   OH227487   6.050   4.777  15.942
20139TIP3    H127488   6.140   4.745  15.961
20139TIP3    H227489   5.997   4.706  15.983
20140TIP3   OH227490   6.794   5.214  16.349
20140TIP3    H127491   6.779   5.309  16.369
20140TIP3    H227492   6.884   5.204  16.380
20141TIP3   OH227493   7.188   4.680  16.882
20141TIP3    H127494   7.144   4.742  16.820
20141TIP3    H227495   7.281   4.682  16.855
20142TIP3   OH227496   6.662   4.967  16.383
20142TIP3    H127497   6.704   5.056  16.371
20142TIP3    H227498   6.722   4.907  16.335
20143TIP3   OH227499   6.602   5.390  15.696
20143TIP3    H127500   6.536   5.453  15.733
20143TIP3    H227501   6.548   5.343  15.629
20144TIP3   OH227502   6.776   5.470  16.435
20144TIP3    H127503   6.873   5.476  16.419
20144TIP3    H227504   6.747   5.554  16.393
20145TIP3   OH227505   6.283   4.982  15.769
20145TIP3    H127506   6.316   4.961  15.679
20145TIP3    H227507   6.234   4.902  15.793
20146TIP3   OH227508   6.014   5.113  16.826
20146TIP3    H127509   5.980   5.061  16.751
20146TIP3    H227510   6.103   5.074  16.834
20147TIP3   OH227511   5.945   5.423  15.544
20147TIP3    H127512   6.037   5.389  15.543
20147TIP3    H227513   5.953   5.492  15.613
20148TIP3   OH227514   5.571   5.517  16.824
20148TIP3    H127515   5.529   5.587  16.877
20148TIP3    H227516   5.644   5.569  16.783
20149TIP3   OH227517   7.147   4.157  15.595
20149TIP3    H127518   7.223   4.215  15.578
20149TIP3    H227519   7.175   4.074  15.554
20150TIP3   OH227520   5.931   4.943  16.630
20150TIP3    H127521   5.945   4.861  16.576
20150TIP3    H227522   5.835   4.955  16.619
20151TIP3   OH227523   7.197   5.336  15.753
20151TIP3    H127524   7.131   5.266  15.741
20151TIP3    H227525   7.199   5.377  15.665
20152TIP3   OH227526   6.729   5.146  16.754
20152TIP3    H127527   6.662   5.104  16.698
20152TIP3    H227528   6.714   5.242  16.737
20153TIP3   OH227529   7.078   4.878  16.726
20153TIP3    H127530   7.145   4.921  16.669
20153TIP3    H227531   7.028   4.954  16.762
20154TIP3   OH227532   6.304   4.153  15.652
20154TIP3    H127533   6.211   4.160  15.623
20154TIP3    H227534   6.328   4.065  15.618
20155TIP3   OH227535   6.228   4.101  16.559
20155TIP3    H127536   6.185   4.148  16.632
20155TIP3    H227537   6.169   4.121  16.484
20156TIP3   OH227538   6.425   5.282  16.664
20156TIP3    H127539   6.491   5.352  16.648
20156TIP3    H227540   6.369   5.323  16.733
20157TIP3   OH227541   6.483   4.288  16.511
20157TIP3    H127542   6.412   4.355  16.502
20157TIP3    H227543   6.498   4.257  16.420
20158TIP3   OH227544   6.400   4.404  15.599
20158TIP3    H127545   6.392   4.419  15.503
20158TIP3    H227546   6.363   4.314  15.615
20159TIP3   OH227547   6.420   3.960  16.434
20159TIP3    H127548   6.459   4.027  16.374
20159TIP3    H227549   6.346   4.014  16.473
20160TIP3   OH227550   6.702   5.409  16.695
20160TIP3    H127551   6.677   5.495  16.735
20160TIP3    H227552   6.736   5.441  16.608
20161TIP3   OH227553   6.861   4.091  16.707
20161TIP3    H127554   6.860   4.173  16.653
20161TIP3    H227555   6.775   4.053  16.681
20162TIP3   OH227556   5.849   4.159  15.479
20162TIP3    H127557   5.940   4.181  15.507
20162TIP3    H227558   5.801   4.155  15.564
20163TIP3   OH227559   5.941   4.531  16.088
20163TIP3    H127560   6.015   4.468  16.082
20163TIP3    H227561   5.872   4.483  16.039
20164TIP3   OH227562   7.003   5.133  16.848
20164TIP3    H127563   6.921   5.157  16.801
20164TIP3    H227564   6.966   5.080  16.920
20165TIP3   OH227565   7.175   4.413  16.926
20165TIP3    H127566   7.158   4.508  16.908
20165TIP3    H227567   7.255   4.419  16.980
20166TIP3   OH227568   5.858   5.475  15.939
20166TIP3    H127569   5.849   5.550  16.003
20166TIP3    H227570   5.762   5.454  15.932
20167TIP3   OH227571   7.095   3.881  16.028
20167TIP3    H127572   7.109   3.866  16.124
20167TIP3    H227573   7.125   3.795  15.993
20168TIP3   OH227574   7.236   5.273  16.457
20168TIP3    H127575   7.318   5.308  16.419
20168TIP3    H227576   7.230   5.329  16.538
20169TIP3   OH227577   7.309   5.533  15.309
20169TIP3    H127578   7.246   5.512  15.236
20169TIP3    H227579   7.345   5.443  15.329
20170TIP3   OH227580   6.803   5.410  15.148
20170TIP3    H127581   6.713   5.436  15.172
20170TIP3    H227582   6.833   5.366  15.231
20171TIP3   OH227583   6.338   5.394  16.905
20171TIP3    H127584   6.395   5.337  16.961
20171TIP3    H227585   6.263   5.410  16.966
20172TIP3   OH227586   6.179   5.295  15.264
20172TIP3    H127587   6.213   5.205  15.241
20172TIP3    H227588   6.084   5.281  15.255
20173TIP3   OH227589   5.914   5.347  16.985
20173TIP3    H127590   5.955   5.277  16.930
20173TIP3    H227591   5.821   5.322  16.968
20174TIP3   OH227592   7.315   4.894  15.208
20174TIP3    H127593   7.371   4.817  15.191
20174TIP3    H227594   7.355   4.925  15.292
20175TIP3   OH227595   6.818   4.939  16.975
20175TIP3    H127596   6.758   4.925  16.901
20175TIP3    H227597   6.777   4.881  17.043
20176TIP3   OH227598   6.629   4.898  15.309
20176TIP3    H127599   6.672   4.957  15.375
20176TIP3    H227600   6.668   4.810  15.322
20177TIP3   OH227601   6.061   4.901  15.503
20177TIP3    H127602   5.980   4.957  15.504
20177TIP3    H227603   6.127   4.973  15.513
20178TIP3   OH227604   7.165   4.614  15.286
20178TIP3    H127605   7.186   4.526  15.253
20178TIP3    H227606   7.152   4.667  15.206
20179TIP3   OH227607   6.724   4.766  16.746
20179TIP3    H127608   6.797   4.717  16.702
20179TIP3    H227609   6.694   4.702  16.813
20180TIP3   OH227610   6.817   4.539  15.560
20180TIP3    H127611   6.891   4.603  15.566
20180TIP3    H227612   6.751   4.584  15.616
20181TIP3   OH227613   6.614   4.573  16.966
20181TIP3    H127614   6.580   4.575  17.057
20181TIP3    H227615   6.529   4.581  16.915
20182TIP3   OH227616   6.273   4.813  15.188
20182TIP3    H127617   6.224   4.764  15.257
20182TIP3    H227618   6.306   4.740  15.131
20183TIP3   OH227619   5.724   4.851   8.517
20183TIP3    H127620   5.779   4.880   8.592
20183TIP3    H227621   5.692   4.935   8.481
20184TIP3   OH227622   6.718   4.302  15.463
20184TIP3    H127623   6.730   4.238  15.535
20184TIP3    H227624   6.733   4.388  15.507
20185TIP3   OH227625   6.722   4.097  15.665
20185TIP3    H127626   6.673   4.142  15.738
20185TIP3    H227627   6.814   4.093  15.701
20186TIP3   OH227628   6.603   4.685  15.641
20186TIP3    H127629   6.517   4.709  15.678
20186TIP3    H227630   6.661   4.754  15.681
20187TIP3   OH227631   6.134   4.412  15.144
20187TIP3    H127632   6.137   4.320  15.108
20187TIP3    H227633   6.041   4.421  15.171
20188TIP3   OH227634   5.998   4.735  15.302
20188TIP3    H127635   6.021   4.793  15.379
20188TIP3    H227636   5.906   4.710  15.325
20189TIP3   OH227637   6.915   4.369  15.229
20189TIP3    H127638   6.988   4.315  15.265
20189TIP3    H227639   6.871   4.398  15.310
20190TIP3   OH227640   6.633   3.849  15.634
20190TIP3    H127641   6.662   3.943  15.641
20190TIP3    H227642   6.703   3.807  15.686
20191TIP3   OH227643   6.536   4.303  15.255
20191TIP3    H127644   6.574   4.249  15.182
20191TIP3    H227645   6.598   4.280  15.327
20192TIP3   OH227646   6.242   4.198  15.343
20192TIP3    H127647   6.334   4.206  15.315
20192TIP3    H227648   6.205   4.152  15.264
20193TIP3   OH227649   6.155   4.058  15.138
20193TIP3    H127650   6.121   3.967  15.147
20193TIP3    H227651   6.169   4.066  15.041
20194TIP3   OH227652   7.123   4.182  15.227
20194TIP3    H127653   7.140   4.098  15.277
20194TIP3    H227654   7.126   4.149  15.135
20195TIP3   OH227655   6.652   3.808  15.362
20195TIP3    H127656   6.574   3.751  15.352
20195TIP3    H227657   6.656   3.814  15.460
20196TIP3   OH227658   6.598   3.995  15.146
20196TIP3    H127659   6.625   3.944  15.224
20196TIP3    H227660   6.674   4.054  15.129
20197TIP3   OH227661   6.658   5.649  16.811
20197TIP3    H127662   6.570   5.688  16.798
20197TIP3    H227663   6.654   5.636  16.907
20198TIP3   OH227664   7.301   5.107  16.890
20198TIP3    H127665   7.204   5.111  16.881
20198TIP3    H227666   7.309   5.073  16.981
20199TIP3   OH227667   7.401   5.602  16.400
20199TIP3    H127668   7.484   5.554  16.421
20199TIP3    H227669   7.370   5.551  16.322
20200TIP3   OH227670   7.325   5.440  16.193
20200TIP3    H127671   7.374   5.364  16.155
20200TIP3    H227672   7.268   5.464  16.116
20201TIP3   OH227673   5.581   5.513  15.930
20201TIP3    H127674   5.552   5.522  15.839
20201TIP3    H227675   5.534   5.586  15.973
20202TIP3   OH227676   5.617   5.482  15.615
20202TIP3    H127677   5.662   5.409  15.662
20202TIP3    H227678   5.580   5.434  15.539
20203TIP3   OH227679   5.743   5.024  15.144
20203TIP3    H127680   5.832   5.033  15.110
20203TIP3    H227681   5.705   5.113  15.130
20204TIP3   OH227682   5.648   4.903  16.628
20204TIP3    H127683   5.563   4.950  16.613
20204TIP3    H227684   5.646   4.839  16.553
20205TIP3   OH227685   5.619   4.711  16.418
20205TIP3    H127686   5.698   4.676  16.371
20205TIP3    H227687   5.556   4.723  16.344
20206TIP3   OH227688   5.642   4.977  15.926
20206TIP3    H127689   5.576   4.913  15.960
20206TIP3    H227690   5.601   5.062  15.950
20207TIP3   OH227691   5.765   5.253  15.698
20207TIP3    H127692   5.838   5.296  15.649
20207TIP3    H227693   5.806   5.231  15.784
20208TIP3   OH227694   5.597   4.670  16.796
20208TIP3    H127695   5.662   4.690  16.865
20208TIP3    H227696   5.615   4.741  16.732
20209TIP3   OH227697   5.805   4.394  16.902
20209TIP3    H127698   5.737   4.440  16.954
20209TIP3    H227699   5.788   4.302  16.931
20210TIP3   OH227700   5.827   4.571  16.328
20210TIP3    H127701   5.842   4.481  16.363
20210TIP3    H227702   5.850   4.559  16.233
20211TIP3   OH227703   7.330   4.786  15.953
20211TIP3    H127704   7.337   4.745  16.041
20211TIP3    H227705   7.240   4.754  15.926
20212TIP3   OH227706   5.716   4.742  15.363
20212TIP3    H127707   5.674   4.653  15.363
20212TIP3    H227708   5.645   4.803  15.392
20213TIP3   OH227709   5.599   4.489  15.369
20213TIP3    H127710   5.688   4.466  15.333
20213TIP3    H227711   5.547   4.408  15.349
20214TIP3   OH227712   5.818   4.152  17.026
20214TIP3    H127713   5.760   4.106  16.961
20214TIP3    H227714   5.908   4.147  16.988
20215TIP3   OH227715   5.877   4.335  16.490
20215TIP3    H127716   5.851   4.245  16.460
20215TIP3    H227717   5.824   4.338  16.572
20216TIP3   OH227718   5.766   4.378  15.948
20216TIP3    H127719   5.668   4.385  15.941
20216TIP3    H227720   5.788   4.389  15.854
20217TIP3   OH227721   5.781   4.445  15.684
20217TIP3    H127722   5.857   4.470  15.630
20217TIP3    H227723   5.737   4.532  15.699
20218TIP3   OH227724   7.328   4.297  15.362
20218TIP3    H127725   7.248   4.266  15.315
20218TIP3    H227726   7.391   4.223  15.346
20219TIP3   OH227727   5.580   3.893  15.181
20219TIP3    H127728   5.543   3.822  15.236
20219TIP3    H227729   5.568   3.972  15.238
20220TIP3   OH227730   5.792   4.064  16.476
20220TIP3    H127731   5.756   4.011  16.402
20220TIP3    H227732   5.837   3.995  16.528
20221TIP3   OH227733   7.235   4.115  15.991
20221TIP3    H127734   7.196   4.025  15.999
20221TIP3    H227735   7.157   4.172  15.999
20222TIP3   OH227736   7.396   4.431  15.928
20222TIP3    H127737   7.342   4.419  16.008
20222TIP3    H227738   7.357   4.511  15.892
20223TIP3   OH227739   5.605   4.074  15.381
20223TIP3    H127740   5.685   4.112  15.340
20223TIP3    H227741   5.645   4.000  15.430
20224TIP3   OH227742   5.613   4.066  16.857
20224TIP3    H127743   5.570   4.004  16.918
20224TIP3    H227744   5.533   4.109  16.818
20225TIP3   OH227745   7.381   4.041  16.537
20225TIP3    H127746   7.473   4.059  16.516
20225TIP3    H227747   7.369   4.094  16.618
20226TIP3   OH227748   5.897   5.533  16.319
20226TIP3    H127749   5.828   5.520  16.387
20226TIP3    H227750   5.862   5.602  16.261
20227TIP3   OH227751   7.374   3.896  15.702
20227TIP3    H127752   7.445   3.844  15.659
20227TIP3    H227753   7.425   3.964  15.749
20228TIP3   OH227754   7.137   5.218  15.288
20228TIP3    H127755   7.204   5.252  15.350
20228TIP3    H227756   7.182   5.234  15.205
20229TIP3   OH227757   6.860   5.380  15.644
20229TIP3    H127758   6.867   5.471  15.678
20229TIP3    H227759   6.763   5.369  15.657
20230TIP3   OH227760   6.453   5.486  15.371
20230TIP3    H127761   6.430   5.477  15.276
20230TIP3    H227762   6.366   5.516  15.404
20231TIP3   OH227763   6.218   5.607  15.397
20231TIP3    H127764   6.168   5.604  15.481
20231TIP3    H227765   6.200   5.696  15.363
20232TIP3   OH227766   5.721   3.856  15.521
20232TIP3    H127767   5.794   3.895  15.570
20232TIP3    H227768   5.726   3.762  15.551
20233TIP3   OH227769   7.138   5.676  15.675
20233TIP3    H127770   7.210   5.709  15.733
20233TIP3    H227771   7.166   5.713  15.590
20234TIP3   OH227772   6.886   5.619  15.766
20234TIP3    H127773   6.979   5.638  15.742
20234TIP3    H227774   6.875   5.678  15.844
20235TIP3   OH227775   6.431   5.582  15.830
20235TIP3    H127776   6.483   5.622  15.900
20235TIP3    H227777   6.412   5.660  15.774
20236TIP3   OH227778   6.211   5.465  15.696
20236TIP3    H127779   6.277   5.508  15.754
20236TIP3    H227780   6.132   5.514  15.727
20237TIP3   OH227781   5.986   5.625  15.743
20237TIP3    H127782   5.965   5.715  15.775
20237TIP3    H227783   5.940   5.574  15.814
20238TIP3   OH227784   7.160   5.509  15.976
20238TIP3    H127785   7.179   5.444  15.904
20238TIP3    H227786   7.072   5.478  16.009
20239TIP3   OH227787   6.952   5.403  16.105
20239TIP3    H127788   6.966   5.309  16.080
20239TIP3    H227789   6.866   5.418  16.058
20240TIP3   OH227790   6.726   5.398  15.969
20240TIP3    H127791   6.691   5.308  15.982
20240TIP3    H227792   6.711   5.409  15.873
20241TIP3   OH227793   6.352   3.989  16.096
20241TIP3    H127794   6.432   3.964  16.048
20241TIP3    H227795   6.347   3.916  16.159
20242TIP3   OH227796   5.837   3.807  16.097
20242TIP3    H127797   5.772   3.865  16.142
20242TIP3    H227798   5.923   3.841  16.136
20243TIP3   OH227799   5.669   3.920  16.284
20243TIP3    H127800   5.606   3.865  16.335
20243TIP3    H227801   5.610   3.996  16.261
20244TIP3   OH227802   7.130   3.839  16.308
20244TIP3    H127803   7.212   3.819  16.356
20244TIP3    H227804   7.081   3.755  16.321
20245TIP3   OH227805   7.272   3.838  16.755
20245TIP3    H127806   7.204   3.892  16.802
20245TIP3    H227807   7.302   3.898  16.684
20246TIP3   OH227808   6.706   3.814  16.335
20246TIP3    H127809   6.619   3.839  16.369
20246TIP3    H227810   6.713   3.869  16.256
20247TIP3   OH227811   6.080   3.851  16.203
20247TIP3    H127812   6.120   3.875  16.287
20247TIP3    H227813   6.137   3.777  16.172
20248TIP3   OH227814   5.970   3.848  16.627
20248TIP3    H127815   6.052   3.896  16.642
20248TIP3    H227816   6.004   3.767  16.582
20249TIP3   OH227817   7.263   5.448  16.656
20249TIP3    H127818   7.353   5.448  16.694
20249TIP3    H227819   7.244   5.543  16.673
20250TIP3   OH227820   7.090   3.971  16.891
20250TIP3    H127821   7.003   3.932  16.908
20250TIP3    H227822   7.067   4.058  16.855
20251TIP3   OH227823   6.574   4.079  16.644
20251TIP3    H127824   6.533   4.014  16.584
20251TIP3    H227825   6.541   4.163  16.604
20252TIP3   OH227826   6.370   5.647  16.834
20252TIP3    H127827   6.282   5.663  16.873
20252TIP3    H227828   6.372   5.550  16.851
20253TIP3   OH227829   5.721   5.487  16.508
20253TIP3    H127830   5.750   5.415  16.570
20253TIP3    H227831   5.725   5.564  16.568
20254TIP3   OH227832   7.159   3.929  15.350
20254TIP3    H127833   7.199   3.840  15.350
20254TIP3    H227834   7.072   3.913  15.306
20255TIP3   OH227835   6.947   3.870  15.194
20255TIP3    H127836   6.858   3.844  15.224
20255TIP3    H227837   6.979   3.785  15.156
20256TIP3   OH227838   7.070   5.547  16.953
20256TIP3    H127839   7.141   5.597  16.908
20256TIP3    H227840   7.053   5.472  16.894
20257TIP3   OH227841   6.091   3.805  15.212
20257TIP3    H127842   6.129   3.745  15.144
20257TIP3    H227843   5.998   3.776  15.215
20258TIP3   OH227844   5.769   5.402  15.347
20258TIP3    H127845   5.827   5.404  15.427
20258TIP3    H227846   5.795   5.486  15.304
20259TIP3   OH227847   4.312   4.790  16.330
20259TIP3    H127848   4.329   4.887  16.334
20259TIP3    H227849   4.393   4.754  16.370
20260TIP3   OH227850   4.432   4.662  16.005
20260TIP3    H127851   4.433   4.622  15.915
20260TIP3    H227852   4.516   4.633  16.045
20261TIP3   OH227853   5.245   4.657  15.847
20261TIP3    H127854   5.248   4.582  15.785
20261TIP3    H227855   5.159   4.696  15.827
20262TIP3   OH227856   4.118   4.988  16.144
20262TIP3    H127857   4.145   4.919  16.082
20262TIP3    H227858   4.089   5.057  16.083
20263TIP3   OH227859   5.133   5.129  16.038
20263TIP3    H127860   5.162   5.036  16.052
20263TIP3    H227861   5.038   5.112  16.025
20264TIP3   OH227862   5.452   4.456  16.444
20264TIP3    H127863   5.494   4.540  16.420
20264TIP3    H227864   5.507   4.428  16.519
20265TIP3   OH227865   5.411   4.690  16.191
20265TIP3    H127866   5.375   4.599  16.174
20265TIP3    H227867   5.332   4.745  16.199
20266TIP3   OH227868   4.365   5.535  16.158
20266TIP3    H127869   4.302   5.476  16.205
20266TIP3    H227870   4.392   5.475  16.088
20267TIP3   OH227871   4.645   4.965  15.880
20267TIP3    H127872   4.618   4.947  15.972
20267TIP3    H227873   4.556   4.971  15.839
20268TIP3   OH227874   3.760   4.097  15.900
20268TIP3    H127875   3.755   4.146  15.815
20268TIP3    H227876   3.673   4.121  15.937
20269TIP3   OH227877   4.249   4.391  15.887
20269TIP3    H127878   4.234   4.300  15.858
20269TIP3    H227879   4.249   4.377  15.984
20270TIP3   OH227880   4.978   4.174  16.211
20270TIP3    H127881   4.961   4.254  16.265
20270TIP3    H227882   5.024   4.120  16.279
20271TIP3   OH227883   4.222   4.195  16.349
20271TIP3    H127884   4.172   4.170  16.267
20271TIP3    H227885   4.169   4.270  16.381
20272TIP3   OH227886   5.337   4.439  16.113
20272TIP3    H127887   5.281   4.394  16.048
20272TIP3    H227888   5.308   4.398  16.197
20273TIP3   OH227889   4.855   4.584  16.177
20273TIP3    H127890   4.769   4.543  16.155
20273TIP3    H227891   4.892   4.515  16.237
20274TIP3   OH227892   3.751   4.228  15.644
20274TIP3    H127893   3.780   4.312  15.686
20274TIP3    H227894   3.714   4.258  15.560
20275TIP3   OH227895   5.078   4.085  15.780
20275TIP3    H127896   5.115   4.136  15.854
20275TIP3    H227897   5.141   4.108  15.708
20276TIP3   OH227898   4.393   5.022  16.440
20276TIP3    H127899   4.410   5.025  16.536
20276TIP3    H227900   4.434   5.107  16.410
20277TIP3   OH227901   4.873   4.848  15.801
20277TIP3    H127902   4.932   4.918  15.764
20277TIP3    H227903   4.794   4.900  15.828
20278TIP3   OH227904   4.054   4.158  16.142
20278TIP3    H127905   4.039   4.082  16.084
20278TIP3    H227906   3.969   4.203  16.134
20279TIP3   OH227907   5.125   4.282  15.988
20279TIP3    H127908   5.062   4.350  15.956
20279TIP3    H227909   5.078   4.248  16.069
20280TIP3   OH227910   4.991   5.080  15.706
20280TIP3    H127911   5.005   5.165  15.748
20280TIP3    H227912   5.077   5.068  15.659
20281TIP3   OH227913   5.406   5.021  16.606
20281TIP3    H127914   5.399   5.075  16.688
20281TIP3    H227915   5.389   5.088  16.535
20282TIP3   OH227916   4.028   5.183  15.939
20282TIP3    H127917   4.119   5.210  15.911
20282TIP3    H227918   4.000   5.269  15.977
20283TIP3   OH227919   4.038   4.017  15.807
20283TIP3    H127920   4.117   4.041  15.860
20283TIP3    H227921   3.966   4.057  15.858
20284TIP3   OH227922   4.723   3.841  16.061
20284TIP3    H127923   4.751   3.748  16.057
20284TIP3    H227924   4.806   3.883  16.025
20285TIP3   OH227925   4.203   5.365  16.281
20285TIP3    H127926   4.170   5.285  16.327
20285TIP3    H227927   4.129   5.428  16.301
20286TIP3   OH227928   4.082   5.144  16.423
20286TIP3    H127929   4.111   5.083  16.493
20286TIP3    H227930   4.107   5.094  16.344
20287TIP3   OH227931   3.931   5.011  15.548
20287TIP3    H127932   3.923   4.937  15.613
20287TIP3    H227933   3.915   5.086  15.609
20288TIP3   OH227934   4.478   4.702  16.591
20288TIP3    H127935   4.542   4.776  16.608
20288TIP3    H227936   4.393   4.737  16.626
20289TIP3   OH227937   4.478   4.606  16.864
20289TIP3    H127938   4.422   4.629  16.787
20289TIP3    H227939   4.431   4.531  16.903
20290TIP3   OH227940   3.716   4.669  15.749
20290TIP3    H127941   3.788   4.734  15.763
20290TIP3    H227942   3.657   4.698  15.822
20291TIP3   OH227943   4.088   4.741  16.473
20291TIP3    H127944   4.165   4.756  16.414
20291TIP3    H227945   4.033   4.682  16.416
20292TIP3   OH227946   4.102   4.543  15.566
20292TIP3    H127947   4.132   4.629  15.532
20292TIP3    H227948   4.164   4.538  15.641
20293TIP3   OH227949   4.979   4.775  16.306
20293TIP3    H127950   4.988   4.740  16.397
20293TIP3    H227951   4.917   4.709  16.265
20294TIP3   OH227952   4.827   5.116  16.036
20294TIP3    H127953   4.807   5.091  16.127
20294TIP3    H227954   4.763   5.064  15.982
20295TIP3   OH227955   4.956   4.644  15.938
20295TIP3    H127956   4.923   4.648  16.031
20295TIP3    H227957   4.906   4.717  15.894
20296TIP3   OH227958   4.271   5.238  15.862
20296TIP3    H127959   4.334   5.294  15.814
20296TIP3    H227960   4.291   5.149  15.828
20297TIP3   OH227961   4.833   5.106  15.488
20297TIP3    H127962   4.900   5.159  15.440
20297TIP3    H227963   4.879   5.090  15.573
20298TIP3   OH227964   4.238   4.682  16.699
20298TIP3    H127965   4.179   4.704  16.623
20298TIP3    H227966   4.187   4.721  16.774
20299TIP3   OH227967   5.135   4.735  15.574
20299TIP3    H127968   5.125   4.801  15.504
20299TIP3    H227969   5.226   4.706  15.555
20300TIP3   OH227970   4.485   5.261  16.338
20300TIP3    H127971   4.441   5.326  16.282
20300TIP3    H227972   4.514   5.315  16.412
20301TIP3   OH227973   4.999   5.283  15.369
20301TIP3    H127974   5.000   5.332  15.455
20301TIP3    H227975   5.095   5.259  15.362
20302TIP3   OH227976   3.830   3.809  16.683
20302TIP3    H127977   3.929   3.813  16.679
20302TIP3    H227978   3.811   3.891  16.731
20303TIP3   OH227979   5.077   4.677  16.579
20303TIP3    H127980   5.124   4.758  16.608
20303TIP3    H227981   5.147   4.611  16.580
20304TIP3   OH227982   3.769   5.242  16.913
20304TIP3    H127983   3.732   5.332  16.912
20304TIP3    H227984   3.684   5.192  16.903
20305TIP3   OH227985   5.430   4.944  15.649
20305TIP3    H127986   5.489   4.931  15.725
20305TIP3    H227987   5.395   4.853  15.641
20306TIP3   OH227988   5.480   5.200  15.984
20306TIP3    H127989   5.387   5.175  15.994
20306TIP3    H227990   5.473   5.282  15.933
20307TIP3   OH227991   3.644   5.240  15.364
20307TIP3    H127992   3.665   5.146  15.353
20307TIP3    H227993   3.734   5.275  15.347
20308TIP3   OH227994   4.578   5.210  15.497
20308TIP3    H127995   4.559   5.290  15.446
20308TIP3    H227996   4.673   5.190  15.482
20309TIP3   OH227997   4.506   5.597  16.572
20309TIP3    H127998   4.511   5.620  16.667
20309TIP3    H227999   4.510   5.685  16.530
20310TIP3   OH228000   5.149   5.471  16.345
20310TIP3    H128001   5.127   5.439  16.254
20310TIP3    H228002   5.239   5.437  16.360
20311TIP3   OH228003   4.218   5.541  16.852
20311TIP3    H128004   4.167   5.462  16.878
20311TIP3    H228005   4.214   5.537  16.755
20312TIP3   OH228006   4.242   5.529  16.569
20312TIP3    H128007   4.338   5.546  16.560
20312TIP3    H228008   4.234   5.443  16.524
20313TIP3   OH228009   3.954   4.420  15.368
20313TIP3    H128010   4.011   4.469  15.432
20313TIP3    H228011   3.968   4.328  15.399
20314TIP3   OH228012   5.212   5.078  15.562
20314TIP3    H128013   5.193   5.034  15.476
20314TIP3    H228014   5.300   5.040  15.582
20315TIP3   OH228015   4.955   3.933  15.972
20315TIP3    H128016   5.047   3.919  16.003
20315TIP3    H228017   4.973   3.990  15.895
20316TIP3   OH228018   4.472   3.881  15.648
20316TIP3    H128019   4.434   3.839  15.567
20316TIP3    H228020   4.568   3.883  15.629
20317TIP3   OH228021   4.189   4.265  15.514
20317TIP3    H128022   4.248   4.225  15.446
20317TIP3    H228023   4.222   4.356  15.516
20318TIP3   OH228024   4.105   4.778  16.907
20318TIP3    H128025   4.095   4.778  17.004
20318TIP3    H228026   4.028   4.833  16.883
20319TIP3   OH228027   4.522   4.187  16.894
20319TIP3    H128028   4.571   4.180  16.810
20319TIP3    H228029   4.549   4.107  16.940
20320TIP3   OH228030   4.944   4.406  15.823
20320TIP3    H128031   5.031   4.399  15.779
20320TIP3    H228032   4.951   4.495  15.865
20321TIP3   OH228033   4.962   4.395  16.357
20321TIP3    H128034   5.060   4.390  16.368
20321TIP3    H228035   4.930   4.377  16.448
20322TIP3   OH228036   4.390   4.487  16.463
20322TIP3    H128037   4.424   4.567  16.510
20322TIP3    H228038   4.333   4.451  16.534
20323TIP3   OH228039   4.551   4.522  15.285
20323TIP3    H128040   4.586   4.432  15.263
20323TIP3    H228041   4.462   4.514  15.250
20324TIP3   OH228042   4.275   4.425  16.173
20324TIP3    H128043   4.303   4.510  16.211
20324TIP3    H228044   4.304   4.366  16.244
20325TIP3   OH228045   5.196   4.413  15.704
20325TIP3    H128046   5.166   4.452  15.620
20325TIP3    H228047   5.225   4.325  15.674
20326TIP3   OH228048   4.878   4.197  16.934
20326TIP3    H128049   4.906   4.132  16.867
20326TIP3    H228050   4.901   4.282  16.889
20327TIP3   OH228051   5.511   4.144  16.255
20327TIP3    H128052   5.440   4.154  16.191
20327TIP3    H228053   5.472   4.175  16.338
20328TIP3   OH228054   5.413   4.206  16.744
20328TIP3    H128055   5.352   4.242  16.812
20328TIP3    H228056   5.470   4.284  16.733
20329TIP3   OH228057   4.392   4.579  15.746
20329TIP3    H128058   4.336   4.511  15.789
20329TIP3    H228059   4.452   4.523  15.690
20330TIP3   OH228060   4.666   4.166  16.249
20330TIP3    H128061   4.760   4.165  16.228
20330TIP3    H228062   4.624   4.154  16.162
20331TIP3   OH228063   5.240   4.317  16.342
20331TIP3    H128064   5.309   4.354  16.401
20331TIP3    H228065   5.214   4.233  16.387
20332TIP3   OH228066   4.878   4.344  16.615
20332TIP3    H128067   4.783   4.362  16.606
20332TIP3    H228068   4.904   4.397  16.694
20333TIP3   OH228069   4.260   4.092  15.931
20333TIP3    H128070   4.334   4.084  15.868
20333TIP3    H228071   4.294   4.045  16.010
20334TIP3   OH228072   4.953   4.444  16.853
20334TIP3    H128073   5.021   4.438  16.922
20334TIP3    H228074   4.882   4.497  16.895
20335TIP3   OH228075   3.961   5.659  15.268
20335TIP3    H128076   3.929   5.711  15.345
20335TIP3    H228077   3.886   5.671  15.208
20336TIP3   OH228078   5.171   4.910  15.352
20336TIP3    H128079   5.112   4.945  15.282
20336TIP3    H228080   5.252   4.888  15.302
20337TIP3   OH228081   4.626   4.446  16.095
20337TIP3    H128082   4.530   4.429  16.099
20337TIP3    H228083   4.656   4.387  16.025
20338TIP3   OH228084   5.131   4.072  16.417
20338TIP3    H128085   5.171   3.995  16.370
20338TIP3    H228086   5.087   4.028  16.491
20339TIP3   OH228087   4.711   4.266  15.808
20339TIP3    H128088   4.787   4.328  15.814
20339TIP3    H228089   4.643   4.318  15.763
20340TIP3   OH228090   4.649   4.902  16.613
20340TIP3    H128091   4.725   4.857  16.656
20340TIP3    H228092   4.692   4.933  16.529
20341TIP3   OH228093   3.909   4.867  15.767
20341TIP3    H128094   3.863   4.921  15.836
20341TIP3    H228095   3.996   4.856  15.809
20342TIP3   OH228096   4.262   4.202  16.837
20342TIP3    H128097   4.349   4.216  16.880
20342TIP3    H228098   4.250   4.286  16.789
20343TIP3   OH228099   4.526   4.945  15.497
20343TIP3    H128100   4.572   4.921  15.415
20343TIP3    H228101   4.542   5.042  15.499
20344TIP3   OH228102   4.208   4.410  16.661
20344TIP3    H128103   4.138   4.385  16.597
20344TIP3    H228104   4.172   4.492  16.698
20345TIP3   OH228105   5.142   4.859  16.092
20345TIP3    H128106   5.087   4.845  16.172
20345TIP3    H228107   5.114   4.787  16.034
20346TIP3   OH228108   4.447   5.038  16.721
20346TIP3    H128109   4.485   5.126  16.696
20346TIP3    H228110   4.520   4.979  16.693
20347TIP3   OH228111   5.413   4.677  15.567
20347TIP3    H128112   5.437   4.627  15.487
20347TIP3    H228113   5.482   4.646  15.629
20348TIP3   OH228114   4.773   4.657  15.357
20348TIP3    H128115   4.800   4.616  15.441
20348TIP3    H228116   4.684   4.618  15.344
20349TIP3   OH228117   4.239   5.175  15.491
20349TIP3    H128118   4.307   5.202  15.553
20349TIP3    H228119   4.268   5.225  15.411
20350TIP3   OH228120   3.716   4.397  16.676
20350TIP3    H128121   3.779   4.389  16.750
20350TIP3    H228122   3.699   4.494  16.682
20351TIP3   OH228123   3.697   4.964  15.417
20351TIP3    H128124   3.782   4.997  15.455
20351TIP3    H228125   3.639   4.964  15.497
20352TIP3   OH228126   3.906   5.294  16.674
20352TIP3    H128127   3.908   5.208  16.631
20352TIP3    H228128   3.860   5.278  16.758
20353TIP3   OH228129   4.160   4.773  15.947
20353TIP3    H128130   4.252   4.747  15.966
20353TIP3    H228131   4.113   4.703  15.997
20354TIP3   OH228132   4.913   5.208  16.347
20354TIP3    H128133   4.899   5.302  16.369
20354TIP3    H228134   5.007   5.199  16.369
20355TIP3   OH228135   5.312   4.682  16.884
20355TIP3    H128136   5.274   4.751  16.826
20355TIP3    H228137   5.406   4.681  16.857
20356TIP3   OH228138   4.777   4.969  16.381
20356TIP3    H128139   4.819   5.058  16.371
20356TIP3    H228140   4.835   4.911  16.329
20357TIP3   OH228141   4.715   5.384  15.699
20357TIP3    H128142   4.648   5.452  15.721
20357TIP3    H228143   4.668   5.337  15.628
20358TIP3   OH228144   4.892   5.466  16.435
20358TIP3    H128145   4.988   5.475  16.415
20358TIP3    H228146   4.860   5.548  16.390
20359TIP3   OH228147   4.402   4.978  15.762
20359TIP3    H128148   4.439   4.959  15.672
20359TIP3    H228149   4.347   4.900  15.775
20360TIP3   OH228150   4.132   5.120  16.825
20360TIP3    H128151   4.092   5.066  16.754
20360TIP3    H228152   4.222   5.082  16.827
20361TIP3   OH228153   4.069   5.422  15.532
20361TIP3    H128154   4.161   5.391  15.539
20361TIP3    H228155   4.068   5.485  15.608
20362TIP3   OH228156   3.691   5.520  16.830
20362TIP3    H128157   3.645   5.590  16.878
20362TIP3    H228158   3.763   5.572  16.787
20363TIP3   OH228159   5.258   4.170  15.583
20363TIP3    H128160   5.342   4.217  15.570
20363TIP3    H228161   5.271   4.089  15.530
20364TIP3   OH228162   4.047   4.950  16.630
20364TIP3    H128163   4.062   4.867  16.578
20364TIP3    H228164   3.951   4.961  16.614
20365TIP3   OH228165   5.310   5.338  15.768
20365TIP3    H128166   5.247   5.265  15.764
20365TIP3    H228167   5.306   5.371  15.677
20366TIP3   OH228168   4.849   5.149  16.752
20366TIP3    H128169   4.785   5.102  16.698
20366TIP3    H228170   4.826   5.244  16.735
20367TIP3   OH228171   5.203   4.878  16.721
20367TIP3    H128172   5.271   4.924  16.666
20367TIP3    H228173   5.149   4.952  16.755
20368TIP3   OH228174   4.408   4.150  15.655
20368TIP3    H128175   4.316   4.157  15.626
20368TIP3    H228176   4.428   4.056  15.640
20369TIP3   OH228177   4.333   4.096  16.571
20369TIP3    H128178   4.293   4.145  16.645
20369TIP3    H228179   4.279   4.123  16.494
20370TIP3   OH228180   4.542   5.287  16.662
20370TIP3    H128181   4.608   5.358  16.654
20370TIP3    H228182   4.484   5.322  16.733
20371TIP3   OH228183   4.603   4.292  16.498
20371TIP3    H128184   4.535   4.359  16.480
20371TIP3    H228185   4.623   4.253  16.410
20372TIP3   OH228186   4.518   4.404  15.578
20372TIP3    H128187   4.553   4.427  15.490
20372TIP3    H228188   4.487   4.311  15.571
20373TIP3   OH228189   4.538   3.963  16.445
20373TIP3    H128190   4.569   4.029  16.380
20373TIP3    H228191   4.460   4.012  16.484
20374TIP3   OH228192   4.816   5.410  16.695
20374TIP3    H128193   4.794   5.496  16.736
20374TIP3    H228194   4.853   5.440  16.610
20375TIP3   OH228195   4.972   4.088  16.706
20375TIP3    H128196   4.957   4.176  16.667
20375TIP3    H228197   4.888   4.044  16.683
20376TIP3   OH228198   3.954   4.152  15.472
20376TIP3    H128199   4.045   4.174  15.501
20376TIP3    H228200   3.903   4.170  15.554
20377TIP3   OH228201   4.046   4.547  16.094
20377TIP3    H128202   4.121   4.485  16.100
20377TIP3    H228203   3.979   4.495  16.044
20378TIP3   OH228204   5.115   5.120  16.848
20378TIP3    H128205   5.037   5.156  16.801
20378TIP3    H228206   5.069   5.068  16.916
20379TIP3   OH228207   5.295   4.413  16.935
20379TIP3    H128208   5.275   4.507  16.917
20379TIP3    H228209   5.372   4.422  16.992
20380TIP3   OH228210   3.959   5.464  15.934
20380TIP3    H128211   3.953   5.533  16.004
20380TIP3    H228212   3.864   5.449  15.922
20381TIP3   OH228213   5.211   3.883  16.032
20381TIP3    H128214   5.219   3.865  16.128
20381TIP3    H228215   5.241   3.796  15.997
20382TIP3   OH228216   5.369   5.254  16.459
20382TIP3    H128217   5.440   5.303  16.415
20382TIP3    H228218   5.343   5.319  16.527
20383TIP3   OH228219   5.408   5.539  15.302
20383TIP3    H128220   5.336   5.528  15.237
20383TIP3    H228221   5.449   5.451  15.305
20384TIP3   OH228222   4.966   5.451  15.163
20384TIP3    H128223   4.876   5.425  15.137
20384TIP3    H228224   4.972   5.410  15.252
20385TIP3   OH228225   4.453   5.389  16.901
20385TIP3    H128226   4.513   5.332  16.955
20385TIP3    H228227   4.384   5.409  16.966
20386TIP3   OH228228   4.316   5.318  15.270
20386TIP3    H128229   4.339   5.230  15.232
20386TIP3    H228230   4.230   5.332  15.223
20387TIP3   OH228231   4.031   5.349  16.987
20387TIP3    H128232   4.065   5.274  16.933
20387TIP3    H228233   3.936   5.335  16.973
20388TIP3   OH228234   5.427   4.894  15.211
20388TIP3    H128235   5.446   4.800  15.226
20388TIP3    H228236   5.473   4.936  15.288
20389TIP3   OH228237   4.941   4.936  16.979
20389TIP3    H128238   4.877   4.926  16.907
20389TIP3    H228239   4.898   4.880  17.048
20390TIP3   OH228240   4.749   4.918  15.307
20390TIP3    H128241   4.779   4.980  15.377
20390TIP3    H228242   4.771   4.829  15.346
20391TIP3   OH228243   4.182   4.896  15.505
20391TIP3    H128244   4.096   4.944  15.510
20391TIP3    H228245   4.239   4.975  15.495
20392TIP3   OH228246   5.300   4.636  15.266
20392TIP3    H128247   5.205   4.642  15.261
20392TIP3    H228248   5.322   4.567  15.199
20393TIP3   OH228249   4.838   4.765  16.749
20393TIP3    H128250   4.913   4.717  16.708
20393TIP3    H228251   4.805   4.700  16.814
20394TIP3   OH228252   4.954   4.535  15.553
20394TIP3    H128253   5.012   4.613  15.547
20394TIP3    H228254   4.893   4.561  15.624
20395TIP3   OH228255   4.731   4.580  16.949
20395TIP3    H128256   4.702   4.584  17.042
20395TIP3    H228257   4.643   4.584  16.903
20396TIP3   OH228258   4.396   4.830  15.200
20396TIP3    H128259   4.349   4.770  15.261
20396TIP3    H228260   4.481   4.787  15.185
20397TIP3   OH228261   3.846   4.865   8.515
20397TIP3    H128262   3.896   4.892   8.594
20397TIP3    H228263   3.809   4.948   8.482
20398TIP3   OH228264   4.842   4.312  15.455
20398TIP3    H128265   4.845   4.245  15.527
20398TIP3    H228266   4.868   4.395  15.501
20399TIP3   OH228267   4.845   4.105  15.649
20399TIP3    H128268   4.798   4.154  15.721
20399TIP3    H228269   4.935   4.095  15.686
20400TIP3   OH228270   4.716   4.684  15.657
20400TIP3    H128271   4.635   4.729  15.684
20400TIP3    H228272   4.783   4.748  15.690
20401TIP3   OH228273   4.265   4.406  15.132
20401TIP3    H128274   4.235   4.324  15.175
20401TIP3    H228275   4.191   4.466  15.153
20402TIP3   OH228276   4.112   4.731  15.303
20402TIP3    H128277   4.141   4.782  15.382
20402TIP3    H228278   4.018   4.718  15.327
20403TIP3   OH228279   5.019   4.387  15.227
20403TIP3    H128280   5.099   4.345  15.264
20403TIP3    H228281   4.956   4.379  15.301
20404TIP3   OH228282   4.750   3.855  15.642
20404TIP3    H128283   4.784   3.947  15.641
20404TIP3    H228284   4.829   3.808  15.673
20405TIP3   OH228285   4.656   4.282  15.245
20405TIP3    H128286   4.713   4.257  15.170
20405TIP3    H228287   4.716   4.262  15.320
20406TIP3   OH228288   4.359   4.186  15.329
20406TIP3    H128289   4.453   4.171  15.313
20406TIP3    H228290   4.320   4.129  15.259
20407TIP3   OH228291   4.204   4.051  15.152
20407TIP3    H128292   4.224   3.955  15.163
20407TIP3    H228293   4.211   4.062  15.056
20408TIP3   OH228294   5.245   4.171  15.208
20408TIP3    H128295   5.252   4.093  15.266
20408TIP3    H228296   5.267   4.135  15.119
20409TIP3   OH228297   4.789   3.790  15.345
20409TIP3    H128298   4.731   3.711  15.339
20409TIP3    H228299   4.754   3.827  15.429
20410TIP3   OH228300   4.734   3.943  15.101
20410TIP3    H128301   4.745   3.901  15.188
20410TIP3    H228302   4.786   4.025  15.110
20411TIP3   OH228303   4.772   5.655  16.813
20411TIP3    H128304   4.683   5.691  16.800
20411TIP3    H228305   4.769   5.639  16.909
20412TIP3   OH228306   5.416   5.105  16.890
20412TIP3    H128307   5.319   5.106  16.878
20412TIP3    H228308   5.420   5.073  16.981
20413TIP3   OH228309   5.507   5.599  16.401
20413TIP3    H128310   5.588   5.551  16.430
20413TIP3    H228311   5.486   5.550  16.319
20414TIP3   OH228312   5.438   5.438  16.187
20414TIP3    H128313   5.492   5.376  16.135
20414TIP3    H228314   5.379   5.474  16.117
20415TIP3   OH228315   3.672   5.521  15.919
20415TIP3    H128316   3.655   5.540  15.825
20415TIP3    H228317   3.627   5.593  15.964
20416TIP3   OH228318   3.741   5.486  15.618
20416TIP3    H128319   3.772   5.408  15.669
20416TIP3    H228320   3.723   5.444  15.532
20417TIP3   OH228321   3.868   5.048  15.138
20417TIP3    H128322   3.962   5.068  15.118
20417TIP3    H228323   3.825   5.118  15.086
20418TIP3   OH228324   3.770   4.904  16.625
20418TIP3    H128325   3.682   4.947  16.614
20418TIP3    H228326   3.767   4.837  16.553
20419TIP3   OH228327   3.734   4.710  16.434
20419TIP3    H128328   3.809   4.670  16.382
20419TIP3    H228329   3.671   4.733  16.363
20420TIP3   OH228330   3.755   4.982  15.945
20420TIP3    H128331   3.683   4.920  15.967
20420TIP3    H228332   3.719   5.070  15.971
20421TIP3   OH228333   3.888   5.249  15.700
20421TIP3    H128334   3.958   5.289  15.645
20421TIP3    H228335   3.937   5.229  15.783
20422TIP3   OH228336   3.729   4.665  16.785
20422TIP3    H128337   3.784   4.686  16.862
20422TIP3    H228338   3.746   4.742  16.727
20423TIP3   OH228339   3.919   4.396  16.908
20423TIP3    H128340   3.843   4.437  16.955
20423TIP3    H228341   3.906   4.303  16.933
20424TIP3   OH228342   3.938   4.569  16.336
20424TIP3    H128343   3.959   4.479  16.366
20424TIP3    H228344   3.962   4.564  16.240
20425TIP3   OH228345   5.453   4.781  15.940
20425TIP3    H128346   5.451   4.748  16.032
20425TIP3    H228347   5.363   4.752  15.911
20426TIP3   OH228348   3.836   4.735  15.395
20426TIP3    H128349   3.769   4.666  15.381
20426TIP3    H228350   3.782   4.816  15.409
20427TIP3   OH228351   3.694   4.497  15.351
20427TIP3    H128352   3.791   4.480  15.349
20427TIP3    H228353   3.659   4.405  15.345
20428TIP3   OH228354   3.931   4.152  17.019
20428TIP3    H128355   3.880   4.102  16.953
20428TIP3    H228356   4.024   4.149  16.988
20429TIP3   OH228357   4.000   4.340  16.498
20429TIP3    H128358   3.966   4.254  16.465
20429TIP3    H228359   3.944   4.347  16.577
20430TIP3   OH228360   3.875   4.385  15.963
20430TIP3    H128361   3.776   4.389  15.960
20430TIP3    H228362   3.892   4.395  15.867
20431TIP3   OH228363   3.888   4.450  15.702
20431TIP3    H128364   3.968   4.471  15.648
20431TIP3    H228365   3.846   4.538  15.710
20432TIP3   OH228366   5.444   4.275  15.345
20432TIP3    H128367   5.363   4.249  15.298
20432TIP3    H228368   5.488   4.188  15.356
20433TIP3   OH228369   3.629   3.878  15.133
20433TIP3    H128370   3.577   3.826  15.196
20433TIP3    H228371   3.667   3.946  15.192
20434TIP3   OH228372   3.912   4.054  16.484
20434TIP3    H128373   3.873   4.007  16.408
20434TIP3    H228374   3.955   3.981  16.532
20435TIP3   OH228375   5.357   4.111  15.984
20435TIP3    H128376   5.312   4.024  15.998
20435TIP3    H228377   5.284   4.173  15.998
20436TIP3   OH228378   5.511   4.418  15.923
20436TIP3    H128379   5.465   4.397  16.007
20436TIP3    H228380   5.464   4.499  15.897
20437TIP3   OH228381   3.776   4.046  15.305
20437TIP3    H128382   3.848   4.096  15.350
20437TIP3    H228383   3.756   3.988  15.381
20438TIP3   OH228384   3.729   4.058  16.849
20438TIP3    H128385   3.685   4.000  16.913
20438TIP3    H228386   3.653   4.108  16.811
20439TIP3   OH228387   5.499   4.043  16.533
20439TIP3    H128388   5.593   4.058  16.516
20439TIP3    H228389   5.484   4.093  16.615
20440TIP3   OH228390   4.021   5.553  16.324
20440TIP3    H128391   3.951   5.528  16.388
20440TIP3    H228392   3.971   5.600  16.254
20441TIP3   OH228393   5.494   3.899  15.710
20441TIP3    H128394   5.564   3.858  15.655
20441TIP3    H228395   5.543   3.969  15.755
20442TIP3   OH228396   5.263   5.230  15.291
20442TIP3    H128397   5.338   5.256  15.347
20442TIP3    H228398   5.309   5.174  15.227
20443TIP3   OH228399   4.969   5.396  15.613
20443TIP3    H128400   4.978   5.475  15.671
20443TIP3    H228401   4.878   5.370  15.635
20444TIP3   OH228402   4.583   5.484  15.411
20444TIP3    H128403   4.580   5.462  15.316
20444TIP3    H228404   4.496   5.527  15.422
20445TIP3   OH228405   4.360   5.647  15.431
20445TIP3    H128406   4.284   5.624  15.488
20445TIP3    H228407   4.317   5.682  15.351
20446TIP3   OH228408   3.855   3.844  15.507
20446TIP3    H128409   3.930   3.886  15.552
20446TIP3    H228410   3.846   3.760  15.556
20447TIP3   OH228411   5.244   5.665  15.679
20447TIP3    H128412   5.315   5.729  15.704
20447TIP3    H228413   5.253   5.664  15.583
20448TIP3   OH228414   4.994   5.623  15.763
20448TIP3    H128415   5.089   5.638  15.743
20448TIP3    H228416   4.978   5.693  15.829
20449TIP3   OH228417   4.539   5.579  15.831
20449TIP3    H128418   4.603   5.621  15.889
20449TIP3    H228419   4.516   5.654  15.771
20450TIP3   OH228420   4.328   5.460  15.699
20450TIP3    H128421   4.393   5.499  15.761
20450TIP3    H228422   4.252   5.518  15.721
20451TIP3   OH228423   4.090   5.617  15.745
20451TIP3    H128424   4.070   5.707  15.777
20451TIP3    H228425   4.043   5.564  15.813
20452TIP3   OH228426   5.278   5.511  15.980
20452TIP3    H128427   5.302   5.452  15.904
20452TIP3    H228428   5.189   5.475  16.002
20453TIP3   OH228429   5.060   5.404  16.094
20453TIP3    H128430   5.071   5.309  16.074
20453TIP3    H228431   4.972   5.420  16.055
20454TIP3   OH228432   4.827   5.403  15.970
20454TIP3    H128433   4.801   5.311  15.988
20454TIP3    H228434   4.801   5.412  15.877
20455TIP3   OH228435   4.470   3.974  16.085
20455TIP3    H128436   4.555   3.956  16.042
20455TIP3    H228437   4.469   3.904  16.150
20456TIP3   OH228438   3.956   3.811  16.097
20456TIP3    H128439   3.892   3.865  16.149
20456TIP3    H228440   4.042   3.837  16.139
20457TIP3   OH228441   3.795   3.919  16.282
20457TIP3    H128442   3.731   3.862  16.332
20457TIP3    H228443   3.736   3.996  16.260
20458TIP3   OH228444   5.240   3.842  16.304
20458TIP3    H128445   5.321   3.828  16.357
20458TIP3    H228446   5.192   3.759  16.321
20459TIP3   OH228447   5.383   3.839  16.755
20459TIP3    H128448   5.320   3.897  16.802
20459TIP3    H228449   5.417   3.896  16.683
20460TIP3   OH228450   4.807   3.817  16.325
20460TIP3    H128451   4.722   3.830  16.370
20460TIP3    H228452   4.787   3.848  16.235
20461TIP3   OH228453   4.200   3.855  16.207
20461TIP3    H128454   4.246   3.876  16.288
20461TIP3    H228455   4.257   3.784  16.169
20462TIP3   OH228456   4.080   3.838  16.632
20462TIP3    H128457   4.158   3.894  16.639
20462TIP3    H228458   4.121   3.754  16.598
20463TIP3   OH228459   5.369   5.451  16.650
20463TIP3    H128460   5.458   5.444  16.690
20463TIP3    H228461   5.353   5.545  16.671
20464TIP3   OH228462   5.204   3.974  16.892
20464TIP3    H128463   5.119   3.931  16.911
20464TIP3    H228464   5.175   4.058  16.854
20465TIP3   OH228465   4.686   4.086  16.648
20465TIP3    H128466   4.639   4.025  16.588
20465TIP3    H228467   4.661   4.171  16.605
20466TIP3   OH228468   4.486   5.642  16.834
20466TIP3    H128469   4.400   5.659  16.876
20466TIP3    H228470   4.484   5.544  16.844
20467TIP3   OH228471   3.840   5.487  16.503
20467TIP3    H128472   3.858   5.417  16.571
20467TIP3    H228473   3.840   5.566  16.562
20468TIP3   OH228474   5.277   3.911  15.355
20468TIP3    H128475   5.334   3.832  15.352
20468TIP3    H228476   5.202   3.886  15.298
20469TIP3   OH228477   5.067   3.851  15.176
20469TIP3    H128478   4.992   3.876  15.233
20469TIP3    H228479   5.069   3.756  15.194
20470TIP3   OH228480   5.193   5.560  16.936
20470TIP3    H128481   5.261   5.595  16.876
20470TIP3    H228482   5.170   5.474  16.896
20471TIP3   OH228483   4.240   3.782  15.208
20471TIP3    H128484   4.263   3.721  15.135
20471TIP3    H228485   4.144   3.766  15.217
20472TIP3   OH228486   3.876   5.382  15.346
20472TIP3    H128487   3.947   5.391  15.414
20472TIP3    H228488   3.884   5.468  15.303
20473TIP3   OH228489   2.428   4.791  16.340
20473TIP3    H128490   2.455   4.885  16.343
20473TIP3    H228491   2.505   4.746  16.377
20474TIP3   OH228492   2.559   4.661  15.994
20474TIP3    H128493   2.573   4.617  15.907
20474TIP3    H228494   2.630   4.625  16.048
20475TIP3   OH228495   3.348   4.664  15.830
20475TIP3    H128496   3.342   4.588  15.769
20475TIP3    H228497   3.255   4.689  15.837
20476TIP3   OH228498   2.239   4.987  16.139
20476TIP3    H128499   2.261   4.912  16.082
20476TIP3    H228500   2.212   5.054  16.075
20477TIP3   OH228501   3.232   5.122  16.002
20477TIP3    H128502   3.270   5.036  16.030
20477TIP3    H228503   3.139   5.106  16.024
20478TIP3   OH228504   3.566   4.452  16.442
20478TIP3    H128505   3.601   4.540  16.421
20478TIP3    H228506   3.618   4.429  16.521
20479TIP3   OH228507   3.522   4.692  16.190
20479TIP3    H128508   3.489   4.600  16.175
20479TIP3    H228509   3.442   4.746  16.202
20480TIP3   OH228510   2.476   5.538  16.151
20480TIP3    H128511   2.415   5.475  16.196
20480TIP3    H228512   2.520   5.477  16.091
20481TIP3   OH228513   2.760   4.945  15.891
20481TIP3    H128514   2.721   4.924  15.976
20481TIP3    H228515   2.679   4.957  15.837
20482TIP3   OH228516   1.879   4.101  15.921
20482TIP3    H128517   1.868   4.153  15.839
20482TIP3    H228518   1.793   4.119  15.966
20483TIP3   OH228519   2.366   4.398  15.889
20483TIP3    H128520   2.355   4.305  15.864
20483TIP3    H228521   2.415   4.387  15.973
20484TIP3   OH228522   3.085   4.171  16.219
20484TIP3    H128523   3.073   4.256  16.266
20484TIP3    H228524   3.141   4.124  16.284
20485TIP3   OH228525   2.341   4.214  16.329
20485TIP3    H128526   2.283   4.172  16.261
20485TIP3    H228527   2.280   4.276  16.372
20486TIP3   OH228528   3.448   4.441  16.116
20486TIP3    H128529   3.389   4.393  16.054
20486TIP3    H228530   3.418   4.403  16.201
20487TIP3   OH228531   2.969   4.591  16.175
20487TIP3    H128532   2.883   4.551  16.149
20487TIP3    H228533   2.995   4.525  16.241
20488TIP3   OH228534   1.858   4.222  15.656
20488TIP3    H128535   1.892   4.307  15.693
20488TIP3    H228536   1.826   4.253  15.570
20489TIP3   OH228537   3.194   4.086  15.779
20489TIP3    H128538   3.231   4.136  15.855
20489TIP3    H228539   3.259   4.112  15.709
20490TIP3   OH228540   2.508   5.023  16.441
20490TIP3    H128541   2.526   5.032  16.537
20490TIP3    H228542   2.546   5.108  16.407
20491TIP3   OH228543   2.985   4.849  15.787
20491TIP3    H128544   3.041   4.921  15.751
20491TIP3    H228545   2.907   4.899  15.821
20492TIP3   OH228546   2.145   4.125  16.171
20492TIP3    H128547   2.142   4.083  16.085
20492TIP3    H228548   2.066   4.179  16.166
20493TIP3   OH228549   3.239   4.273  15.997
20493TIP3    H128550   3.179   4.340  15.956
20493TIP3    H228551   3.187   4.246  16.075
20494TIP3   OH228552   3.100   5.076  15.699
20494TIP3    H128553   3.120   5.149  15.758
20494TIP3    H228554   3.187   5.066  15.653
20495TIP3   OH228555   3.526   5.015  16.619
20495TIP3    H128556   3.511   5.070  16.698
20495TIP3    H228557   3.521   5.081  16.545
20496TIP3   OH228558   2.145   5.196  15.932
20496TIP3    H128559   2.238   5.217  15.910
20496TIP3    H228560   2.119   5.282  15.970
20497TIP3   OH228561   2.148   4.023  15.816
20497TIP3    H128562   2.225   4.050  15.870
20497TIP3    H228563   2.071   4.052  15.869
20498TIP3   OH228564   2.840   3.834  16.050
20498TIP3    H128565   2.866   3.741  16.059
20498TIP3    H228566   2.928   3.872  16.022
20499TIP3   OH228567   2.316   5.363  16.279
20499TIP3    H128568   2.282   5.285  16.327
20499TIP3    H228569   2.244   5.429  16.295
20500TIP3   OH228570   2.199   5.139  16.418
20500TIP3    H128571   2.219   5.071  16.484
20500TIP3    H228572   2.224   5.092  16.336
20501TIP3   OH228573   2.048   5.016  15.545
20501TIP3    H128574   2.023   4.941  15.605
20501TIP3    H228575   2.029   5.092  15.604
20502TIP3   OH228576   2.588   4.699  16.588
20502TIP3    H128577   2.653   4.772  16.605
20502TIP3    H228578   2.505   4.736  16.624
20503TIP3   OH228579   2.590   4.604  16.864
20503TIP3    H128580   2.538   4.626  16.784
20503TIP3    H228581   2.542   4.528  16.899
20504TIP3   OH228582   1.838   4.659  15.766
20504TIP3    H128583   1.901   4.734  15.756
20504TIP3    H228584   1.781   4.697  15.837
20505TIP3   OH228585   2.200   4.739  16.468
20505TIP3    H128586   2.278   4.755  16.410
20505TIP3    H228587   2.145   4.682  16.410
20506TIP3   OH228588   2.228   4.546  15.559
20506TIP3    H128589   2.238   4.628  15.505
20506TIP3    H228590   2.296   4.560  15.628
20507TIP3   OH228591   3.102   4.775  16.320
20507TIP3    H128592   3.105   4.732  16.408
20507TIP3    H228593   3.043   4.714  16.271
20508TIP3   OH228594   2.941   5.111  16.034
20508TIP3    H128595   2.920   5.092  16.127
20508TIP3    H228596   2.878   5.056  15.983
20509TIP3   OH228597   3.074   4.653  15.930
20509TIP3    H128598   3.042   4.654  16.024
20509TIP3    H228599   3.017   4.721  15.888
20510TIP3   OH228600   2.396   5.236  15.865
20510TIP3    H128601   2.453   5.291  15.809
20510TIP3    H228602   2.415   5.146  15.830
20511TIP3   OH228603   2.957   5.112  15.469
20511TIP3    H128604   3.023   5.167  15.422
20511TIP3    H228605   3.003   5.100  15.556
20512TIP3   OH228606   2.348   4.676  16.693
20512TIP3    H128607   2.288   4.702  16.620
20512TIP3    H228608   2.306   4.716  16.772
20513TIP3   OH228609   3.245   4.719  15.548
20513TIP3    H128610   3.232   4.768  15.466
20513TIP3    H228611   3.339   4.695  15.542
20514TIP3   OH228612   2.585   5.271  16.351
20514TIP3    H128613   2.540   5.328  16.288
20514TIP3    H228614   2.629   5.335  16.408
20515TIP3   OH228615   3.129   5.291  15.389
20515TIP3    H128616   3.141   5.321  15.481
20515TIP3    H228617   3.222   5.277  15.362
20516TIP3   OH228618   1.952   3.804  16.684
20516TIP3    H128619   2.050   3.816  16.680
20516TIP3    H228620   1.926   3.889  16.724
20517TIP3   OH228621   3.187   4.673  16.583
20517TIP3    H128622   3.234   4.756  16.612
20517TIP3    H228623   3.259   4.609  16.582
20518TIP3   OH228624   1.880   5.233  16.913
20518TIP3    H128625   1.859   5.328  16.904
20518TIP3    H228626   1.792   5.195  16.898
20519TIP3   OH228627   3.547   4.940  15.639
20519TIP3    H128628   3.589   4.927  15.726
20519TIP3    H228629   3.509   4.851  15.627
20520TIP3   OH228630   3.585   5.210  15.969
20520TIP3    H128631   3.502   5.160  15.960
20520TIP3    H228632   3.563   5.289  15.918
20521TIP3   OH228633   1.787   5.284  15.373
20521TIP3    H128634   1.801   5.191  15.349
20521TIP3    H228635   1.877   5.318  15.351
20522TIP3   OH228636   2.706   5.233  15.496
20522TIP3    H128637   2.682   5.303  15.432
20522TIP3    H228638   2.798   5.209  15.473
20523TIP3   OH228639   2.618   5.600  16.569
20523TIP3    H128640   2.612   5.625  16.663
20523TIP3    H228641   2.626   5.688  16.526
20524TIP3   OH228642   3.260   5.469  16.354
20524TIP3    H128643   3.236   5.439  16.263
20524TIP3    H228644   3.351   5.438  16.366
20525TIP3   OH228645   2.330   5.548  16.848
20525TIP3    H128646   2.284   5.468  16.880
20525TIP3    H228647   2.327   5.535  16.752
20526TIP3   OH228648   2.357   5.520  16.566
20526TIP3    H128649   2.454   5.537  16.557
20526TIP3    H228650   2.349   5.435  16.520
20527TIP3   OH228651   2.095   4.415  15.355
20527TIP3    H128652   2.140   4.457  15.432
20527TIP3    H228653   2.079   4.324  15.387
20528TIP3   OH228654   3.326   5.085  15.571
20528TIP3    H128655   3.312   5.046  15.482
20528TIP3    H228656   3.413   5.044  15.593
20529TIP3   OH228657   3.076   3.926  15.963
20529TIP3    H128658   3.168   3.920  15.997
20529TIP3    H228659   3.092   3.978  15.881
20530TIP3   OH228660   2.598   3.884  15.633
20530TIP3    H128661   2.565   3.833  15.556
20530TIP3    H228662   2.696   3.877  15.626
20531TIP3   OH228663   2.314   4.273  15.513
20531TIP3    H128664   2.379   4.238  15.447
20531TIP3    H228665   2.305   4.365  15.484
20532TIP3   OH228666   2.229   4.775  16.912
20532TIP3    H128667   2.209   4.779  17.006
20532TIP3    H228668   2.159   4.834  16.878
20533TIP3   OH228669   2.637   4.185  16.889
20533TIP3    H128670   2.688   4.188  16.806
20533TIP3    H228671   2.653   4.093  16.917
20534TIP3   OH228672   3.057   4.402  15.833
20534TIP3    H128673   3.134   4.405  15.774
20534TIP3    H228674   3.059   4.494  15.866
20535TIP3   OH228675   3.082   4.392  16.371
20535TIP3    H128676   3.180   4.389  16.372
20535TIP3    H228677   3.056   4.367  16.462
20536TIP3   OH228678   2.504   4.481  16.468
20536TIP3    H128679   2.538   4.564  16.509
20536TIP3    H228680   2.450   4.446  16.541
20537TIP3   OH228681   2.627   4.525  15.359
20537TIP3    H128682   2.661   4.438  15.329
20537TIP3    H228683   2.569   4.548  15.286
20538TIP3   OH228684   2.458   4.428  16.153
20538TIP3    H128685   2.439   4.508  16.204
20538TIP3    H228686   2.436   4.359  16.217
20539TIP3   OH228687   3.300   4.413  15.707
20539TIP3    H128688   3.272   4.447  15.621
20539TIP3    H228689   3.338   4.327  15.679
20540TIP3   OH228690   2.994   4.193  16.930
20540TIP3    H128691   3.020   4.127  16.862
20540TIP3    H228692   3.016   4.277  16.883
20541TIP3   OH228693   3.631   4.146  16.258
20541TIP3    H128694   3.557   4.154  16.197
20541TIP3    H228695   3.596   4.184  16.340
20542TIP3   OH228696   3.530   4.206  16.738
20542TIP3    H128697   3.466   4.242  16.802
20542TIP3    H228698   3.585   4.286  16.723
20543TIP3   OH228699   2.508   4.575  15.741
20543TIP3    H128700   2.447   4.515  15.789
20543TIP3    H228701   2.564   4.511  15.690
20544TIP3   OH228702   2.782   4.154  16.248
20544TIP3    H128703   2.877   4.154  16.230
20544TIP3    H228704   2.743   4.149  16.159
20545TIP3   OH228705   3.351   4.318  16.341
20545TIP3    H128706   3.421   4.357  16.399
20545TIP3    H228707   3.328   4.234  16.386
20546TIP3   OH228708   2.992   4.334  16.621
20546TIP3    H128709   2.899   4.358  16.604
20546TIP3    H228710   3.017   4.392  16.696
20547TIP3   OH228711   2.369   4.102  15.937
20547TIP3    H128712   2.434   4.100  15.864
20547TIP3    H228713   2.413   4.052  16.008
20548TIP3   OH228714   3.064   4.443  16.852
20548TIP3    H128715   3.129   4.436  16.924
20548TIP3    H228716   2.991   4.494  16.895
20549TIP3   OH228717   2.047   5.678  15.268
20549TIP3    H128718   2.020   5.751  15.326
20549TIP3    H228719   1.981   5.689  15.198
20550TIP3   OH228720   3.305   4.958  15.324
20550TIP3    H128721   3.227   4.960  15.264
20550TIP3    H228722   3.373   4.911  15.270
20551TIP3   OH228723   2.731   4.438  16.096
20551TIP3    H128724   2.635   4.425  16.116
20551TIP3    H228725   2.744   4.377  16.022
20552TIP3   OH228726   3.246   4.074  16.416
20552TIP3    H128727   3.285   3.999  16.365
20552TIP3    H228728   3.201   4.027  16.489
20553TIP3   OH228729   2.828   4.254  15.845
20553TIP3    H128730   2.903   4.317  15.848
20553TIP3    H228731   2.767   4.301  15.786
20554TIP3   OH228732   2.760   4.902  16.614
20554TIP3    H128733   2.835   4.855  16.658
20554TIP3    H228734   2.805   4.933  16.531
20555TIP3   OH228735   2.009   4.859  15.748
20555TIP3    H128736   1.969   4.916  15.820
20555TIP3    H228737   2.098   4.849  15.785
20556TIP3   OH228738   2.377   4.197  16.841
20556TIP3    H128739   2.466   4.215  16.878
20556TIP3    H228740   2.361   4.279  16.791
20557TIP3   OH228741   2.649   4.965  15.531
20557TIP3    H128742   2.659   4.934  15.440
20557TIP3    H228743   2.680   5.058  15.524
20558TIP3   OH228744   2.315   4.402  16.676
20558TIP3    H128745   2.251   4.384  16.604
20558TIP3    H228746   2.285   4.489  16.706
20559TIP3   OH228747   3.259   4.861  16.102
20559TIP3    H128748   3.206   4.851  16.185
20559TIP3    H228749   3.218   4.795  16.043
20560TIP3   OH228750   2.561   5.044  16.728
20560TIP3    H128751   2.602   5.130  16.702
20560TIP3    H228752   2.629   4.981  16.696
20561TIP3   OH228753   3.514   4.662  15.545
20561TIP3    H128754   3.566   4.615  15.478
20561TIP3    H228755   3.571   4.651  15.624
20562TIP3   OH228756   2.862   4.668  15.368
20562TIP3    H128757   2.907   4.593  15.409
20562TIP3    H228758   2.777   4.626  15.343
20563TIP3   OH228759   2.362   5.178  15.507
20563TIP3    H128760   2.434   5.208  15.563
20563TIP3    H228761   2.389   5.218  15.422
20564TIP3   OH228762   1.830   4.394  16.675
20564TIP3    H128763   1.893   4.386  16.750
20564TIP3    H228764   1.809   4.489  16.682
20565TIP3   OH228765   1.799   4.983  15.426
20565TIP3    H128766   1.892   5.003  15.452
20565TIP3    H228767   1.754   4.982  15.513
20566TIP3   OH228768   2.008   5.272  16.666
20566TIP3    H128769   2.033   5.188  16.628
20566TIP3    H228770   1.980   5.251  16.757
20567TIP3   OH228771   2.279   4.776  15.946
20567TIP3    H128772   2.367   4.739  15.964
20567TIP3    H228773   2.224   4.709  15.990
20568TIP3   OH228774   3.025   5.210  16.358
20568TIP3    H128775   3.011   5.306  16.377
20568TIP3    H228776   3.113   5.198  16.394
20569TIP3   OH228777   3.424   4.690  16.878
20569TIP3    H128778   3.380   4.753  16.817
20569TIP3    H228779   3.517   4.694  16.851
20570TIP3   OH228780   2.893   4.972  16.377
20570TIP3    H128781   2.939   5.059  16.374
20570TIP3    H228782   2.954   4.912  16.331
20571TIP3   OH228783   2.825   5.390  15.700
20571TIP3    H128784   2.763   5.454  15.741
20571TIP3    H228785   2.767   5.349  15.634
20572TIP3   OH228786   2.999   5.466  16.434
20572TIP3    H128787   3.095   5.477  16.417
20572TIP3    H228788   2.965   5.549  16.394
20573TIP3   OH228789   2.509   4.982  15.779
20573TIP3    H128790   2.537   4.956  15.689
20573TIP3    H228791   2.452   4.907  15.806
20574TIP3   OH228792   2.246   5.122  16.823
20574TIP3    H128793   2.211   5.069  16.749
20574TIP3    H228794   2.338   5.088  16.826
20575TIP3   OH228795   2.186   5.428  15.539
20575TIP3    H128796   2.275   5.390  15.549
20575TIP3    H228797   2.185   5.494  15.612
20576TIP3   OH228798   1.809   5.523  16.828
20576TIP3    H128799   1.760   5.591  16.878
20576TIP3    H228800   1.879   5.578  16.787
20577TIP3   OH228801   3.361   4.179  15.576
20577TIP3    H128802   3.443   4.205  15.533
20577TIP3    H228803   3.350   4.090  15.538
20578TIP3   OH228804   2.163   4.947  16.630
20578TIP3    H128805   2.178   4.863  16.580
20578TIP3    H228806   2.066   4.957  16.616
20579TIP3   OH228807   3.422   5.343  15.768
20579TIP3    H128808   3.351   5.277  15.762
20579TIP3    H228809   3.425   5.373  15.676
20580TIP3   OH228810   2.956   5.142  16.757
20580TIP3    H128811   2.890   5.098  16.701
20580TIP3    H228812   2.935   5.237  16.741
20581TIP3   OH228813   3.313   4.879  16.715
20581TIP3    H128814   3.380   4.926  16.659
20581TIP3    H228815   3.265   4.952  16.757
20582TIP3   OH228816   2.497   4.135  15.693
20582TIP3    H128817   2.423   4.159  15.635
20582TIP3    H228818   2.538   4.060  15.646
20583TIP3   OH228819   2.452   4.104  16.539
20583TIP3    H128820   2.410   4.151  16.612
20583TIP3    H228821   2.410   4.144  16.459
20584TIP3   OH228822   2.660   5.285  16.662
20584TIP3    H128823   2.728   5.353  16.647
20584TIP3    H228824   2.609   5.326  16.736
20585TIP3   OH228825   2.714   4.285  16.491
20585TIP3    H128826   2.649   4.356  16.475
20585TIP3    H228827   2.737   4.254  16.402
20586TIP3   OH228828   2.645   4.399  15.592
20586TIP3    H128829   2.648   4.459  15.514
20586TIP3    H228830   2.581   4.331  15.564
20587TIP3   OH228831   2.656   3.960  16.441
20587TIP3    H128832   2.690   4.023  16.372
20587TIP3    H228833   2.578   4.013  16.473
20588TIP3   OH228834   2.930   5.404  16.698
20588TIP3    H128835   2.906   5.491  16.737
20588TIP3    H228836   2.964   5.436  16.612
20589TIP3   OH228837   3.090   4.088  16.699
20589TIP3    H128838   3.077   4.176  16.657
20589TIP3    H228839   3.005   4.047  16.676
20590TIP3   OH228840   2.066   4.158  15.478
20590TIP3    H128841   2.159   4.178  15.500
20590TIP3    H228842   2.020   4.169  15.564
20591TIP3   OH228843   2.186   4.511  16.102
20591TIP3    H128844   2.252   4.463  16.048
20591TIP3    H228845   2.105   4.486  16.053
20592TIP3   OH228846   3.232   5.123  16.848
20592TIP3    H128847   3.151   5.154  16.804
20592TIP3    H228848   3.191   5.078  16.925
20593TIP3   OH228849   3.405   4.418  16.912
20593TIP3    H128850   3.389   4.514  16.900
20593TIP3    H228851   3.475   4.419  16.979
20594TIP3   OH228852   2.074   5.469  15.930
20594TIP3    H128853   2.064   5.532  16.005
20594TIP3    H228854   1.980   5.456  15.909
20595TIP3   OH228855   3.332   3.884  16.024
20595TIP3    H128856   3.338   3.869  16.121
20595TIP3    H228857   3.363   3.797  15.991
20596TIP3   OH228858   3.494   5.250  16.469
20596TIP3    H128859   3.553   5.307  16.416
20596TIP3    H228860   3.463   5.316  16.535
20597TIP3   OH228861   3.531   5.528  15.302
20597TIP3    H128862   3.462   5.514  15.234
20597TIP3    H228863   3.559   5.437  15.321
20598TIP3   OH228864   3.075   5.468  15.184
20598TIP3    H128865   2.989   5.428  15.162
20598TIP3    H228866   3.091   5.425  15.271
20599TIP3   OH228867   2.565   5.393  16.898
20599TIP3    H128868   2.627   5.339  16.951
20599TIP3    H228869   2.498   5.415  16.966
20600TIP3   OH228870   2.423   5.283  15.268
20600TIP3    H128871   2.451   5.199  15.228
20600TIP3    H228872   2.336   5.298  15.225
20601TIP3   OH228873   2.156   5.346  16.983
20601TIP3    H128874   2.186   5.271  16.926
20601TIP3    H228875   2.060   5.332  16.979
20602TIP3   OH228876   3.547   4.910  15.203
20602TIP3    H128877   3.570   4.816  15.209
20602TIP3    H228878   3.599   4.945  15.279
20603TIP3   OH228879   3.056   4.938  16.984
20603TIP3    H128880   2.992   4.928  16.912
20603TIP3    H228881   3.017   4.877  17.051
20604TIP3   OH228882   2.861   4.933  15.299
20604TIP3    H128883   2.890   4.990  15.375
20604TIP3    H228884   2.858   4.842  15.340
20605TIP3   OH228885   2.298   4.907  15.512
20605TIP3    H128886   2.214   4.958  15.517
20605TIP3    H228887   2.356   4.985  15.504
20606TIP3   OH228888   3.434   4.643  15.231
20606TIP3    H128889   3.424   4.597  15.315
20606TIP3    H228890   3.462   4.571  15.174
20607TIP3   OH228891   2.951   4.764  16.751
20607TIP3    H128892   3.025   4.716  16.709
20607TIP3    H228893   2.919   4.698  16.815
20608TIP3   OH228894   3.057   4.533  15.571
20608TIP3    H128895   3.106   4.617  15.560
20608TIP3    H228896   2.979   4.566  15.622
20609TIP3   OH228897   2.842   4.574  16.955
20609TIP3    H128898   2.811   4.577  17.047
20609TIP3    H228899   2.756   4.580  16.907
20610TIP3   OH228900   2.501   4.829  15.199
20610TIP3    H128901   2.430   4.803  15.261
20610TIP3    H228902   2.508   4.747  15.145
20611TIP3   OH228903   1.949   4.855   8.517
20611TIP3    H128904   1.994   4.865   8.602
20611TIP3    H228905   1.926   4.946   8.494
20612TIP3   OH228906   2.997   4.298  15.454
20612TIP3    H128907   2.984   4.222  15.516
20612TIP3    H228908   3.012   4.373  15.516
20613TIP3   OH228909   2.960   4.105  15.653
20613TIP3    H128910   2.916   4.151  15.728
20613TIP3    H228911   3.051   4.095  15.688
20614TIP3   OH228912   2.830   4.675  15.666
20614TIP3    H128913   2.744   4.719  15.666
20614TIP3    H228914   2.890   4.749  15.695
20615TIP3   OH228915   2.354   4.404  15.177
20615TIP3    H128916   2.328   4.311  15.168
20615TIP3    H228917   2.275   4.444  15.219
20616TIP3   OH228918   2.212   4.721  15.333
20616TIP3    H128919   2.230   4.802  15.385
20616TIP3    H228920   2.114   4.715  15.336
20617TIP3   OH228921   3.114   4.358  15.217
20617TIP3    H128922   3.210   4.352  15.230
20617TIP3    H228923   3.078   4.345  15.308
20618TIP3   OH228924   2.865   3.848  15.649
20618TIP3    H128925   2.898   3.941  15.646
20618TIP3    H228926   2.939   3.802  15.690
20619TIP3   OH228927   2.779   4.293  15.255
20619TIP3    H128928   2.836   4.289  15.176
20619TIP3    H228929   2.844   4.280  15.327
20620TIP3   OH228930   2.510   4.191  15.340
20620TIP3    H128931   2.597   4.213  15.301
20620TIP3    H228932   2.470   4.142  15.267
20621TIP3   OH228933   2.292   4.064  15.162
20621TIP3    H128934   2.307   3.970  15.185
20621TIP3    H228935   2.339   4.072  15.078
20622TIP3   OH228936   3.364   4.177  15.196
20622TIP3    H128937   3.326   4.115  15.259
20622TIP3    H228938   3.379   4.123  15.116
20623TIP3   OH228939   2.906   3.806  15.377
20623TIP3    H128940   2.840   3.737  15.357
20623TIP3    H228941   2.889   3.817  15.473
20624TIP3   OH228942   2.836   3.934  15.128
20624TIP3    H128943   2.841   3.879  15.208
20624TIP3    H228944   2.900   4.004  15.150
20625TIP3   OH228945   2.880   5.646  16.809
20625TIP3    H128946   2.795   5.691  16.800
20625TIP3    H228947   2.881   5.630  16.905
20626TIP3   OH228948   3.533   5.112  16.892
20626TIP3    H128949   3.436   5.116  16.880
20626TIP3    H228950   3.536   5.070  16.979
20627TIP3   OH228951   3.629   5.601  16.395
20627TIP3    H128952   3.709   5.548  16.420
20627TIP3    H228953   3.597   5.550  16.318
20628TIP3   OH228954   3.548   5.439  16.193
20628TIP3    H128955   3.603   5.373  16.147
20628TIP3    H228956   3.489   5.467  16.120
20629TIP3   OH228957   1.794   5.522  15.926
20629TIP3    H128958   1.773   5.527  15.832
20629TIP3    H228959   1.736   5.591  15.961
20630TIP3   OH228960   1.846   5.467  15.608
20630TIP3    H128961   1.879   5.396  15.668
20630TIP3    H228962   1.815   5.415  15.532
20631TIP3   OH228963   1.984   5.048  15.176
20631TIP3    H128964   2.063   5.048  15.117
20631TIP3    H228965   1.944   5.133  15.151
20632TIP3   OH228966   1.886   4.894  16.616
20632TIP3    H128967   1.802   4.943  16.600
20632TIP3    H228968   1.884   4.829  16.542
20633TIP3   OH228969   1.840   4.701  16.422
20633TIP3    H128970   1.918   4.660  16.376
20633TIP3    H228971   1.786   4.726  16.344
20634TIP3   OH228972   1.879   4.977  15.943
20634TIP3    H128973   1.807   4.913  15.959
20634TIP3    H228974   1.842   5.059  15.980
20635TIP3   OH228975   2.000   5.249  15.695
20635TIP3    H128976   2.061   5.312  15.651
20635TIP3    H228977   2.048   5.227  15.778
20636TIP3   OH228978   1.836   4.684  16.789
20636TIP3    H128979   1.887   4.720  16.864
20636TIP3    H228980   1.851   4.752  16.721
20637TIP3   OH228981   2.036   4.395  16.909
20637TIP3    H128982   1.960   4.435  16.955
20637TIP3    H228983   2.023   4.302  16.938
20638TIP3   OH228984   2.047   4.557  16.331
20638TIP3    H128985   2.066   4.470  16.369
20638TIP3    H228986   2.084   4.546  16.241
20639TIP3   OH228987   3.561   4.776  15.937
20639TIP3    H128988   3.560   4.745  16.031
20639TIP3    H228989   3.469   4.748  15.909
20640TIP3   OH228990   1.936   4.737  15.390
20640TIP3    H128991   1.886   4.661  15.353
20640TIP3    H228992   1.867   4.802  15.415
20641TIP3   OH228993   1.846   4.505  15.283
20641TIP3    H128994   1.939   4.486  15.307
20641TIP3    H228995   1.802   4.422  15.313
20642TIP3   OH228996   2.047   4.150  17.025
20642TIP3    H128997   1.991   4.103  16.958
20642TIP3    H228998   2.138   4.145  16.989
20643TIP3   OH228999   2.115   4.337  16.499
20643TIP3    H129000   2.083   4.250  16.469
20643TIP3    H229001   2.061   4.343  16.579
20644TIP3   OH229002   2.001   4.390  15.947
20644TIP3    H129003   1.902   4.396  15.946
20644TIP3    H229004   2.018   4.387  15.851
20645TIP3   OH229005   2.000   4.447  15.686
20645TIP3    H129006   2.085   4.476  15.648
20645TIP3    H229007   1.960   4.533  15.715
20646TIP3   OH229008   3.588   4.247  15.343
20646TIP3    H129009   3.512   4.223  15.286
20646TIP3    H229010   3.660   4.192  15.304
20647TIP3   OH229011   2.017   4.074  16.486
20647TIP3    H129012   1.988   4.019  16.409
20647TIP3    H229013   2.071   4.008  16.532
20648TIP3   OH229014   3.474   4.115  15.987
20648TIP3    H129015   3.435   4.026  15.998
20648TIP3    H229016   3.394   4.171  15.995
20649TIP3   OH229017   3.619   4.418  15.921
20649TIP3    H129018   3.572   4.385  15.999
20649TIP3    H229019   3.572   4.501  15.908
20650TIP3   OH229020   1.891   4.049  15.315
20650TIP3    H129021   1.963   4.091  15.370
20650TIP3    H229022   1.862   3.983  15.379
20651TIP3   OH229023   1.844   4.066  16.852
20651TIP3    H129024   1.796   4.011  16.916
20651TIP3    H229025   1.770   4.120  16.817
20652TIP3   OH229026   3.614   4.041  16.533
20652TIP3    H129027   3.711   4.034  16.530
20652TIP3    H229028   3.600   4.092  16.615
20653TIP3   OH229029   2.138   5.548  16.327
20653TIP3    H129030   2.062   5.530  16.386
20653TIP3    H229031   2.100   5.603  16.256
20654TIP3   OH229032   3.617   3.905  15.710
20654TIP3    H129033   3.690   3.864  15.662
20654TIP3    H229034   3.659   3.971  15.768
20655TIP3   OH229035   3.377   5.239  15.291
20655TIP3    H129036   3.467   5.252  15.327
20655TIP3    H229037   3.371   5.142  15.289
20656TIP3   OH229038   3.090   5.378  15.639
20656TIP3    H129039   3.086   5.467  15.683
20656TIP3    H229040   2.996   5.354  15.643
20657TIP3   OH229041   2.679   5.502  15.385
20657TIP3    H129042   2.672   5.483  15.289
20657TIP3    H229043   2.587   5.529  15.406
20658TIP3   OH229044   2.448   5.633  15.442
20658TIP3    H129045   2.369   5.629  15.498
20658TIP3    H229046   2.412   5.663  15.357
20659TIP3   OH229047   1.929   3.849  15.521
20659TIP3    H129048   2.006   3.887  15.565
20659TIP3    H229049   1.916   3.764  15.570
20660TIP3   OH229050   3.351   5.675  15.678
20660TIP3    H129051   3.421   5.729  15.720
20660TIP3    H229052   3.381   5.665  15.587
20661TIP3   OH229053   3.104   5.615  15.762
20661TIP3    H129054   3.197   5.630  15.731
20661TIP3    H229055   3.104   5.668  15.843
20662TIP3   OH229056   2.658   5.580  15.839
20662TIP3    H129057   2.733   5.622  15.886
20662TIP3    H229058   2.628   5.655  15.784
20663TIP3   OH229059   2.439   5.459  15.699
20663TIP3    H129060   2.504   5.503  15.758
20663TIP3    H229061   2.361   5.514  15.721
20664TIP3   OH229062   2.194   5.608  15.736
20664TIP3    H129063   2.173   5.700  15.763
20664TIP3    H229064   2.152   5.561  15.812
20665TIP3   OH229065   3.382   5.514  15.984
20665TIP3    H129066   3.409   5.458  15.908
20665TIP3    H229067   3.298   5.472  16.011
20666TIP3   OH229068   3.168   5.401  16.103
20666TIP3    H129069   3.174   5.306  16.080
20666TIP3    H229070   3.082   5.422  16.059
20667TIP3   OH229071   2.944   5.405  15.965
20667TIP3    H129072   2.913   5.314  15.984
20667TIP3    H229073   2.939   5.406  15.868
20668TIP3   OH229074   2.570   3.993  16.095
20668TIP3    H129075   2.648   3.985  16.040
20668TIP3    H229076   2.587   3.922  16.159
20669TIP3   OH229077   2.068   3.808  16.102
20669TIP3    H129078   2.009   3.867  16.154
20669TIP3    H229079   2.158   3.829  16.138
20670TIP3   OH229080   1.908   3.921  16.286
20670TIP3    H129081   1.841   3.866  16.333
20670TIP3    H229082   1.852   3.998  16.261
20671TIP3   OH229083   3.357   3.844  16.292
20671TIP3    H129084   3.439   3.836  16.344
20671TIP3    H229085   3.312   3.760  16.316
20672TIP3   OH229086   3.492   3.841  16.755
20672TIP3    H129087   3.434   3.903  16.804
20672TIP3    H229088   3.535   3.896  16.687
20673TIP3   OH229089   2.936   3.813  16.322
20673TIP3    H129090   2.848   3.829  16.359
20673TIP3    H229091   2.935   3.862  16.239
20674TIP3   OH229092   2.309   3.849  16.207
20674TIP3    H129093   2.353   3.881  16.287
20674TIP3    H229094   2.369   3.777  16.177
20675TIP3   OH229095   2.202   3.848  16.628
20675TIP3    H129096   2.285   3.894  16.640
20675TIP3    H229097   2.234   3.765  16.586
20676TIP3   OH229098   3.486   5.455  16.654
20676TIP3    H129099   3.576   5.453  16.692
20676TIP3    H229100   3.466   5.548  16.678
20677TIP3   OH229101   3.314   3.977  16.894
20677TIP3    H129102   3.230   3.930  16.894
20677TIP3    H229103   3.288   4.065  16.865
20678TIP3   OH229104   2.800   4.086  16.645
20678TIP3    H129105   2.759   4.021  16.586
20678TIP3    H229106   2.771   4.169  16.598
20679TIP3   OH229107   2.596   5.651  16.832
20679TIP3    H129108   2.507   5.665  16.871
20679TIP3    H229109   2.600   5.554  16.847
20680TIP3   OH229110   1.952   5.481  16.509
20680TIP3    H129111   1.970   5.404  16.570
20680TIP3    H229112   1.956   5.554  16.575
20681TIP3   OH229113   3.385   3.928  15.363
20681TIP3    H129114   3.437   3.847  15.371
20681TIP3    H229115   3.308   3.899  15.309
20682TIP3   OH229116   3.168   3.823  15.206
20682TIP3    H129117   3.087   3.825  15.259
20682TIP3    H229118   3.157   3.736  15.163
20683TIP3   OH229119   3.295   5.552  16.949
20683TIP3    H129120   3.368   5.595  16.902
20683TIP3    H229121   3.278   5.471  16.897
20684TIP3   OH229122   2.337   3.779  15.192
20684TIP3    H129123   2.369   3.688  15.203
20684TIP3    H229124   2.243   3.768  15.218
20685TIP3   OH229125   2.015   5.408  15.336
20685TIP3    H129126   2.065   5.409  15.421
20685TIP3    H229127   2.018   5.503  15.312
20686TIP3   OH229128   0.541   4.795  16.346
20686TIP3    H129129   0.554   4.893  16.347
20686TIP3    H229130   0.620   4.765  16.395
20687TIP3   OH229131   0.698   4.658  16.004
20687TIP3    H129132   0.681   4.623  15.915
20687TIP3    H229133   0.764   4.598  16.042
20688TIP3   OH229134   1.464   4.666  15.841
20688TIP3    H129135   1.460   4.590  15.780
20688TIP3    H229136   1.375   4.703  15.831
20689TIP3   OH229137   0.318   5.017  16.138
20689TIP3    H129138   0.311   4.943  16.076
20689TIP3    H229139   0.315   5.095  16.079
20690TIP3   OH229140   1.335   5.111  15.985
20690TIP3    H129141   1.376   5.031  16.023
20690TIP3    H229142   1.244   5.100  16.019
20691TIP3   OH229143   1.687   4.444  16.428
20691TIP3    H129144   1.711   4.537  16.417
20691TIP3    H229145   1.754   4.414  16.492
20692TIP3   OH229146   1.635   4.704  16.200
20692TIP3    H129147   1.599   4.614  16.186
20692TIP3    H229148   1.556   4.760  16.198
20693TIP3   OH229149   0.590   5.547  16.136
20693TIP3    H129150   0.528   5.486  16.185
20693TIP3    H229151   0.638   5.481  16.084
20694TIP3   OH229152   0.874   4.980  15.915
20694TIP3    H129153   0.850   4.929  15.995
20694TIP3    H229154   0.785   4.988  15.876
20695TIP3   OH229155  -0.007   4.148  15.860
20695TIP3    H129156  -0.025   4.243  15.852
20695TIP3    H229157  -0.096   4.121  15.891
20696TIP3   OH229158   0.526   4.399  15.896
20696TIP3    H129159   0.496   4.309  15.877
20696TIP3    H229160   0.536   4.397  15.993
20697TIP3   OH229161   1.203   4.174  16.214
20697TIP3    H129162   1.193   4.255  16.269
20697TIP3    H229163   1.254   4.118  16.277
20698TIP3   OH229164   0.437   4.232  16.322
20698TIP3    H129165   0.386   4.181  16.255
20698TIP3    H229166   0.367   4.283  16.365
20699TIP3   OH229167   1.569   4.447  16.125
20699TIP3    H129168   1.511   4.400  16.063
20699TIP3    H229169   1.537   4.409  16.210
20700TIP3   OH229170   1.082   4.590  16.176
20700TIP3    H129171   0.996   4.550  16.151
20700TIP3    H229172   1.111   4.525  16.244
20701TIP3   OH229173   1.291   4.098  15.800
20701TIP3    H129174   1.336   4.145  15.873
20701TIP3    H229175   1.353   4.118  15.727
20702TIP3   OH229176   0.615   5.034  16.433
20702TIP3    H129177   0.634   5.039  16.529
20702TIP3    H229178   0.647   5.122  16.402
20703TIP3   OH229179   1.101   4.864  15.824
20703TIP3    H129180   1.152   4.936  15.782
20703TIP3    H229181   1.022   4.913  15.858
20704TIP3   OH229182   0.264   4.164  16.125
20704TIP3    H129183   0.307   4.115  16.052
20704TIP3    H229184   0.206   4.224  16.075
20705TIP3   OH229185   1.359   4.282  15.993
20705TIP3    H129186   1.299   4.345  15.948
20705TIP3    H229187   1.307   4.255  16.072
20706TIP3   OH229188   1.217   5.080  15.696
20706TIP3    H129189   1.249   5.142  15.763
20706TIP3    H229190   1.302   5.056  15.652
20707TIP3   OH229191   1.644   5.011  16.607
20707TIP3    H129192   1.645   5.055  16.694
20707TIP3    H229193   1.631   5.087  16.546
20708TIP3   OH229194   0.288   5.213  15.963
20708TIP3    H129195   0.383   5.223  15.944
20708TIP3    H229196   0.260   5.306  15.966
20709TIP3   OH229197   0.203   3.985  15.780
20709TIP3    H129198   0.268   4.005  15.849
20709TIP3    H229199   0.134   4.053  15.799
20710TIP3   OH229200   0.950   3.845  16.042
20710TIP3    H129201   0.981   3.753  16.049
20710TIP3    H229202   1.034   3.889  16.012
20711TIP3   OH229203   0.443   5.383  16.280
20711TIP3    H129204   0.411   5.296  16.311
20711TIP3    H229205   0.371   5.442  16.313
20712TIP3   OH229206   0.308   5.147  16.419
20712TIP3    H129207   0.335   5.071  16.474
20712TIP3    H229208   0.279   5.103  16.337
20713TIP3   OH229209   0.176   5.008  15.537
20713TIP3    H129210   0.191   4.943  15.609
20713TIP3    H229211   0.134   5.082  15.586
20714TIP3   OH229212   0.709   4.711  16.588
20714TIP3    H129213   0.778   4.777  16.612
20714TIP3    H229214   0.633   4.744  16.640
20715TIP3   OH229215   0.715   4.603  16.871
20715TIP3    H129216   0.643   4.633  16.812
20715TIP3    H229217   0.671   4.533  16.921
20716TIP3   OH229218  -0.008   4.646  15.802
20716TIP3    H129219   0.060   4.716  15.792
20716TIP3    H229220  -0.072   4.695  15.859
20717TIP3   OH229221   0.351   4.691  16.498
20717TIP3    H129222   0.418   4.734  16.439
20717TIP3    H229223   0.290   4.652  16.430
20718TIP3   OH229224   0.387   4.518  15.574
20718TIP3    H129225   0.395   4.591  15.509
20718TIP3    H229226   0.443   4.556  15.645
20719TIP3   OH229227   1.225   4.771  16.314
20719TIP3    H129228   1.229   4.731  16.403
20719TIP3    H229229   1.163   4.711  16.267
20720TIP3   OH229230   1.059   5.119  16.039
20720TIP3    H129231   1.035   5.107  16.131
20720TIP3    H229232   0.987   5.072  15.990
20721TIP3   OH229233   1.185   4.640  15.929
20721TIP3    H129234   1.152   4.637  16.022
20721TIP3    H229235   1.137   4.718  15.892
20722TIP3   OH229236   0.534   5.222  15.869
20722TIP3    H129237   0.574   5.275  15.799
20722TIP3    H229238   0.542   5.132  15.833
20723TIP3   OH229239   1.053   5.109  15.473
20723TIP3    H129240   1.130   5.160  15.438
20723TIP3    H229241   1.087   5.095  15.564
20724TIP3   OH229242   0.485   4.671  16.728
20724TIP3    H129243   0.432   4.672  16.646
20724TIP3    H229244   0.428   4.723  16.791
20725TIP3   OH229245   1.358   4.693  15.554
20725TIP3    H129246   1.339   4.782  15.521
20725TIP3    H229247   1.452   4.685  15.530
20726TIP3   OH229248   0.710   5.275  16.348
20726TIP3    H129249   0.648   5.334  16.303
20726TIP3    H229250   0.759   5.334  16.406
20727TIP3   OH229251   1.255   5.266  15.406
20727TIP3    H129252   1.259   5.316  15.491
20727TIP3    H229253   1.350   5.250  15.387
20728TIP3   OH229254   0.102   3.766  16.698
20728TIP3    H129255   0.191   3.801  16.677
20728TIP3    H229256   0.098   3.777  16.795
20729TIP3   OH229257   1.305   4.669  16.569
20729TIP3    H129258   1.353   4.752  16.592
20729TIP3    H229259   1.374   4.602  16.578
20730TIP3   OH229260   0.000   5.282  16.895
20730TIP3    H129261  -0.044   5.343  16.955
20730TIP3    H229262  -0.065   5.207  16.893
20731TIP3   OH229263   1.676   4.943  15.657
20731TIP3    H129264   1.726   4.940  15.740
20731TIP3    H229265   1.632   4.856  15.659
20732TIP3   OH229266   1.698   5.204  15.978
20732TIP3    H129267   1.604   5.183  15.973
20732TIP3    H229268   1.704   5.285  15.926
20733TIP3   OH229269   0.825   5.242  15.503
20733TIP3    H129270   0.822   5.329  15.458
20733TIP3    H229271   0.915   5.207  15.484
20734TIP3   OH229272   0.746   5.604  16.561
20734TIP3    H129273   0.745   5.633  16.655
20734TIP3    H229274   0.746   5.692  16.516
20735TIP3   OH229275   1.374   5.479  16.347
20735TIP3    H129276   1.357   5.444  16.257
20735TIP3    H229277   1.464   5.447  16.368
20736TIP3   OH229278   0.451   5.553  16.851
20736TIP3    H129279   0.396   5.478  16.882
20736TIP3    H229280   0.444   5.543  16.754
20737TIP3   OH229281   0.489   5.516  16.568
20737TIP3    H129282   0.584   5.532  16.548
20737TIP3    H229283   0.465   5.442  16.510
20738TIP3   OH229284   0.167   4.432  15.366
20738TIP3    H129285   0.232   4.445  15.438
20738TIP3    H229286   0.124   4.350  15.395
20739TIP3   OH229287   1.448   5.049  15.572
20739TIP3    H129288   1.446   5.025  15.477
20739TIP3    H229289   1.540   5.026  15.596
20740TIP3   OH229290   1.186   3.931  15.967
20740TIP3    H129291   1.277   3.922  16.001
20740TIP3    H229292   1.204   3.987  15.888
20741TIP3   OH229293   0.692   3.881  15.632
20741TIP3    H129294   0.658   3.850  15.545
20741TIP3    H229295   0.790   3.872  15.626
20742TIP3   OH229296   0.391   4.246  15.547
20742TIP3    H129297   0.446   4.225  15.468
20742TIP3    H229298   0.397   4.343  15.549
20743TIP3   OH229299   0.333   4.783  16.909
20743TIP3    H129300   0.296   4.743  16.988
20743TIP3    H229301   0.258   4.837  16.879
20744TIP3   OH229302   0.759   4.187  16.875
20744TIP3    H129303   0.803   4.186  16.788
20744TIP3    H229304   0.767   4.094  16.899
20745TIP3   OH229305   1.178   4.400  15.816
20745TIP3    H129306   1.259   4.407  15.760
20745TIP3    H229307   1.181   4.488  15.861
20746TIP3   OH229308   1.184   4.401  16.358
20746TIP3    H129309   1.281   4.403  16.359
20746TIP3    H229310   1.162   4.380  16.452
20747TIP3   OH229311   0.627   4.475  16.485
20747TIP3    H129312   0.655   4.562  16.522
20747TIP3    H229313   0.563   4.444  16.552
20748TIP3   OH229314   0.756   4.512  15.354
20748TIP3    H129315   0.805   4.431  15.327
20748TIP3    H229316   0.692   4.522  15.282
20749TIP3   OH229317   0.545   4.460  16.173
20749TIP3    H129318   0.557   4.541  16.226
20749TIP3    H229319   0.526   4.395  16.243
20750TIP3   OH229320   1.422   4.413  15.698
20750TIP3    H129321   1.414   4.440  15.605
20750TIP3    H229322   1.458   4.322  15.688
20751TIP3   OH229323   1.092   4.200  16.935
20751TIP3    H129324   1.128   4.141  16.865
20751TIP3    H229325   1.120   4.289  16.904
20752TIP3   OH229326   1.743   4.134  16.251
20752TIP3    H129327   1.672   4.148  16.186
20752TIP3    H229328   1.707   4.173  16.332
20753TIP3   OH229329   1.643   4.206  16.743
20753TIP3    H129330   1.576   4.245  16.802
20753TIP3    H229331   1.691   4.288  16.720
20754TIP3   OH229332   0.590   4.617  15.751
20754TIP3    H129333   0.553   4.541  15.801
20754TIP3    H229334   0.654   4.572  15.693
20755TIP3   OH229335   0.898   4.149  16.250
20755TIP3    H129336   0.991   4.159  16.221
20755TIP3    H229337   0.851   4.125  16.168
20756TIP3   OH229338   1.464   4.320  16.340
20756TIP3    H129339   1.535   4.357  16.397
20756TIP3    H229340   1.440   4.236  16.385
20757TIP3   OH229341   1.119   4.345  16.616
20757TIP3    H129342   1.024   4.366  16.606
20757TIP3    H229343   1.141   4.395  16.698
20758TIP3   OH229344   0.437   4.064  15.944
20758TIP3    H129345   0.512   4.074  15.883
20758TIP3    H229346   0.478   4.013  16.018
20759TIP3   OH229347   1.176   4.443  16.856
20759TIP3    H129348   1.250   4.438  16.919
20759TIP3    H229349   1.109   4.493  16.908
20760TIP3   OH229350   0.188   5.633  15.275
20760TIP3    H129351   0.136   5.670  15.350
20760TIP3    H229352   0.134   5.664  15.201
20761TIP3   OH229353   1.406   4.913  15.325
20761TIP3    H129354   1.340   4.939  15.257
20761TIP3    H229355   1.487   4.901  15.271
20762TIP3   OH229356   0.851   4.432  16.095
20762TIP3    H129357   0.757   4.414  16.116
20762TIP3    H229358   0.873   4.357  16.038
20763TIP3   OH229359   1.361   4.073  16.415
20763TIP3    H129360   1.407   4.001  16.366
20763TIP3    H229361   1.323   4.023  16.490
20764TIP3   OH229362   0.930   4.278  15.810
20764TIP3    H129363   1.010   4.334  15.812
20764TIP3    H229364   0.865   4.338  15.770
20765TIP3   OH229365   0.888   4.909  16.622
20765TIP3    H129366   0.965   4.863  16.662
20765TIP3    H229367   0.928   4.938  16.537
20766TIP3   OH229368   0.171   4.863  15.761
20766TIP3    H129369   0.123   4.924  15.821
20766TIP3    H229370   0.257   4.853  15.808
20767TIP3   OH229371   0.509   4.198  16.785
20767TIP3    H129372   0.600   4.201  16.820
20767TIP3    H229373   0.487   4.293  16.779
20768TIP3   OH229374   0.745   4.975  15.523
20768TIP3    H129375   0.775   4.940  15.438
20768TIP3    H229376   0.774   5.068  15.517
20769TIP3   OH229377   0.412   4.415  16.653
20769TIP3    H129378   0.344   4.386  16.588
20769TIP3    H229379   0.383   4.505  16.673
20770TIP3   OH229380   1.373   4.860  16.094
20770TIP3    H129381   1.319   4.852  16.176
20770TIP3    H229382   1.336   4.791  16.037
20771TIP3   OH229383   0.679   5.048  16.713
20771TIP3    H129384   0.725   5.132  16.690
20771TIP3    H229385   0.748   4.983  16.687
20772TIP3   OH229386   1.649   4.687  15.538
20772TIP3    H129387   1.664   4.642  15.453
20772TIP3    H229388   1.714   4.647  15.597
20773TIP3   OH229389   0.976   4.669  15.359
20773TIP3    H129390   1.029   4.614  15.419
20773TIP3    H229391   0.891   4.620  15.359
20774TIP3   OH229392   0.481   5.169  15.516
20774TIP3    H129393   0.567   5.198  15.546
20774TIP3    H229394   0.486   5.192  15.422
20775TIP3   OH229395   0.088   5.218  16.654
20775TIP3    H129396   0.179   5.188  16.659
20775TIP3    H229397   0.069   5.245  16.748
20776TIP3   OH229398   0.374   4.770  15.948
20776TIP3    H129399   0.468   4.754  15.962
20776TIP3    H229400   0.332   4.703  16.005
20777TIP3   OH229401   1.151   5.198  16.323
20777TIP3    H129402   1.124   5.292  16.326
20777TIP3    H229403   1.225   5.200  16.385
20778TIP3   OH229404   1.538   4.686  16.870
20778TIP3    H129405   1.487   4.752  16.820
20778TIP3    H229406   1.629   4.700  16.838
20779TIP3   OH229407   1.015   4.977  16.395
20779TIP3    H129408   1.061   5.059  16.368
20779TIP3    H229409   1.055   4.910  16.338
20780TIP3   OH229410   0.942   5.392  15.703
20780TIP3    H129411   0.882   5.461  15.735
20780TIP3    H229412   0.884   5.346  15.639
20781TIP3   OH229413   1.112   5.460  16.419
20781TIP3    H129414   1.209   5.467  16.405
20781TIP3    H229415   1.086   5.547  16.382
20782TIP3   OH229416   0.642   4.977  15.784
20782TIP3    H129417   0.662   4.963  15.688
20782TIP3    H229418   0.608   4.889  15.810
20783TIP3   OH229419   0.365   5.129  16.816
20783TIP3    H129420   0.341   5.068  16.744
20783TIP3    H229421   0.449   5.087  16.841
20784TIP3   OH229422   0.299   5.406  15.545
20784TIP3    H129423   0.393   5.381  15.553
20784TIP3    H229424   0.289   5.480  15.608
20785TIP3   OH229425   1.477   4.164  15.603
20785TIP3    H129426   1.533   4.215  15.543
20785TIP3    H229427   1.483   4.076  15.561
20786TIP3   OH229428   0.289   4.923  16.633
20786TIP3    H129429   0.317   4.841  16.588
20786TIP3    H229430   0.192   4.912  16.640
20787TIP3   OH229431   1.522   5.349  15.735
20787TIP3    H129432   1.460   5.276  15.741
20787TIP3    H229433   1.493   5.390  15.652
20788TIP3   OH229434   1.083   5.152  16.755
20788TIP3    H129435   1.016   5.112  16.697
20788TIP3    H229436   1.074   5.248  16.736
20789TIP3   OH229437   1.425   4.885  16.721
20789TIP3    H129438   1.489   4.928  16.661
20789TIP3    H229439   1.373   4.959  16.757
20790TIP3   OH229440   0.616   4.149  15.647
20790TIP3    H129441   0.521   4.170  15.632
20790TIP3    H229442   0.622   4.053  15.634
20791TIP3   OH229443   0.569   4.122  16.528
20791TIP3    H129444   0.532   4.166  16.607
20791TIP3    H229445   0.530   4.175  16.456
20792TIP3   OH229446   0.788   5.289  16.654
20792TIP3    H129447   0.859   5.355  16.651
20792TIP3    H229448   0.733   5.323  16.726
20793TIP3   OH229449   0.829   4.290  16.492
20793TIP3    H129450   0.763   4.363  16.488
20793TIP3    H229451   0.846   4.269  16.398
20794TIP3   OH229452   0.737   4.411  15.607
20794TIP3    H129453   0.733   4.451  15.518
20794TIP3    H229454   0.689   4.326  15.597
20795TIP3   OH229455   0.771   3.967  16.434
20795TIP3    H129456   0.817   4.023  16.369
20795TIP3    H229457   0.697   4.028  16.461
20796TIP3   OH229458   1.068   5.417  16.694
20796TIP3    H129459   1.033   5.500  16.731
20796TIP3    H229460   1.090   5.447  16.603
20797TIP3   OH229461   1.207   4.095  16.713
20797TIP3    H129462   1.196   4.178  16.662
20797TIP3    H229463   1.126   4.049  16.686
20798TIP3   OH229464   0.148   4.152  15.505
20798TIP3    H129465   0.240   4.182  15.518
20798TIP3    H229466   0.108   4.179  15.588
20799TIP3   OH229467   0.293   4.564  16.125
20799TIP3    H129468   0.381   4.524  16.115
20799TIP3    H229469   0.241   4.511  16.060
20800TIP3   OH229470   1.361   5.147  16.855
20800TIP3    H129471   1.284   5.175  16.802
20800TIP3    H229472   1.317   5.086  16.916
20801TIP3   OH229473   1.522   4.417  16.916
20801TIP3    H129474   1.511   4.514  16.901
20801TIP3    H229475   1.597   4.417  16.978
20802TIP3   OH229476   0.154   5.460  15.931
20802TIP3    H129477   0.176   5.520  16.006
20802TIP3    H229478   0.060   5.476  15.921
20803TIP3   OH229479   1.444   3.886  16.025
20803TIP3    H129480   1.450   3.873  16.122
20803TIP3    H229481   1.475   3.799  15.993
20804TIP3   OH229482   1.602   5.256  16.467
20804TIP3    H129483   1.669   5.307  16.419
20804TIP3    H229484   1.578   5.323  16.536
20805TIP3   OH229485   1.641   5.546  15.317
20805TIP3    H129486   1.564   5.532  15.257
20805TIP3    H229487   1.680   5.457  15.315
20806TIP3   OH229488   1.223   5.467  15.204
20806TIP3    H129489   1.135   5.447  15.167
20806TIP3    H229490   1.225   5.415  15.287
20807TIP3   OH229491   0.676   5.393  16.905
20807TIP3    H129492   0.733   5.339  16.964
20807TIP3    H229493   0.615   5.433  16.970
20808TIP3   OH229494   0.537   5.275  15.268
20808TIP3    H129495   0.567   5.200  15.212
20808TIP3    H229496   0.448   5.291  15.230
20809TIP3   OH229497   0.286   5.378  16.971
20809TIP3    H129498   0.289   5.296  16.917
20809TIP3    H229499   0.191   5.398  16.974
20810TIP3   OH229500   1.659   4.921  15.214
20810TIP3    H129501   1.704   4.834  15.213
20810TIP3    H229502   1.704   4.960  15.292
20811TIP3   OH229503   1.169   4.948  16.975
20811TIP3    H129504   1.102   4.930  16.907
20811TIP3    H229505   1.138   4.890  17.047
20812TIP3   OH229506   0.982   4.925  15.293
20812TIP3    H129507   1.004   4.981  15.370
20812TIP3    H229508   0.986   4.832  15.328
20813TIP3   OH229509   0.427   4.895  15.516
20813TIP3    H129510   0.342   4.943  15.502
20813TIP3    H229511   0.487   4.973  15.517
20814TIP3   OH229512   1.556   4.630  15.232
20814TIP3    H129513   1.464   4.601  15.233
20814TIP3    H229514   1.560   4.674  15.145
20815TIP3   OH229515   1.076   4.770  16.751
20815TIP3    H129516   1.149   4.718  16.711
20815TIP3    H229517   1.037   4.705  16.812
20816TIP3   OH229518   1.145   4.532  15.546
20816TIP3    H129519   1.228   4.584  15.542
20816TIP3    H229520   1.095   4.582  15.613
20817TIP3   OH229521   0.964   4.584  16.964
20817TIP3    H129522   0.933   4.579  17.056
20817TIP3    H229523   0.876   4.585  16.915
20818TIP3   OH229524   0.616   4.808  15.182
20818TIP3    H129525   0.527   4.804  15.144
20818TIP3    H229526   0.658   4.729  15.143
20819TIP3   OH229527   0.051   4.769   8.520
20819TIP3    H129528   0.052   4.778   8.617
20819TIP3    H229529  -0.010   4.839   8.493
20820TIP3   OH229530   1.118   4.288  15.444
20820TIP3    H129531   1.100   4.215  15.508
20820TIP3    H229532   1.114   4.369  15.501
20821TIP3   OH229533   1.065   4.100  15.658
20821TIP3    H129534   1.007   4.153  15.717
20821TIP3    H229535   1.150   4.112  15.705
20822TIP3   OH229536   0.964   4.693  15.667
20822TIP3    H129537   0.877   4.734  15.665
20822TIP3    H229538   1.017   4.761  15.714
20823TIP3   OH229539   0.506   4.418  15.101
20823TIP3    H129540   0.506   4.338  15.154
20823TIP3    H229541   0.417   4.454  15.116
20824TIP3   OH229542   0.368   4.687  15.346
20824TIP3    H129543   0.401   4.764  15.397
20824TIP3    H229544   0.271   4.698  15.353
20825TIP3   OH229545   1.255   4.379  15.208
20825TIP3    H129546   1.345   4.346  15.225
20825TIP3    H229547   1.210   4.353  15.291
20826TIP3   OH229548   0.964   3.854  15.667
20826TIP3    H129549   0.998   3.945  15.660
20826TIP3    H229550   1.046   3.807  15.688
20827TIP3   OH229551   0.894   4.285  15.279
20827TIP3    H129552   0.922   4.248  15.193
20827TIP3    H229553   0.976   4.278  15.333
20828TIP3   OH229554   0.575   4.209  15.329
20828TIP3    H129555   0.671   4.215  15.336
20828TIP3    H229556   0.567   4.134  15.269
20829TIP3   OH229557   0.410   4.064  15.149
20829TIP3    H129558   0.435   3.969  15.154
20829TIP3    H229559   0.473   4.100  15.085
20830TIP3   OH229560   1.484   4.186  15.260
20830TIP3    H129561   1.486   4.097  15.301
20830TIP3    H229562   1.519   4.171  15.172
20831TIP3   OH229563   1.000   3.815  15.379
20831TIP3    H129564   0.919   3.762  15.368
20831TIP3    H229565   0.993   3.838  15.473
20832TIP3   OH229566   0.990   3.918  15.102
20832TIP3    H129567   0.987   3.896  15.197
20832TIP3    H229568   1.047   3.998  15.104
20833TIP3   OH229569   0.991   5.663  16.811
20833TIP3    H129570   0.903   5.704  16.799
20833TIP3    H229571   0.986   5.639  16.905
20834TIP3   OH229572   1.639   5.096  16.875
20834TIP3    H129573   1.542   5.111  16.870
20834TIP3    H229574   1.646   5.066  16.967
20835TIP3   OH229575   1.748   5.614  16.390
20835TIP3    H129576   1.824   5.562  16.426
20835TIP3    H229577   1.717   5.555  16.318
20836TIP3   OH229578   1.664   5.444  16.192
20836TIP3    H129579   1.717   5.371  16.155
20836TIP3    H229580   1.609   5.470  16.115
20837TIP3   OH229581  -0.023   5.480  15.610
20837TIP3    H129582   0.034   5.415  15.657
20837TIP3    H229583  -0.050   5.423  15.537
20838TIP3   OH229584   0.095   5.042  15.119
20838TIP3    H129585   0.189   5.049  15.094
20838TIP3    H229586   0.069   5.135  15.124
20839TIP3   OH229587   0.024   4.870  16.640
20839TIP3    H129588  -0.043   4.936  16.609
20839TIP3    H229589   0.044   4.821  16.560
20840TIP3   OH229590   9.328   4.999  15.899
20840TIP3    H129591   9.269   4.930  15.938
20840TIP3    H229592   9.310   5.076  15.957
20841TIP3   OH229593   0.114   5.246  15.690
20841TIP3    H129594   0.198   5.280  15.654
20841TIP3    H229595   0.134   5.230  15.784
20842TIP3   OH229596  -0.001   4.390  16.941
20842TIP3    H129597   0.040   4.451  17.005
20842TIP3    H229598   0.044   4.307  16.965
20843TIP3   OH229599   0.178   4.544  16.365
20843TIP3    H129600   0.180   4.452  16.400
20843TIP3    H229601   0.210   4.536  16.272
20844TIP3   OH229602   1.679   4.786  15.935
20844TIP3    H129603   1.673   4.754  16.028
20844TIP3    H229604   1.591   4.755  15.903
20845TIP3   OH229605   0.092   4.733  15.374
20845TIP3    H129606   0.057   4.641  15.372
20845TIP3    H229607   0.027   4.782  15.427
20846TIP3   OH229608   0.172   4.176  17.014
20846TIP3    H129609   0.115   4.103  16.984
20846TIP3    H229610   0.261   4.145  16.993
20847TIP3   OH229611   0.214   4.317  16.508
20847TIP3    H129612   0.198   4.223  16.484
20847TIP3    H229613   0.171   4.317  16.595
20848TIP3   OH229614   0.163   4.375  15.964
20848TIP3    H129615   0.065   4.373  15.978
20848TIP3    H229616   0.160   4.382  15.866
20849TIP3   OH229617   0.120   4.437  15.699
20849TIP3    H129618   0.203   4.477  15.669
20849TIP3    H229619   0.066   4.514  15.728
20850TIP3   OH229620   1.735   4.268  15.363
20850TIP3    H129621   1.651   4.274  15.315
20850TIP3    H229622   1.774   4.187  15.323
20851TIP3   OH229623   0.180   4.053  16.485
20851TIP3    H129624   0.144   4.024  16.398
20851TIP3    H229625   0.226   3.972  16.515
20852TIP3   OH229626   1.584   4.119  16.002
20852TIP3    H129627   1.542   4.030  16.000
20852TIP3    H229628   1.507   4.178  15.999
20853TIP3   OH229629   1.740   4.417  15.926
20853TIP3    H129630   1.693   4.400  16.010
20853TIP3    H229631   1.695   4.498  15.898
20854TIP3   OH229632   1.727   4.037  16.540
20854TIP3    H129633   1.823   4.032  16.531
20854TIP3    H229634   1.717   4.087  16.623
20855TIP3   OH229635   0.250   5.544  16.348
20855TIP3    H129636   0.181   5.513  16.410
20855TIP3    H229637   0.200   5.577  16.271
20856TIP3   OH229638   1.729   3.901  15.713
20856TIP3    H129639   1.780   3.871  15.636
20856TIP3    H229640   1.785   3.970  15.750
20857TIP3   OH229641   1.505   5.221  15.309
20857TIP3    H129642   1.586   5.262  15.343
20857TIP3    H229643   1.536   5.180  15.228
20858TIP3   OH229644   1.209   5.390  15.632
20858TIP3    H129645   1.203   5.477  15.677
20858TIP3    H229646   1.117   5.360  15.645
20859TIP3   OH229647   0.787   5.522  15.402
20859TIP3    H129648   0.781   5.508  15.305
20859TIP3    H229649   0.691   5.533  15.421
20860TIP3   OH229650   0.531   5.620  15.429
20860TIP3    H129651   0.467   5.622  15.501
20860TIP3    H229652   0.490   5.670  15.357
20861TIP3   OH229653   0.089   3.854  15.509
20861TIP3    H129654   0.152   3.911  15.554
20861TIP3    H229655   0.073   3.781  15.572
20862TIP3   OH229656   1.471   5.676  15.684
20862TIP3    H129657   1.543   5.734  15.716
20862TIP3    H229658   1.484   5.679  15.588
20863TIP3   OH229659   1.225   5.619  15.761
20863TIP3    H129660   1.316   5.635  15.726
20863TIP3    H229661   1.231   5.672  15.842
20864TIP3   OH229662   0.739   5.589  15.844
20864TIP3    H129663   0.805   5.632  15.901
20864TIP3    H229664   0.725   5.660  15.777
20865TIP3   OH229665   0.568   5.448  15.700
20865TIP3    H129666   0.628   5.487  15.767
20865TIP3    H229667   0.488   5.497  15.725
20866TIP3   OH229668   0.256   5.604  15.729
20866TIP3    H129669   0.242   5.699  15.750
20866TIP3    H229670   0.216   5.563  15.809
20867TIP3   OH229671   1.503   5.512  15.968
20867TIP3    H129672   1.515   5.460  15.886
20867TIP3    H229673   1.417   5.479  16.001
20868TIP3   OH229674   1.287   5.396  16.095
20868TIP3    H129675   1.294   5.302  16.072
20868TIP3    H229676   1.198   5.415  16.058
20869TIP3   OH229677   1.055   5.396  15.968
20869TIP3    H129678   1.029   5.304  15.989
20869TIP3    H229679   1.041   5.396  15.872
20870TIP3   OH229680   0.726   3.994  16.076
20870TIP3    H129681   0.807   3.949  16.045
20870TIP3    H229682   0.688   3.927  16.133
20871TIP3   OH229683   0.209   3.786  16.102
20871TIP3    H129684   0.153   3.851  16.151
20871TIP3    H229685   0.298   3.825  16.118
20872TIP3   OH229686   0.062   3.931  16.271
20872TIP3    H129687   0.005   3.879  16.332
20872TIP3    H229688  -0.002   4.002  16.245
20873TIP3   OH229689   1.468   3.842  16.305
20873TIP3    H129690   1.554   3.827  16.347
20873TIP3    H229691   1.423   3.756  16.322
20874TIP3   OH229692   1.612   3.840  16.750
20874TIP3    H129693   1.549   3.897  16.799
20874TIP3    H229694   1.643   3.899  16.678
20875TIP3   OH229695   1.046   3.819  16.324
20875TIP3    H129696   0.956   3.832  16.359
20875TIP3    H229697   1.045   3.868  16.242
20876TIP3   OH229698   0.455   3.875  16.183
20876TIP3    H129699   0.461   3.877  16.279
20876TIP3    H229700   0.506   3.794  16.159
20877TIP3   OH229701   0.343   3.840  16.618
20877TIP3    H129702   0.408   3.909  16.603
20877TIP3    H229703   0.387   3.759  16.581
20878TIP3   OH229704   1.605   5.453  16.652
20878TIP3    H129705   1.695   5.448  16.691
20878TIP3    H229706   1.590   5.548  16.673
20879TIP3   OH229707   1.428   3.974  16.888
20879TIP3    H129708   1.341   3.933  16.891
20879TIP3    H229709   1.407   4.060  16.847
20880TIP3   OH229710   0.910   4.084  16.639
20880TIP3    H129711   0.872   4.024  16.573
20880TIP3    H229712   0.883   4.170  16.598
20881TIP3   OH229713   0.711   5.647  16.825
20881TIP3    H129714   0.626   5.661  16.871
20881TIP3    H229715   0.712   5.549  16.834
20882TIP3   OH229716   0.067   5.458  16.524
20882TIP3    H129717   0.082   5.373  16.572
20882TIP3    H229718   0.074   5.523  16.598
20883TIP3   OH229719   1.519   3.920  15.386
20883TIP3    H129720   1.563   3.834  15.370
20883TIP3    H229721   1.441   3.909  15.326
20884TIP3   OH229722   1.331   3.865  15.194
20884TIP3    H129723   1.245   3.850  15.237
20884TIP3    H229724   1.348   3.778  15.155
20885TIP3   OH229725   1.395   5.560  16.940
20885TIP3    H129726   1.465   5.576  16.875
20885TIP3    H229727   1.359   5.474  16.911
20886TIP3   OH229728   0.433   3.781  15.168
20886TIP3    H129729   0.405   3.744  15.082
20886TIP3    H229730   0.352   3.757  15.221
20887TIP3   OH229731   0.117   5.380  15.349
20887TIP3    H129732   0.170   5.362  15.429
20887TIP3    H229733   0.149   5.470  15.327
20888TIP3   OH229734   8.089   6.675  16.337
20888TIP3    H129735   8.104   6.772  16.332
20888TIP3    H229736   8.173   6.645  16.375
20889TIP3   OH229737   8.205   6.550  15.997
20889TIP3    H129738   8.202   6.506  15.909
20889TIP3    H229739   8.294   6.531  16.030
20890TIP3   OH229740   8.948   6.573  15.839
20890TIP3    H129741   8.968   6.495  15.785
20890TIP3    H229742   8.901   6.627  15.773
20891TIP3   OH229743   7.892   6.881  16.144
20891TIP3    H129744   7.912   6.806  16.086
20891TIP3    H229745   7.870   6.948  16.076
20892TIP3   OH229746   8.940   6.999  16.029
20892TIP3    H129747   8.942   6.907  16.065
20892TIP3    H229748   8.849   6.997  15.996
20893TIP3   OH229749   9.201   6.334  16.457
20893TIP3    H129750   9.219   6.428  16.463
20893TIP3    H229751   9.281   6.300  16.414
20894TIP3   OH229752   9.175   6.559  16.188
20894TIP3    H129753   9.120   6.480  16.178
20894TIP3    H229754   9.122   6.616  16.245
20895TIP3   OH229755   8.139   7.424  16.146
20895TIP3    H129756   8.079   7.370  16.202
20895TIP3    H229757   8.172   7.353  16.088
20896TIP3   OH229758   8.397   6.808  15.893
20896TIP3    H129759   8.359   6.793  15.980
20896TIP3    H229760   8.318   6.835  15.843
20897TIP3   OH229761   7.528   5.980  15.894
20897TIP3    H129762   7.517   6.028  15.809
20897TIP3    H229763   7.447   6.009  15.940
20898TIP3   OH229764   8.033   6.275  15.892
20898TIP3    H129765   8.020   6.182  15.870
20898TIP3    H229766   8.030   6.268  15.990
20899TIP3   OH229767   8.745   6.061  16.188
20899TIP3    H129768   8.726   6.139  16.245
20899TIP3    H229769   8.775   5.998  16.257
20900TIP3   OH229770   7.992   6.083  16.355
20900TIP3    H129771   7.943   6.056  16.274
20900TIP3    H229772   7.941   6.160  16.381
20901TIP3   OH229773   9.053   6.317  16.123
20901TIP3    H129774   8.990   6.271  16.064
20901TIP3    H229775   9.036   6.269  16.208
20902TIP3   OH229776   8.598   6.484  16.191
20902TIP3    H129777   8.513   6.441  16.167
20902TIP3    H229778   8.638   6.411  16.243
20903TIP3   OH229779   7.511   6.117  15.657
20903TIP3    H129780   7.535   6.199  15.706
20903TIP3    H229781   7.505   6.152  15.567
20904TIP3   OH229782   8.830   5.985  15.789
20904TIP3    H129783   8.867   6.035  15.864
20904TIP3    H229784   8.886   6.019  15.717
20905TIP3   OH229785   8.166   6.911  16.443
20905TIP3    H129786   8.180   6.917  16.539
20905TIP3    H229787   8.201   6.997  16.410
20906TIP3   OH229788   8.645   6.739  15.807
20906TIP3    H129789   8.688   6.823  15.776
20906TIP3    H229790   8.560   6.776  15.839
20907TIP3   OH229791   7.822   6.036  16.154
20907TIP3    H129792   7.819   5.964  16.090
20907TIP3    H229793   7.735   6.075  16.142
20908TIP3   OH229794   8.886   6.163  15.982
20908TIP3    H129795   8.822   6.224  15.937
20908TIP3    H229796   8.833   6.126  16.056
20909TIP3   OH229797   8.753   6.968  15.709
20909TIP3    H129798   8.766   7.064  15.720
20909TIP3    H229799   8.835   6.942  15.660
20910TIP3   OH229800   9.163   6.919  16.591
20910TIP3    H129801   9.164   6.971  16.674
20910TIP3    H229802   9.136   6.984  16.522
20911TIP3   OH229803   7.807   7.081  15.944
20911TIP3    H129804   7.898   7.109  15.922
20911TIP3    H229805   7.772   7.165  15.979
20912TIP3   OH229806   7.801   5.912  15.811
20912TIP3    H129807   7.882   5.931  15.862
20912TIP3    H229808   7.732   5.933  15.876
20913TIP3   OH229809   8.503   5.717  16.054
20913TIP3    H129810   8.532   5.624  16.057
20913TIP3    H229811   8.587   5.759  16.022
20914TIP3   OH229812   7.983   7.260  16.280
20914TIP3    H129813   7.948   7.179  16.324
20914TIP3    H229814   7.914   7.326  16.304
20915TIP3   OH229815   7.871   7.038  16.422
20915TIP3    H129816   7.887   6.968  16.488
20915TIP3    H229817   7.882   6.988  16.339
20916TIP3   OH229818   7.711   6.896  15.540
20916TIP3    H129819   7.706   6.822  15.604
20916TIP3    H229820   7.695   6.972  15.599
20917TIP3   OH229821   8.256   6.583  16.594
20917TIP3    H129822   8.316   6.661  16.604
20917TIP3    H229823   8.171   6.618  16.627
20918TIP3   OH229824   8.255   6.495  16.866
20918TIP3    H129825   8.205   6.516  16.785
20918TIP3    H229826   8.211   6.413  16.894
20919TIP3   OH229827   7.483   6.560  15.754
20919TIP3    H129828   7.554   6.625  15.766
20919TIP3    H229829   7.419   6.595  15.820
20920TIP3   OH229830   7.851   6.629  16.467
20920TIP3    H129831   7.933   6.645  16.414
20920TIP3    H229832   7.803   6.564  16.411
20921TIP3   OH229833   7.896   6.443  15.551
20921TIP3    H129834   7.898   6.538  15.537
20921TIP3    H229835   7.967   6.435  15.617
20922TIP3   OH229836   8.728   6.672  16.310
20922TIP3    H129837   8.778   6.621  16.377
20922TIP3    H229838   8.667   6.604  16.273
20923TIP3   OH229839   8.589   7.008  16.042
20923TIP3    H129840   8.583   6.987  16.136
20923TIP3    H229841   8.530   6.945  15.998
20924TIP3   OH229842   8.692   6.515  15.946
20924TIP3    H129843   8.659   6.530  16.037
20924TIP3    H229844   8.667   6.598  15.900
20925TIP3   OH229845   8.061   7.124  15.859
20925TIP3    H129846   8.100   7.193  15.802
20925TIP3    H229847   8.091   7.042  15.816
20926TIP3   OH229848   8.628   6.994  15.467
20926TIP3    H129849   8.693   7.054  15.423
20926TIP3    H229850   8.666   6.988  15.557
20927TIP3   OH229851   8.012   6.570  16.697
20927TIP3    H129852   7.951   6.595  16.624
20927TIP3    H229853   7.964   6.604  16.776
20928TIP3   OH229854   8.907   6.616  15.572
20928TIP3    H129855   8.888   6.666  15.491
20928TIP3    H229856   9.002   6.596  15.559
20929TIP3   OH229857   8.245   7.148  16.353
20929TIP3    H129858   8.223   7.210  16.284
20929TIP3    H229859   8.293   7.202  16.417
20930TIP3   OH229860   8.800   7.187  15.390
20930TIP3    H129861   8.811   7.210  15.484
20930TIP3    H229862   8.890   7.158  15.363
20931TIP3   OH229863   7.606   5.692  16.676
20931TIP3    H129864   7.704   5.701  16.673
20931TIP3    H229865   7.583   5.772  16.727
20932TIP3   OH229866   8.885   6.559  16.506
20932TIP3    H129867   8.899   6.635  16.567
20932TIP3    H229868   8.916   6.485  16.560
20933TIP3   OH229869   7.537   7.133  16.910
20933TIP3    H129870   7.507   7.226  16.900
20933TIP3    H229871   7.451   7.087  16.902
20934TIP3   OH229872   9.205   6.810  15.623
20934TIP3    H129873   9.257   6.824  15.704
20934TIP3    H229874   9.186   6.715  15.627
20935TIP3   OH229875   9.200   7.102  16.015
20935TIP3    H129876   9.119   7.051  16.037
20935TIP3    H229877   9.168   7.153  15.939
20936TIP3   OH229878   7.446   7.164  15.403
20936TIP3    H129879   7.462   7.072  15.425
20936TIP3    H229880   7.532   7.189  15.363
20937TIP3   OH229881   8.372   7.104  15.490
20937TIP3    H129882   8.344   7.172  15.426
20937TIP3    H229883   8.462   7.079  15.461
20938TIP3   OH229884   8.283   7.485  16.568
20938TIP3    H129885   8.278   7.505  16.664
20938TIP3    H229886   8.287   7.576  16.530
20939TIP3   OH229887   8.918   7.360  16.361
20939TIP3    H129888   8.912   7.312  16.275
20939TIP3    H229889   9.009   7.340  16.390
20940TIP3   OH229890   7.979   7.426  16.847
20940TIP3    H129891   7.928   7.347  16.874
20940TIP3    H229892   7.983   7.414  16.750
20941TIP3   OH229893   8.012   7.407  16.579
20941TIP3    H129894   8.110   7.420  16.573
20941TIP3    H229895   8.000   7.333  16.517
20942TIP3   OH229896   7.733   6.301  15.356
20942TIP3    H129897   7.786   6.336  15.431
20942TIP3    H229898   7.729   6.206  15.379
20943TIP3   OH229899   8.978   6.952  15.553
20943TIP3    H129900   8.957   6.897  15.474
20943TIP3    H229901   9.068   6.918  15.575
20944TIP3   OH229902   8.726   5.816  15.960
20944TIP3    H129903   8.813   5.819  16.005
20944TIP3    H229904   8.747   5.865  15.879
20945TIP3   OH229905   8.257   5.757  15.636
20945TIP3    H129906   8.215   5.721  15.555
20945TIP3    H229907   8.352   5.758  15.611
20946TIP3   OH229908   7.967   6.169  15.505
20946TIP3    H129909   8.031   6.134  15.439
20946TIP3    H229910   7.962   6.262  15.479
20947TIP3   OH229911   7.884   6.662  16.910
20947TIP3    H129912   7.870   6.669  17.005
20947TIP3    H229913   7.811   6.718  16.878
20948TIP3   OH229914   8.289   6.065  16.890
20948TIP3    H129915   8.322   6.052  16.800
20948TIP3    H229916   8.311   5.980  16.930
20949TIP3   OH229917   8.714   6.286  15.831
20949TIP3    H129918   8.754   6.320  15.750
20949TIP3    H229919   8.711   6.372  15.881
20950TIP3   OH229920   8.718   6.279  16.342
20950TIP3    H129921   8.814   6.285  16.361
20950TIP3    H229922   8.683   6.252  16.430
20951TIP3   OH229923   8.166   6.371  16.467
20951TIP3    H129924   8.203   6.452  16.511
20951TIP3    H229925   8.111   6.336  16.540
20952TIP3   OH229926   8.346   6.405  15.309
20952TIP3    H129927   8.366   6.314  15.278
20952TIP3    H229928   8.252   6.411  15.287
20953TIP3   OH229929   8.053   6.320  16.170
20953TIP3    H129930   8.076   6.406  16.209
20953TIP3    H229931   8.084   6.260  16.239
20954TIP3   OH229932   9.006   6.307  15.702
20954TIP3    H129933   8.934   6.334  15.644
20954TIP3    H229934   9.018   6.213  15.677
20955TIP3   OH229935   8.626   6.087  16.935
20955TIP3    H129936   8.670   6.048  16.858
20955TIP3    H229937   8.654   6.180  16.938
20956TIP3   OH229938   9.234   6.008  16.244
20956TIP3    H129939   9.156   6.022  16.188
20956TIP3    H229940   9.204   6.029  16.333
20957TIP3   OH229941   9.198   6.109  16.746
20957TIP3    H129942   9.130   6.113  16.815
20957TIP3    H229943   9.236   6.198  16.754
20958TIP3   OH229944   8.149   6.466  15.737
20958TIP3    H129945   8.101   6.394  15.783
20958TIP3    H229946   8.210   6.413  15.679
20959TIP3   OH229947   8.432   6.049  16.234
20959TIP3    H129948   8.520   6.059  16.195
20959TIP3    H229949   8.378   6.014  16.160
20960TIP3   OH229950   8.992   6.179  16.351
20960TIP3    H129951   9.051   6.212  16.422
20960TIP3    H229952   8.950   6.099  16.391
20961TIP3   OH229953   8.663   6.234  16.608
20961TIP3    H129954   8.568   6.252  16.594
20961TIP3    H229955   8.687   6.290  16.685
20962TIP3   OH229956   8.026   5.982  15.932
20962TIP3    H129957   8.098   5.985  15.865
20962TIP3    H229958   8.065   5.929  16.002
20963TIP3   OH229959   8.745   6.345  16.855
20963TIP3    H129960   8.803   6.337  16.933
20963TIP3    H229961   8.661   6.382  16.892
20964TIP3   OH229962   7.729   7.547  15.263
20964TIP3    H129963   7.692   7.616  15.322
20964TIP3    H229964   7.671   7.555  15.185
20965TIP3   OH229965   8.939   6.797  15.325
20965TIP3    H129966   8.881   6.835  15.255
20965TIP3    H229967   9.024   6.790  15.278
20966TIP3   OH229968   8.395   6.332  16.101
20966TIP3    H129969   8.300   6.311  16.103
20966TIP3    H229970   8.429   6.272  16.033
20967TIP3   OH229971   8.863   5.938  16.406
20967TIP3    H129972   8.920   5.868  16.365
20967TIP3    H229973   8.822   5.891  16.479
20968TIP3   OH229974   8.486   6.155  15.820
20968TIP3    H129975   8.569   6.208  15.830
20968TIP3    H229976   8.428   6.213  15.768
20969TIP3   OH229977   8.419   6.794  16.617
20969TIP3    H129978   8.495   6.759  16.669
20969TIP3    H229979   8.464   6.821  16.533
20970TIP3   OH229980   7.688   6.745  15.757
20970TIP3    H129981   7.640   6.808  15.817
20970TIP3    H229982   7.770   6.731  15.808
20971TIP3   OH229983   8.030   6.085  16.838
20971TIP3    H129984   8.115   6.098  16.884
20971TIP3    H229985   8.021   6.171  16.793
20972TIP3   OH229986   8.327   6.839  15.545
20972TIP3    H129987   8.311   6.810  15.455
20972TIP3    H229988   8.354   6.932  15.532
20973TIP3   OH229989   7.988   6.297  16.665
20973TIP3    H129990   7.925   6.270  16.596
20973TIP3    H229991   7.946   6.379  16.699
20974TIP3   OH229992   8.892   6.745  16.101
20974TIP3    H129993   8.850   6.726  16.187
20974TIP3    H229994   8.873   6.665  16.048
20975TIP3   OH229995   8.212   6.933  16.728
20975TIP3    H129996   8.255   7.018  16.704
20975TIP3    H229997   8.281   6.869  16.698
20976TIP3   OH229998   9.173   6.544  15.558
20976TIP3    H129999   9.181   6.491  15.476
20976TIP3    H230000   9.235   6.501  15.618
20977TIP3   OH230001   8.571   6.552  15.365
20977TIP3    H130002   8.566   6.508  15.451
20977TIP3    H230003   8.495   6.511  15.319
20978TIP3   OH230004   8.023   7.063  15.497
20978TIP3    H130005   8.105   7.093  15.538
20978TIP3    H230006   8.030   7.111  15.411
20979TIP3   OH230007   7.486   6.281  16.678
20979TIP3    H130008   7.552   6.276  16.750
20979TIP3    H230009   7.468   6.377  16.681
20980TIP3   OH230010   7.463   6.859  15.426
20980TIP3    H130011   7.552   6.874  15.466
20980TIP3    H230012   7.407   6.857  15.506
20981TIP3   OH230013   7.653   7.158  16.669
20981TIP3    H130014   7.683   7.075  16.632
20981TIP3    H230015   7.621   7.137  16.759
20982TIP3   OH230016   7.928   6.659  15.956
20982TIP3    H130017   8.020   6.627  15.967
20982TIP3    H230018   7.881   6.588  16.004
20983TIP3   OH230019   8.680   7.088  16.324
20983TIP3    H130020   8.661   7.179  16.357
20983TIP3    H230021   8.774   7.082  16.345
20984TIP3   OH230022   9.103   6.574  16.787
20984TIP3    H130023   9.020   6.620  16.806
20984TIP3    H230024   9.172   6.628  16.829
20985TIP3   OH230025   8.544   6.859  16.384
20985TIP3    H130026   8.588   6.944  16.364
20985TIP3    H230027   8.602   6.793  16.339
20986TIP3   OH230028   8.484   7.266  15.695
20986TIP3    H130029   8.421   7.331  15.730
20986TIP3    H230030   8.434   7.228  15.619
20987TIP3   OH230031   8.651   7.342  16.427
20987TIP3    H130032   8.747   7.353  16.414
20987TIP3    H230033   8.621   7.426  16.384
20988TIP3   OH230034   8.164   6.868  15.774
20988TIP3    H130035   8.204   6.841  15.688
20988TIP3    H230036   8.107   6.792  15.796
20989TIP3   OH230037   7.898   6.995  16.827
20989TIP3    H130038   7.867   6.941  16.750
20989TIP3    H230039   7.992   6.967  16.828
20990TIP3   OH230040   7.841   7.315  15.523
20990TIP3    H130041   7.929   7.279  15.544
20990TIP3    H230042   7.830   7.380  15.596
20991TIP3   OH230043   7.461   7.405  16.831
20991TIP3    H130044   7.414   7.476  16.880
20991TIP3    H230045   7.533   7.458  16.791
20992TIP3   OH230046   9.029   6.057  15.581
20992TIP3    H130047   9.079   6.080  15.501
20992TIP3    H230048   9.065   5.968  15.598
20993TIP3   OH230049   7.818   6.831  16.631
20993TIP3    H130050   7.831   6.750  16.577
20993TIP3    H230051   7.722   6.846  16.616
20994TIP3   OH230052   9.076   7.229  15.783
20994TIP3    H130053   9.011   7.163  15.756
20994TIP3    H230054   9.094   7.275  15.699
20995TIP3   OH230055   8.617   7.029  16.768
20995TIP3    H130056   8.538   6.986  16.734
20995TIP3    H230057   8.601   7.124  16.748
20996TIP3   OH230058   8.928   6.780  16.699
20996TIP3    H130059   9.010   6.804  16.651
20996TIP3    H230060   8.909   6.861  16.749
20997TIP3   OH230061   8.165   6.031  15.662
20997TIP3    H130062   8.083   6.047  15.611
20997TIP3    H230063   8.189   5.940  15.635
20998TIP3   OH230064   8.115   5.992  16.570
20998TIP3    H130065   8.062   6.029  16.643
20998TIP3    H230066   8.060   6.013  16.491
20999TIP3   OH230067   8.307   7.175  16.666
20999TIP3    H130068   8.384   7.235  16.668
20999TIP3    H230069   8.255   7.206  16.743
21000TIP3   OH230070   8.407   6.191  16.484
21000TIP3    H130071   8.325   6.244  16.472
21000TIP3    H230072   8.416   6.144  16.399
21001TIP3   OH230073   8.282   6.288  15.584
21001TIP3    H130074   8.300   6.308  15.489
21001TIP3    H230075   8.250   6.195  15.586
21002TIP3   OH230076   8.304   5.847  16.443
21002TIP3    H130077   8.335   5.912  16.378
21002TIP3    H230078   8.228   5.897  16.484
21003TIP3   OH230079   8.584   7.288  16.701
21003TIP3    H130080   8.553   7.372  16.741
21003TIP3    H230081   8.616   7.324  16.615
21004TIP3   OH230082   8.729   5.979  16.709
21004TIP3    H130083   8.742   6.058  16.652
21004TIP3    H230084   8.636   5.958  16.685
21005TIP3   OH230085   7.717   6.058  15.480
21005TIP3    H130086   7.811   6.073  15.505
21005TIP3    H230087   7.673   6.057  15.567
21006TIP3   OH230088   7.814   6.433  16.099
21006TIP3    H130089   7.892   6.374  16.102
21006TIP3    H230090   7.750   6.381  16.045
21007TIP3   OH230091   8.878   7.021  16.861
21007TIP3    H130092   8.805   7.045  16.802
21007TIP3    H230093   8.828   6.958  16.918
21008TIP3   OH230094   9.059   6.323  16.954
21008TIP3    H130095   9.028   6.396  16.899
21008TIP3    H230096   9.152   6.318  16.927
21009TIP3   OH230097   7.725   7.350  15.931
21009TIP3    H130098   7.736   7.423  15.997
21009TIP3    H230099   7.628   7.343  15.934
21010TIP3   OH230100   8.982   5.777  16.039
21010TIP3    H130101   8.990   5.754  16.134
21010TIP3    H230102   9.017   5.694  15.999
21011TIP3   OH230103   9.090   7.133  16.438
21011TIP3    H130104   9.175   7.174  16.426
21011TIP3    H230105   9.063   7.183  16.519
21012TIP3   OH230106   9.165   7.410  15.318
21012TIP3    H130107   9.120   7.392  15.232
21012TIP3    H230108   9.236   7.345  15.311
21013TIP3   OH230109   8.703   7.320  15.149
21013TIP3    H130110   8.608   7.324  15.170
21013TIP3    H230111   8.738   7.283  15.232
21014TIP3   OH230112   8.220   7.274  16.917
21014TIP3    H130113   8.288   7.232  16.975
21014TIP3    H230114   8.159   7.308  16.985
21015TIP3   OH230115   8.082   7.158  15.258
21015TIP3    H130116   8.108   7.072  15.218
21015TIP3    H230117   7.996   7.171  15.211
21016TIP3   OH230118   7.799   7.220  16.980
21016TIP3    H130119   7.845   7.150  16.929
21016TIP3    H230120   7.707   7.193  16.957
21017TIP3   OH230121   9.212   6.815  15.246
21017TIP3    H130122   9.216   6.722  15.220
21017TIP3    H230123   9.299   6.823  15.288
21018TIP3   OH230124   8.710   6.833  16.977
21018TIP3    H130125   8.663   6.803  16.897
21018TIP3    H230126   8.681   6.768  17.045
21019TIP3   OH230127   8.517   6.810  15.304
21019TIP3    H130128   8.541   6.867  15.381
21019TIP3    H230129   8.537   6.719  15.338
21020TIP3   OH230130   7.953   6.793  15.508
21020TIP3    H130131   7.868   6.844  15.511
21020TIP3    H230132   8.011   6.872  15.499
21021TIP3   OH230133   9.099   6.492  15.254
21021TIP3    H130134   9.057   6.411  15.220
21021TIP3    H230135   9.068   6.562  15.193
21022TIP3   OH230136   8.607   6.665  16.766
21022TIP3    H130137   8.679   6.624  16.717
21022TIP3    H230138   8.575   6.591  16.821
21023TIP3   OH230139   8.731   6.412  15.601
21023TIP3    H130140   8.788   6.484  15.569
21023TIP3    H230141   8.657   6.463  15.638
21024TIP3   OH230142   8.513   6.467  16.948
21024TIP3    H130143   8.486   6.472  17.041
21024TIP3    H230144   8.424   6.475  16.904
21025TIP3   OH230145   8.169   6.688  15.183
21025TIP3    H130146   8.109   6.645  15.245
21025TIP3    H230147   8.237   6.621  15.163
21026TIP3   OH230148   7.619   6.749   8.517
21026TIP3    H130149   7.674   6.780   8.590
21026TIP3    H230150   7.578   6.830   8.485
21027TIP3   OH230151   8.611   6.202  15.450
21027TIP3    H130152   8.613   6.131  15.517
21027TIP3    H230153   8.624   6.282  15.504
21028TIP3   OH230154   8.597   5.992  15.648
21028TIP3    H130155   8.537   6.045  15.707
21028TIP3    H230156   8.677   5.991  15.705
21029TIP3   OH230157   8.492   6.578  15.653
21029TIP3    H130158   8.407   6.620  15.672
21029TIP3    H230159   8.551   6.645  15.693
21030TIP3   OH230160   8.064   6.328  15.148
21030TIP3    H130161   8.028   6.238  15.139
21030TIP3    H230162   7.984   6.380  15.160
21031TIP3   OH230163   7.866   6.625  15.313
21031TIP3    H130164   7.903   6.680  15.385
21031TIP3    H230165   7.770   6.620  15.339
21032TIP3   OH230166   8.770   6.254  15.233
21032TIP3    H130167   8.861   6.222  15.228
21032TIP3    H230168   8.752   6.251  15.329
21033TIP3   OH230169   8.526   5.734  15.631
21033TIP3    H130170   8.552   5.829  15.635
21033TIP3    H230171   8.594   5.695  15.688
21034TIP3   OH230172   8.428   6.149  15.238
21034TIP3    H130173   8.494   6.136  15.166
21034TIP3    H230174   8.489   6.152  15.316
21035TIP3   OH230175   8.155   6.100  15.334
21035TIP3    H130176   8.249   6.088  15.313
21035TIP3    H230177   8.112   6.044  15.266
21036TIP3   OH230178   8.017   5.951  15.164
21036TIP3    H130179   8.000   5.854  15.161
21036TIP3    H230180   8.003   5.981  15.072
21037TIP3   OH230181   9.005   6.064  15.215
21037TIP3    H130182   8.992   5.979  15.260
21037TIP3    H230183   8.986   6.040  15.122
21038TIP3   OH230184   8.535   5.702  15.354
21038TIP3    H130185   8.453   5.647  15.355
21038TIP3    H230186   8.547   5.707  15.451
21039TIP3   OH230187   8.515   5.813  15.089
21039TIP3    H130188   8.529   5.758  15.170
21039TIP3    H230189   8.508   5.900  15.129
21040TIP3   OH230190   8.525   7.528  16.794
21040TIP3    H130191   8.442   7.572  16.819
21040TIP3    H230192   8.591   7.574  16.846
21041TIP3   OH230193   9.139   6.998  16.913
21041TIP3    H130194   9.046   7.023  16.892
21041TIP3    H230195   9.135   6.993  17.012
21042TIP3   OH230196   9.253   7.515  16.402
21042TIP3    H130197   9.313   7.447  16.438
21042TIP3    H230198   9.241   7.477  16.313
21043TIP3   OH230199   9.206   7.345  16.185
21043TIP3    H130200   9.239   7.257  16.160
21043TIP3    H230201   9.160   7.373  16.103
21044TIP3   OH230202   7.433   7.423  15.943
21044TIP3    H130203   7.441   7.409  15.848
21044TIP3    H230204   7.394   7.511  15.944
21045TIP3   OH230205   7.522   7.362  15.665
21045TIP3    H130206   7.551   7.272  15.691
21045TIP3    H230207   7.483   7.344  15.578
21046TIP3   OH230208   7.631   6.937  15.126
21046TIP3    H130209   7.714   6.916  15.171
21046TIP3    H230210   7.627   7.032  15.140
21047TIP3   OH230211   7.539   6.785  16.623
21047TIP3    H130212   7.454   6.831  16.606
21047TIP3    H230213   7.539   6.719  16.550
21048TIP3   OH230214   7.504   6.590  16.430
21048TIP3    H130215   7.578   6.547  16.381
21048TIP3    H230216   7.441   6.606  16.358
21049TIP3   OH230217   7.533   6.851  15.936
21049TIP3    H130218   7.465   6.784  15.958
21049TIP3    H230219   7.489   6.935  15.963
21050TIP3   OH230220   7.665   7.129  15.694
21050TIP3    H130221   7.722   7.190  15.644
21050TIP3    H230222   7.716   7.115  15.776
21051TIP3   OH230223   7.484   6.563  16.796
21051TIP3    H130224   7.551   6.580  16.864
21051TIP3    H230225   7.504   6.631  16.730
21052TIP3   OH230226   7.697   6.283  16.910
21052TIP3    H130227   7.627   6.324  16.963
21052TIP3    H230228   7.690   6.191  16.945
21053TIP3   OH230229   7.704   6.441  16.340
21053TIP3    H130230   7.728   6.352  16.370
21053TIP3    H230231   7.735   6.441  16.246
21054TIP3   OH230232   9.176   6.660  15.943
21054TIP3    H130233   9.180   6.631  16.037
21054TIP3    H230234   9.083   6.637  15.920
21055TIP3   OH230235   7.603   6.630  15.376
21055TIP3    H130236   7.559   6.543  15.368
21055TIP3    H230237   7.530   6.691  15.398
21056TIP3   OH230238   7.470   6.385  15.338
21056TIP3    H130239   7.564   6.356  15.328
21056TIP3    H230240   7.425   6.298  15.337
21057TIP3   OH230241   7.705   6.038  17.025
21057TIP3    H130242   7.648   5.989  16.961
21057TIP3    H230243   7.795   6.029  16.991
21058TIP3   OH230244   7.780   6.219  16.497
21058TIP3    H130245   7.744   6.133  16.465
21058TIP3    H230246   7.725   6.226  16.577
21059TIP3   OH230247   7.652   6.266  15.951
21059TIP3    H130248   7.554   6.273  15.950
21059TIP3    H230249   7.669   6.266  15.855
21060TIP3   OH230250   7.660   6.342  15.687
21060TIP3    H130251   7.753   6.369  15.696
21060TIP3    H230252   7.613   6.429  15.693
21061TIP3   OH230253   9.213   6.152  15.365
21061TIP3    H130254   9.132   6.137  15.311
21061TIP3    H230255   9.272   6.087  15.327
21062TIP3   OH230256   7.452   5.713  15.167
21062TIP3    H130257   7.410   5.650  15.229
21062TIP3    H230258   7.453   5.794  15.221
21063TIP3   OH230259   7.676   5.953  16.483
21063TIP3    H130260   7.644   5.896  16.410
21063TIP3    H230261   7.726   5.889  16.536
21064TIP3   OH230262   9.101   6.009  15.962
21064TIP3    H130263   9.068   5.918  15.981
21064TIP3    H230264   9.020   6.063  15.960
21065TIP3   OH230265   9.256   6.303  15.947
21065TIP3    H130266   9.191   6.271  16.014
21065TIP3    H230267   9.231   6.396  15.944
21066TIP3   OH230268   7.518   5.958  15.281
21066TIP3    H130269   7.606   5.988  15.249
21066TIP3    H230270   7.537   5.938  15.373
21067TIP3   OH230271   7.510   5.944  16.856
21067TIP3    H130272   7.458   5.893  16.920
21067TIP3    H230273   7.444   6.008  16.824
21068TIP3   OH230274   9.256   5.933  16.550
21068TIP3    H130275   9.353   5.929  16.557
21068TIP3    H230276   9.234   5.975  16.636
21069TIP3   OH230277   7.798   7.443  16.323
21069TIP3    H130278   7.729   7.413  16.386
21069TIP3    H230279   7.748   7.491  16.254
21070TIP3   OH230280   9.239   5.799  15.697
21070TIP3    H130281   9.299   5.779  15.623
21070TIP3    H230282   9.291   5.862  15.748
21071TIP3   OH230283   9.035   7.088  15.259
21071TIP3    H130284   9.065   7.004  15.298
21071TIP3    H230285   9.045   7.070  15.163
21072TIP3   OH230286   8.748   7.251  15.659
21072TIP3    H130287   8.762   7.345  15.686
21072TIP3    H230288   8.650   7.246  15.665
21073TIP3   OH230289   8.329   7.374  15.384
21073TIP3    H130290   8.324   7.356  15.287
21073TIP3    H230291   8.241   7.417  15.399
21074TIP3   OH230292   8.110   7.526  15.428
21074TIP3    H130293   8.034   7.488  15.474
21074TIP3    H230294   8.073   7.555  15.342
21075TIP3   OH230295   7.599   5.714  15.510
21075TIP3    H130296   7.670   5.761  15.557
21075TIP3    H230297   7.606   5.624  15.548
21076TIP3   OH230298   9.014   7.541  15.651
21076TIP3    H130299   9.095   7.583  15.687
21076TIP3    H230300   9.039   7.520  15.560
21077TIP3   OH230301   8.769   7.507  15.760
21077TIP3    H130302   8.856   7.532  15.723
21077TIP3    H230303   8.761   7.569  15.835
21078TIP3   OH230304   8.304   7.470  15.828
21078TIP3    H130305   8.349   7.510  15.903
21078TIP3    H230306   8.290   7.547  15.768
21079TIP3   OH230307   8.099   7.340  15.697
21079TIP3    H130308   8.167   7.386  15.750
21079TIP3    H230309   8.024   7.399  15.718
21080TIP3   OH230310   7.842   7.488  15.725
21080TIP3    H130311   7.815   7.581  15.739
21080TIP3    H230312   7.801   7.447  15.806
21081TIP3   OH230313   9.043   7.414  15.976
21081TIP3    H130314   9.065   7.354  15.902
21081TIP3    H230315   8.963   7.368  16.014
21082TIP3   OH230316   8.861   7.269  16.106
21082TIP3    H130317   8.871   7.175  16.080
21082TIP3    H230318   8.775   7.288  16.061
21083TIP3   OH230319   8.632   7.274  15.961
21083TIP3    H130320   8.595   7.186  15.982
21083TIP3    H230321   8.595   7.289  15.872
21084TIP3   OH230322   8.290   5.863  16.071
21084TIP3    H130323   8.374   5.813  16.057
21084TIP3    H230324   8.246   5.807  16.136
21085TIP3   OH230325   7.711   5.689  16.089
21085TIP3    H130326   7.648   5.741  16.145
21085TIP3    H230327   7.798   5.720  16.122
21086TIP3   OH230328   7.564   5.805  16.286
21086TIP3    H130329   7.497   5.751  16.334
21086TIP3    H230330   7.510   5.885  16.267
21087TIP3   OH230331   8.994   5.729  16.308
21087TIP3    H130332   9.077   5.719  16.360
21087TIP3    H230333   8.952   5.641  16.321
21088TIP3   OH230334   9.105   5.683  16.743
21088TIP3    H130335   9.077   5.752  16.806
21088TIP3    H230336   9.167   5.729  16.684
21089TIP3   OH230337   8.580   5.695  16.331
21089TIP3    H130338   8.494   5.709  16.372
21089TIP3    H230339   8.575   5.746  16.250
21090TIP3   OH230340   7.979   5.746  16.186
21090TIP3    H130341   8.005   5.762  16.277
21090TIP3    H230342   8.032   5.665  16.166
21091TIP3   OH230343   7.858   5.733  16.639
21091TIP3    H130344   7.941   5.771  16.669
21091TIP3    H230345   7.892   5.652  16.592
21092TIP3   OH230346   9.136   7.316  16.637
21092TIP3    H130347   9.231   7.309  16.649
21092TIP3    H230348   9.124   7.410  16.664
21093TIP3   OH230349   8.959   5.873  16.891
21093TIP3    H130350   8.884   5.816  16.915
21093TIP3    H230351   8.917   5.939  16.836
21094TIP3   OH230352   8.452   5.970  16.641
21094TIP3    H130353   8.403   5.909  16.582
21094TIP3    H230354   8.432   6.055  16.597
21095TIP3   OH230355   8.245   7.525  16.830
21095TIP3    H130356   8.159   7.545  16.871
21095TIP3    H230357   8.246   7.428  16.847
21096TIP3   OH230358   7.620   7.367  16.504
21096TIP3    H130359   7.622   7.293  16.571
21096TIP3    H230360   7.616   7.443  16.565
21097TIP3   OH230361   9.044   5.793  15.370
21097TIP3    H130362   9.106   5.720  15.349
21097TIP3    H230363   8.962   5.762  15.328
21098TIP3   OH230364   8.836   5.719  15.171
21098TIP3    H130365   8.748   5.718  15.213
21098TIP3    H230366   8.847   5.625  15.150
21099TIP3   OH230367   8.986   7.363  16.925
21099TIP3    H130368   9.017   7.412  16.848
21099TIP3    H230369   8.906   7.320  16.892
21100TIP3   OH230370   7.987   5.681  15.147
21100TIP3    H130371   7.976   5.640  15.058
21100TIP3    H230372   7.899   5.659  15.186
21101TIP3   OH230373   7.672   7.290  15.324
21101TIP3    H130374   7.738   7.287  15.398
21101TIP3    H230375   7.675   7.386  15.306
21102TIP3   OH230376   6.191   6.677  16.339
21102TIP3    H130377   6.213   6.773  16.336
21102TIP3    H230378   6.267   6.643  16.389
21103TIP3   OH230379   6.323   6.549  15.999
21103TIP3    H130380   6.323   6.507  15.910
21103TIP3    H230381   6.412   6.531  16.033
21104TIP3   OH230382   7.117   6.558  15.826
21104TIP3    H130383   7.117   6.482  15.765
21104TIP3    H230384   7.022   6.571  15.842
21105TIP3   OH230385   6.007   6.885  16.130
21105TIP3    H130386   6.026   6.805  16.077
21105TIP3    H230387   5.984   6.950  16.061
21106TIP3   OH230388   7.006   7.005  16.004
21106TIP3    H130389   7.043   6.921  16.037
21106TIP3    H230390   6.912   6.991  16.023
21107TIP3   OH230391   7.328   6.336  16.440
21107TIP3    H130392   7.372   6.421  16.428
21107TIP3    H230393   7.383   6.296  16.509
21108TIP3   OH230394   7.293   6.579  16.194
21108TIP3    H130395   7.258   6.490  16.172
21108TIP3    H230396   7.215   6.635  16.205
21109TIP3   OH230397   6.256   7.422  16.154
21109TIP3    H130398   6.194   7.365  16.205
21109TIP3    H230399   6.278   7.359  16.084
21110TIP3   OH230400   6.527   6.815  15.897
21110TIP3    H130401   6.510   6.807  15.991
21110TIP3    H230402   6.437   6.841  15.866
21111TIP3   OH230403   5.649   5.980  15.878
21111TIP3    H130404   5.634   6.029  15.794
21111TIP3    H230405   5.567   6.001  15.924
21112TIP3   OH230406   6.142   6.274  15.885
21112TIP3    H130407   6.125   6.186  15.848
21112TIP3    H230408   6.148   6.254  15.981
21113TIP3   OH230409   6.859   6.059  16.206
21113TIP3    H130410   6.842   6.140  16.258
21113TIP3    H230411   6.907   6.007  16.273
21114TIP3   OH230412   6.104   6.082  16.353
21114TIP3    H130413   6.045   6.047  16.282
21114TIP3    H230414   6.053   6.160  16.379
21115TIP3   OH230415   7.215   6.324  16.110
21115TIP3    H130416   7.156   6.272  16.051
21115TIP3    H230417   7.189   6.286  16.196
21116TIP3   OH230418   6.745   6.480  16.172
21116TIP3    H130419   6.664   6.433  16.141
21116TIP3    H230420   6.780   6.410  16.232
21117TIP3   OH230421   5.636   6.113  15.646
21117TIP3    H130422   5.663   6.199  15.685
21117TIP3    H230423   5.607   6.142  15.558
21118TIP3   OH230424   6.953   5.980  15.777
21118TIP3    H130425   6.999   6.027  15.850
21118TIP3    H230426   7.021   5.987  15.706
21119TIP3   OH230427   6.285   6.909  16.439
21119TIP3    H130428   6.297   6.915  16.535
21119TIP3    H230429   6.325   6.994  16.408
21120TIP3   OH230430   6.753   6.738  15.780
21120TIP3    H130431   6.810   6.812  15.750
21120TIP3    H230432   6.677   6.787  15.819
21121TIP3   OH230433   5.900   6.023  16.183
21121TIP3    H130434   5.917   5.983  16.096
21121TIP3    H230435   5.822   6.076  16.164
21122TIP3   OH230436   7.012   6.162  15.988
21122TIP3    H130437   6.955   6.231  15.947
21122TIP3    H230438   6.958   6.138  16.067
21123TIP3   OH230439   6.872   6.963  15.702
21123TIP3    H130440   6.895   7.040  15.756
21123TIP3    H230441   6.957   6.953  15.652
21124TIP3   OH230442   7.294   6.898  16.615
21124TIP3    H130443   7.288   6.951  16.697
21124TIP3    H230444   7.276   6.966  16.546
21125TIP3   OH230445   5.921   7.074  15.937
21125TIP3    H130446   6.012   7.098  15.906
21125TIP3    H230447   5.900   7.152  15.991
21126TIP3   OH230448   5.916   5.893  15.817
21126TIP3    H130449   5.992   5.926  15.870
21126TIP3    H230450   5.845   5.951  15.850
21127TIP3   OH230451   6.624   5.712  16.053
21127TIP3    H130452   6.653   5.621  16.046
21127TIP3    H230453   6.708   5.758  16.026
21128TIP3   OH230454   6.089   7.259  16.284
21128TIP3    H130455   6.061   7.175  16.327
21128TIP3    H230456   6.011   7.318  16.299
21129TIP3   OH230457   5.984   7.035  16.420
21129TIP3    H130458   5.995   6.969  16.490
21129TIP3    H230459   6.008   6.983  16.341
21130TIP3   OH230460   5.818   6.916  15.561
21130TIP3    H130461   5.816   6.832  15.612
21130TIP3    H230462   5.798   6.982  15.631
21131TIP3   OH230463   6.365   6.589  16.588
21131TIP3    H130464   6.431   6.661  16.605
21131TIP3    H230465   6.283   6.624  16.629
21132TIP3   OH230466   6.359   6.490  16.865
21132TIP3    H130467   6.303   6.514  16.788
21132TIP3    H230468   6.315   6.411  16.898
21133TIP3   OH230469   5.606   6.551  15.771
21133TIP3    H130470   5.679   6.617  15.769
21133TIP3    H230471   5.551   6.592  15.841
21134TIP3   OH230472   5.971   6.620  16.479
21134TIP3    H130473   6.047   6.640  16.419
21134TIP3    H230474   5.915   6.565  16.418
21135TIP3   OH230475   5.990   6.423  15.546
21135TIP3    H130476   5.987   6.492  15.475
21135TIP3    H230477   6.055   6.461  15.607
21136TIP3   OH230478   6.871   6.664  16.323
21136TIP3    H130479   6.877   6.614  16.407
21136TIP3    H230480   6.817   6.602  16.268
21137TIP3   OH230481   6.715   7.002  16.043
21137TIP3    H130482   6.700   6.987  16.138
21137TIP3    H230483   6.646   6.947  16.000
21138TIP3   OH230484   6.862   6.555  15.929
21138TIP3    H130485   6.822   6.544  16.019
21138TIP3    H230486   6.801   6.618  15.884
21139TIP3   OH230487   6.163   7.123  15.853
21139TIP3    H130488   6.198   7.184  15.786
21139TIP3    H230489   6.197   7.036  15.824
21140TIP3   OH230490   6.709   6.990  15.485
21140TIP3    H130491   6.780   7.040  15.437
21140TIP3    H230492   6.754   6.972  15.570
21141TIP3   OH230493   6.131   6.570  16.700
21141TIP3    H130494   6.073   6.582  16.622
21141TIP3    H230495   6.078   6.611  16.773
21142TIP3   OH230496   7.017   6.606  15.552
21142TIP3    H130497   7.010   6.695  15.516
21142TIP3    H230498   7.108   6.583  15.527
21143TIP3   OH230499   6.364   7.148  16.344
21143TIP3    H130500   6.325   7.215  16.287
21143TIP3    H230501   6.403   7.201  16.414
21144TIP3   OH230502   6.888   7.170  15.388
21144TIP3    H130503   6.905   7.209  15.476
21144TIP3    H230504   6.978   7.145  15.360
21145TIP3   OH230505   5.721   5.691  16.692
21145TIP3    H130506   5.818   5.705  16.693
21145TIP3    H230507   5.691   5.771  16.739
21146TIP3   OH230508   6.964   6.557  16.573
21146TIP3    H130509   7.008   6.641  16.600
21146TIP3    H230510   7.035   6.492  16.577
21147TIP3   OH230511   5.653   7.128  16.908
21147TIP3    H130512   5.619   7.219  16.905
21147TIP3    H230513   5.567   7.081  16.904
21148TIP3   OH230514   7.315   6.831  15.638
21148TIP3    H130515   7.353   6.813  15.725
21148TIP3    H230516   7.281   6.742  15.618
21149TIP3   OH230517   7.354   7.089  15.975
21149TIP3    H130518   7.270   7.049  15.950
21149TIP3    H230519   7.344   7.177  15.940
21150TIP3   OH230520   5.573   7.162  15.413
21150TIP3    H130521   5.571   7.065  15.413
21150TIP3    H230522   5.656   7.178  15.362
21151TIP3   OH230523   6.471   7.128  15.510
21151TIP3    H130524   6.470   7.214  15.462
21151TIP3    H230525   6.564   7.097  15.500
21152TIP3   OH230526   6.395   7.486  16.571
21152TIP3    H130527   6.391   7.509  16.666
21152TIP3    H230528   6.400   7.575  16.529
21153TIP3   OH230529   7.039   7.360  16.358
21153TIP3    H130530   7.016   7.331  16.267
21153TIP3    H230531   7.128   7.324  16.369
21154TIP3   OH230532   6.098   7.428  16.848
21154TIP3    H130533   6.041   7.352  16.870
21154TIP3    H230534   6.100   7.423  16.750
21155TIP3   OH230535   6.129   7.412  16.567
21155TIP3    H130536   6.226   7.424  16.556
21155TIP3    H230537   6.113   7.332  16.514
21156TIP3   OH230538   5.820   6.284  15.379
21156TIP3    H130539   5.897   6.337  15.409
21156TIP3    H230540   5.847   6.193  15.400
21157TIP3   OH230541   7.096   6.972  15.564
21157TIP3    H130542   7.087   6.944  15.471
21157TIP3    H230543   7.183   6.932  15.587
21158TIP3   OH230544   6.852   5.814  15.966
21158TIP3    H130545   6.938   5.828  16.011
21158TIP3    H230546   6.867   5.868  15.886
21159TIP3   OH230547   6.390   5.761  15.626
21159TIP3    H130548   6.370   5.740  15.534
21159TIP3    H230549   6.489   5.763  15.627
21160TIP3   OH230550   6.080   6.171  15.483
21160TIP3    H130551   6.149   6.153  15.414
21160TIP3    H230552   6.074   6.268  15.480
21161TIP3   OH230553   6.000   6.668  16.908
21161TIP3    H130554   5.982   6.672  17.003
21161TIP3    H230555   5.931   6.730  16.876
21162TIP3   OH230556   6.408   6.074  16.892
21162TIP3    H130557   6.461   6.068  16.811
21162TIP3    H230558   6.431   5.992  16.938
21163TIP3   OH230559   6.840   6.303  15.844
21163TIP3    H130560   6.903   6.303  15.770
21163TIP3    H230561   6.844   6.399  15.867
21164TIP3   OH230562   6.836   6.285  16.350
21164TIP3    H130563   6.933   6.284  16.361
21164TIP3    H230564   6.803   6.266  16.440
21165TIP3   OH230565   6.274   6.374  16.462
21165TIP3    H130566   6.311   6.453  16.509
21165TIP3    H230567   6.217   6.338  16.532
21166TIP3   OH230568   6.433   6.399  15.372
21166TIP3    H130569   6.459   6.318  15.325
21166TIP3    H230570   6.350   6.421  15.328
21167TIP3   OH230571   6.167   6.310  16.168
21167TIP3    H130572   6.193   6.398  16.201
21167TIP3    H230573   6.187   6.256  16.246
21168TIP3   OH230574   7.082   6.303  15.705
21168TIP3    H130575   7.043   6.332  15.621
21168TIP3    H230576   7.104   6.210  15.684
21169TIP3   OH230577   6.770   6.084  16.931
21169TIP3    H130578   6.794   6.019  16.862
21169TIP3    H230579   6.786   6.168  16.883
21170TIP3   OH230580   7.403   6.025  16.256
21170TIP3    H130581   7.338   6.034  16.184
21170TIP3    H230582   7.357   6.063  16.331
21171TIP3   OH230583   7.305   6.093  16.744
21171TIP3    H130584   7.242   6.129  16.809
21171TIP3    H230585   7.358   6.174  16.727
21172TIP3   OH230586   6.287   6.461  15.746
21172TIP3    H130587   6.222   6.397  15.784
21172TIP3    H230588   6.345   6.401  15.694
21173TIP3   OH230589   6.539   6.034  16.272
21173TIP3    H130590   6.633   6.032  16.246
21173TIP3    H230591   6.494   6.003  16.190
21174TIP3   OH230592   7.120   6.203  16.336
21174TIP3    H130593   7.188   6.242  16.396
21174TIP3    H230594   7.095   6.120  16.383
21175TIP3   OH230595   6.756   6.229  16.613
21175TIP3    H130596   6.660   6.246  16.608
21175TIP3    H230597   6.784   6.281  16.692
21176TIP3   OH230598   6.127   5.986  15.948
21176TIP3    H130599   6.187   5.984  15.869
21176TIP3    H230600   6.173   5.929  16.010
21177TIP3   OH230601   6.840   6.333  16.849
21177TIP3    H130602   6.905   6.322  16.921
21177TIP3    H230603   6.768   6.384  16.892
21178TIP3   OH230604   5.861   7.529  15.280
21178TIP3    H130605   5.810   7.548  15.361
21178TIP3    H230606   5.804   7.570  15.214
21179TIP3   OH230607   7.063   6.799  15.336
21179TIP3    H130608   6.987   6.804  15.274
21179TIP3    H230609   7.134   6.762  15.280
21180TIP3   OH230610   6.516   6.325  16.081
21180TIP3    H130611   6.419   6.317  16.085
21180TIP3    H230612   6.540   6.244  16.032
21181TIP3   OH230613   7.008   5.957  16.412
21181TIP3    H130614   7.060   5.883  16.373
21181TIP3    H230615   6.962   5.911  16.485
21182TIP3   OH230616   6.616   6.154  15.807
21182TIP3    H130617   6.691   6.215  15.823
21182TIP3    H230618   6.552   6.209  15.759
21183TIP3   OH230619   6.534   6.790  16.613
21183TIP3    H130620   6.609   6.741  16.653
21183TIP3    H230621   6.575   6.821  16.529
21184TIP3   OH230622   5.804   6.741  15.771
21184TIP3    H130623   5.754   6.804  15.828
21184TIP3    H230624   5.882   6.726  15.827
21185TIP3   OH230625   6.151   6.089  16.837
21185TIP3    H130626   6.239   6.103  16.877
21185TIP3    H230627   6.136   6.173  16.791
21186TIP3   OH230628   6.418   6.837  15.556
21186TIP3    H130629   6.419   6.792  15.470
21186TIP3    H230630   6.444   6.926  15.529
21187TIP3   OH230631   6.086   6.301  16.668
21187TIP3    H130632   6.019   6.278  16.600
21187TIP3    H230633   6.050   6.383  16.706
21188TIP3   OH230634   7.029   6.749  16.102
21188TIP3    H130635   6.975   6.744  16.183
21188TIP3    H230636   6.991   6.680  16.045
21189TIP3   OH230637   6.334   6.931  16.723
21189TIP3    H130638   6.377   7.018  16.701
21189TIP3    H230639   6.404   6.868  16.693
21190TIP3   OH230640   7.304   6.562  15.517
21190TIP3    H130641   7.334   6.502  15.446
21190TIP3    H230642   7.360   6.533  15.591
21191TIP3   OH230643   6.660   6.548  15.349
21191TIP3    H130644   6.664   6.501  15.434
21191TIP3    H230645   6.571   6.518  15.319
21192TIP3   OH230646   6.147   7.074  15.518
21192TIP3    H130647   6.230   7.094  15.563
21192TIP3    H230648   6.167   7.107  15.428
21193TIP3   OH230649   5.606   6.280  16.675
21193TIP3    H130650   5.666   6.275  16.753
21193TIP3    H230651   5.582   6.375  16.682
21194TIP3   OH230652   5.587   6.881  15.410
21194TIP3    H130653   5.674   6.898  15.453
21194TIP3    H230654   5.529   6.870  15.489
21195TIP3   OH230655   5.789   7.174  16.667
21195TIP3    H130656   5.797   7.086  16.629
21195TIP3    H230657   5.744   7.160  16.753
21196TIP3   OH230658   6.043   6.653  15.959
21196TIP3    H130659   6.136   6.627  15.972
21196TIP3    H230660   5.998   6.580  16.005
21197TIP3   OH230661   6.796   7.098  16.350
21197TIP3    H130662   6.783   7.193  16.373
21197TIP3    H230663   6.883   7.083  16.388
21198TIP3   OH230664   7.184   6.572  16.872
21198TIP3    H130665   7.144   6.644  16.820
21198TIP3    H230666   7.276   6.572  16.841
21199TIP3   OH230667   6.662   6.861  16.379
21199TIP3    H130668   6.708   6.948  16.375
21199TIP3    H230669   6.724   6.800  16.336
21200TIP3   OH230670   6.601   7.281  15.702
21200TIP3    H130671   6.536   7.343  15.740
21200TIP3    H230672   6.545   7.232  15.638
21201TIP3   OH230673   6.782   7.352  16.440
21201TIP3    H130674   6.879   7.350  16.423
21201TIP3    H230675   6.759   7.434  16.391
21202TIP3   OH230676   6.281   6.884  15.788
21202TIP3    H130677   6.321   6.852  15.702
21202TIP3    H230678   6.216   6.815  15.808
21203TIP3   OH230679   6.016   7.001  16.829
21203TIP3    H130680   5.981   6.949  16.753
21203TIP3    H230681   6.108   6.970  16.829
21204TIP3   OH230682   5.959   7.312  15.514
21204TIP3    H130683   6.039   7.257  15.529
21204TIP3    H230684   5.962   7.372  15.591
21205TIP3   OH230685   5.574   7.408  16.829
21205TIP3    H130686   5.531   7.481  16.877
21205TIP3    H230687   5.647   7.457  16.786
21206TIP3   OH230688   7.154   6.044  15.582
21206TIP3    H130689   7.236   6.096  15.574
21206TIP3    H230690   7.180   5.961  15.539
21207TIP3   OH230691   5.933   6.839  16.627
21207TIP3    H130692   5.946   6.754  16.577
21207TIP3    H230693   5.837   6.850  16.616
21208TIP3   OH230694   7.191   7.222  15.755
21208TIP3    H130695   7.132   7.147  15.736
21208TIP3    H230696   7.154   7.289  15.696
21209TIP3   OH230697   6.733   7.031  16.760
21209TIP3    H130698   6.666   6.988  16.704
21209TIP3    H230699   6.716   7.127  16.743
21210TIP3   OH230700   7.078   6.769  16.724
21210TIP3    H130701   7.144   6.810  16.664
21210TIP3    H230702   7.031   6.846  16.761
21211TIP3   OH230703   6.227   5.989  15.682
21211TIP3    H130704   6.171   6.027  15.613
21211TIP3    H230705   6.291   5.935  15.632
21212TIP3   OH230706   6.209   5.973  16.577
21212TIP3    H130707   6.166   6.017  16.653
21212TIP3    H230708   6.152   5.997  16.500
21213TIP3   OH230709   6.430   7.174  16.660
21213TIP3    H130710   6.495   7.246  16.651
21213TIP3    H230711   6.376   7.208  16.735
21214TIP3   OH230712   6.492   6.186  16.497
21214TIP3    H130713   6.418   6.247  16.476
21214TIP3    H230714   6.508   6.140  16.413
21215TIP3   OH230715   6.424   6.273  15.608
21215TIP3    H130716   6.441   6.328  15.528
21215TIP3    H230717   6.363   6.204  15.576
21216TIP3   OH230718   6.417   5.854  16.439
21216TIP3    H130719   6.453   5.922  16.378
21216TIP3    H230720   6.340   5.903  16.479
21217TIP3   OH230721   6.701   7.291  16.699
21217TIP3    H130722   6.670   7.377  16.735
21217TIP3    H230723   6.738   7.323  16.614
21218TIP3   OH230724   6.859   5.970  16.704
21218TIP3    H130725   6.851   6.055  16.655
21218TIP3    H230726   6.774   5.927  16.679
21219TIP3   OH230727   5.846   6.022  15.458
21219TIP3    H130728   5.939   6.041  15.482
21219TIP3    H230729   5.799   6.046  15.541
21220TIP3   OH230730   5.933   6.423  16.096
21220TIP3    H130731   6.013   6.367  16.087
21220TIP3    H230732   5.868   6.373  16.042
21221TIP3   OH230733   7.004   7.017  16.847
21221TIP3    H130734   6.920   7.046  16.805
21221TIP3    H230735   6.966   6.967  16.921
21222TIP3   OH230736   7.183   6.307  16.921
21222TIP3    H130737   7.164   6.400  16.900
21222TIP3    H230738   7.259   6.312  16.981
21223TIP3   OH230739   5.848   7.365  15.937
21223TIP3    H130740   5.845   7.438  16.002
21223TIP3    H230741   5.752   7.346  15.935
21224TIP3   OH230742   7.121   5.767  16.027
21224TIP3    H130743   7.128   5.750  16.124
21224TIP3    H230744   7.147   5.678  15.993
21225TIP3   OH230745   7.242   7.145  16.463
21225TIP3    H130746   7.317   7.188  16.419
21225TIP3    H230747   7.227   7.211  16.535
21226TIP3   OH230748   7.314   7.424  15.314
21226TIP3    H130749   7.218   7.411  15.312
21226TIP3    H230750   7.346   7.333  15.335
21227TIP3   OH230751   6.822   7.323  15.162
21227TIP3    H130752   6.730   7.297  15.139
21227TIP3    H230753   6.834   7.273  15.246
21228TIP3   OH230754   6.332   7.276  16.902
21228TIP3    H130755   6.394   7.224  16.958
21228TIP3    H230756   6.263   7.299  16.966
21229TIP3   OH230757   6.168   7.212  15.260
21229TIP3    H130758   6.202   7.139  15.206
21229TIP3    H230759   6.111   7.257  15.194
21230TIP3   OH230760   5.914   7.228  16.977
21230TIP3    H130761   5.960   7.156  16.931
21230TIP3    H230762   5.822   7.202  16.954
21231TIP3   OH230763   7.314   6.799  15.207
21231TIP3    H130764   7.328   6.703  15.217
21231TIP3    H230765   7.364   6.835  15.283
21232TIP3   OH230766   6.823   6.820  16.974
21232TIP3    H130767   6.777   6.799  16.891
21232TIP3    H230768   6.776   6.763  17.038
21233TIP3   OH230769   6.629   6.814  15.305
21233TIP3    H130770   6.650   6.864  15.387
21233TIP3    H230771   6.649   6.721  15.330
21234TIP3   OH230772   6.067   6.801  15.513
21234TIP3    H130773   5.991   6.863  15.520
21234TIP3    H230774   6.140   6.864  15.522
21235TIP3   OH230775   7.209   6.520  15.221
21235TIP3    H130776   7.145   6.450  15.222
21235TIP3    H230777   7.287   6.483  15.179
21236TIP3   OH230778   6.729   6.654  16.750
21236TIP3    H130779   6.799   6.600  16.708
21236TIP3    H230780   6.690   6.590  16.812
21237TIP3   OH230781   6.843   6.415  15.592
21237TIP3    H130782   6.889   6.500  15.571
21237TIP3    H230783   6.762   6.449  15.633
21238TIP3   OH230784   6.613   6.461  16.950
21238TIP3    H130785   6.589   6.481  17.043
21238TIP3    H230786   6.524   6.468  16.907
21239TIP3   OH230787   6.275   6.633  15.154
21239TIP3    H130788   6.193   6.619  15.203
21239TIP3    H230789   6.246   6.593  15.068
21240TIP3   OH230790   5.723   6.739   8.514
21240TIP3    H130791   5.756   6.754   8.604
21240TIP3    H230792   5.690   6.826   8.489
21241TIP3   OH230793   6.747   6.211  15.453
21241TIP3    H130794   6.736   6.136  15.514
21241TIP3    H230795   6.775   6.285  15.511
21242TIP3   OH230796   6.719   5.978  15.638
21242TIP3    H130797   6.669   6.036  15.701
21242TIP3    H230798   6.806   5.976  15.683
21243TIP3   OH230799   6.608   6.563  15.647
21243TIP3    H130800   6.523   6.597  15.681
21243TIP3    H230801   6.669   6.632  15.684
21244TIP3   OH230802   6.159   6.310  15.180
21244TIP3    H130803   6.224   6.308  15.107
21244TIP3    H230804   6.109   6.389  15.155
21245TIP3   OH230805   5.989   6.600  15.347
21245TIP3    H130806   6.021   6.677  15.399
21245TIP3    H230807   5.894   6.625  15.339
21246TIP3   OH230808   6.888   6.231  15.227
21246TIP3    H130809   6.975   6.203  15.259
21246TIP3    H230810   6.832   6.217  15.307
21247TIP3   OH230811   6.653   5.720  15.641
21247TIP3    H130812   6.681   5.814  15.641
21247TIP3    H230813   6.726   5.681  15.691
21248TIP3   OH230814   6.529   6.134  15.226
21248TIP3    H130815   6.588   6.133  15.147
21248TIP3    H230816   6.594   6.116  15.295
21249TIP3   OH230817   6.284   6.072  15.338
21249TIP3    H130818   6.369   6.104  15.299
21249TIP3    H230819   6.246   6.025  15.261
21250TIP3   OH230820   6.124   5.933  15.146
21250TIP3    H130821   6.111   5.836  15.163
21250TIP3    H230822   6.035   5.963  15.126
21251TIP3   OH230823   7.122   6.048  15.205
21251TIP3    H130824   7.111   5.975  15.269
21251TIP3    H230825   7.135   6.001  15.122
21252TIP3   OH230826   6.635   5.697  15.353
21252TIP3    H130827   6.566   5.627  15.345
21252TIP3    H230828   6.646   5.699  15.450
21253TIP3   OH230829   6.652   7.534  16.808
21253TIP3    H130830   6.567   7.579  16.797
21253TIP3    H230831   6.649   7.515  16.903
21254TIP3   OH230832   7.297   6.980  16.886
21254TIP3    H130833   7.201   6.989  16.877
21254TIP3    H230834   7.302   6.950  16.978
21255TIP3   OH230835   7.400   7.493  16.405
21255TIP3    H130836   7.484   7.446  16.423
21255TIP3    H230837   7.360   7.436  16.337
21256TIP3   OH230838   7.293   7.329  16.207
21256TIP3    H130839   7.364   7.283  16.158
21256TIP3    H230840   7.250   7.376  16.132
21257TIP3   OH230841   5.566   7.416  15.947
21257TIP3    H130842   5.548   7.397  15.854
21257TIP3    H230843   5.513   7.495  15.960
21258TIP3   OH230844   5.631   7.363  15.621
21258TIP3    H130845   5.675   7.292  15.674
21258TIP3    H230846   5.596   7.309  15.547
21259TIP3   OH230847   5.777   6.949  15.143
21259TIP3    H130848   5.868   6.967  15.110
21259TIP3    H230849   5.742   7.037  15.158
21260TIP3   OH230850   5.662   6.790  16.621
21260TIP3    H130851   5.573   6.829  16.608
21260TIP3    H230852   5.665   6.723  16.549
21261TIP3   OH230853   5.605   6.583  16.429
21261TIP3    H130854   5.684   6.550  16.380
21261TIP3    H230855   5.545   6.603  16.354
21262TIP3   OH230856   5.648   6.872  15.934
21262TIP3    H130857   5.577   6.809  15.961
21262TIP3    H230858   5.602   6.958  15.937
21263TIP3   OH230859   5.767   7.142  15.710
21263TIP3    H130860   5.840   7.178  15.657
21263TIP3    H230861   5.812   7.117  15.793
21264TIP3   OH230862   5.616   6.549  16.784
21264TIP3    H130863   5.672   6.570  16.860
21264TIP3    H230864   5.630   6.626  16.726
21265TIP3   OH230865   5.803   6.284  16.911
21265TIP3    H130866   5.734   6.320  16.970
21265TIP3    H230867   5.795   6.188  16.932
21266TIP3   OH230868   5.818   6.457  16.331
21266TIP3    H130869   5.840   6.369  16.366
21266TIP3    H230870   5.851   6.447  16.238
21267TIP3   OH230871   7.327   6.667  15.937
21267TIP3    H130872   7.328   6.634  16.030
21267TIP3    H230873   7.235   6.641  15.910
21268TIP3   OH230874   5.720   6.644  15.382
21268TIP3    H130875   5.666   6.562  15.373
21268TIP3    H230876   5.654   6.715  15.394
21269TIP3   OH230877   5.591   6.415  15.369
21269TIP3    H130878   5.678   6.371  15.382
21269TIP3    H230879   5.536   6.337  15.345
21270TIP3   OH230880   5.815   6.037  17.026
21270TIP3    H130881   5.764   5.987  16.958
21270TIP3    H230882   5.907   6.033  16.994
21271TIP3   OH230883   5.882   6.230  16.496
21271TIP3    H130884   5.844   6.147  16.460
21271TIP3    H230885   5.829   6.234  16.578
21272TIP3   OH230886   5.759   6.267  15.956
21272TIP3    H130887   5.661   6.266  15.949
21272TIP3    H230888   5.782   6.274  15.861
21273TIP3   OH230889   5.775   6.334  15.694
21273TIP3    H130890   5.850   6.353  15.634
21273TIP3    H230891   5.736   6.424  15.707
21274TIP3   OH230892   7.342   6.145  15.346
21274TIP3    H130893   7.258   6.109  15.316
21274TIP3    H230894   7.403   6.082  15.301
21275TIP3   OH230895   5.586   5.727  15.190
21275TIP3    H130896   5.535   5.659  15.237
21275TIP3    H230897   5.569   5.808  15.242
21276TIP3   OH230898   5.791   5.942  16.484
21276TIP3    H130899   5.761   5.895  16.404
21276TIP3    H230900   5.836   5.871  16.533
21277TIP3   OH230901   7.242   6.006  16.008
21277TIP3    H130902   7.209   5.913  16.011
21277TIP3    H230903   7.159   6.057  16.003
21278TIP3   OH230904   7.395   6.310  15.920
21278TIP3    H130905   7.339   6.283  15.996
21278TIP3    H230906   7.356   6.397  15.904
21279TIP3   OH230907   5.614   5.941  15.353
21279TIP3    H130908   5.705   5.980  15.354
21279TIP3    H230909   5.631   5.864  15.411
21280TIP3   OH230910   5.625   5.946  16.854
21280TIP3    H130911   5.580   5.886  16.917
21280TIP3    H230912   5.547   5.991  16.814
21281TIP3   OH230913   7.389   5.918  16.549
21281TIP3    H130914   7.485   5.929  16.535
21281TIP3    H230915   7.372   5.976  16.625
21282TIP3   OH230916   5.901   7.445  16.316
21282TIP3    H130917   5.834   7.418  16.382
21282TIP3    H230918   5.853   7.502  16.253
21283TIP3   OH230919   7.394   5.785  15.709
21283TIP3    H130920   7.453   5.744  15.643
21283TIP3    H230921   7.449   5.854  15.749
21284TIP3   OH230922   7.161   7.096  15.297
21284TIP3    H130923   7.235   7.049  15.339
21284TIP3    H230924   7.172   7.075  15.204
21285TIP3   OH230925   6.874   7.251  15.653
21285TIP3    H130926   6.867   7.345  15.682
21285TIP3    H230927   6.779   7.229  15.658
21286TIP3   OH230928   6.430   7.375  15.381
21286TIP3    H130929   6.413   7.353  15.288
21286TIP3    H230930   6.343   7.410  15.407
21287TIP3   OH230931   6.228   7.552  15.439
21287TIP3    H130932   6.146   7.518  15.478
21287TIP3    H230933   6.204   7.574  15.347
21288TIP3   OH230934   5.699   5.720  15.513
21288TIP3    H130935   5.765   5.762  15.570
21288TIP3    H230936   5.683   5.634  15.560
21289TIP3   OH230937   7.134   7.559  15.676
21289TIP3    H130938   7.208   7.620  15.699
21289TIP3    H230939   7.142   7.559  15.579
21290TIP3   OH230940   6.876   7.501  15.751
21290TIP3    H130941   6.971   7.510  15.727
21290TIP3    H230942   6.876   7.552  15.834
21291TIP3   OH230943   6.431   7.465  15.838
21291TIP3    H130944   6.482   7.512  15.905
21291TIP3    H230945   6.400   7.538  15.780
21292TIP3   OH230946   6.215   7.347  15.704
21292TIP3    H130947   6.278   7.390  15.764
21292TIP3    H230948   6.140   7.409  15.714
21293TIP3   OH230949   5.958   7.507  15.737
21293TIP3    H130950   5.946   7.598  15.774
21293TIP3    H230951   5.919   7.457  15.812
21294TIP3   OH230952   7.155   7.402  15.974
21294TIP3    H130953   7.190   7.338  15.910
21294TIP3    H230954   7.073   7.357  16.005
21295TIP3   OH230955   6.952   7.288  16.105
21295TIP3    H130956   6.965   7.194  16.081
21295TIP3    H230957   6.871   7.306  16.053
21296TIP3   OH230958   6.728   7.286  15.958
21296TIP3    H130959   6.692   7.200  15.986
21296TIP3    H230960   6.692   7.292  15.867
21297TIP3   OH230961   6.422   5.870  16.076
21297TIP3    H130962   6.503   5.814  16.059
21297TIP3    H230963   6.367   5.810  16.128
21298TIP3   OH230964   5.837   5.692  16.103
21298TIP3    H130965   5.771   5.743  16.156
21298TIP3    H230966   5.922   5.724  16.142
21299TIP3   OH230967   5.668   5.793  16.282
21299TIP3    H130968   5.603   5.741  16.335
21299TIP3    H230969   5.614   5.872  16.258
21300TIP3   OH230970   7.127   5.732  16.300
21300TIP3    H130971   7.206   5.716  16.355
21300TIP3    H230972   7.078   5.648  16.316
21301TIP3   OH230973   7.270   5.724  16.757
21301TIP3    H130974   7.202   5.780  16.801
21301TIP3    H230975   7.310   5.785  16.694
21302TIP3   OH230976   6.696   5.702  16.332
21302TIP3    H130977   6.606   5.706  16.365
21302TIP3    H230978   6.693   5.751  16.249
21303TIP3   OH230979   6.077   5.735  16.218
21303TIP3    H130980   6.120   5.765  16.298
21303TIP3    H230981   6.134   5.659  16.192
21304TIP3   OH230982   5.968   5.731  16.628
21304TIP3    H130983   6.049   5.772  16.659
21304TIP3    H230984   6.003   5.651  16.584
21305TIP3   OH230985   7.266   7.336  16.652
21305TIP3    H130986   7.354   7.336  16.696
21305TIP3    H230987   7.245   7.430  16.669
21306TIP3   OH230988   7.086   5.859  16.885
21306TIP3    H130989   7.000   5.827  16.917
21306TIP3    H230990   7.061   5.946  16.849
21307TIP3   OH230991   6.571   5.972  16.647
21307TIP3    H130992   6.534   5.911  16.582
21307TIP3    H230993   6.544   6.058  16.606
21308TIP3   OH230994   6.368   7.529  16.829
21308TIP3    H130995   6.281   7.549  16.868
21308TIP3    H230996   6.366   7.432  16.844
21309TIP3   OH230997   5.729   7.371  16.505
21309TIP3    H130998   5.745   7.295  16.566
21309TIP3    H230999   5.729   7.443  16.572
21310TIP3   OH231000   7.178   5.809  15.383
21310TIP3    H131001   7.226   5.725  15.372
21310TIP3    H231002   7.094   5.786  15.337
21311TIP3   OH231003   6.976   5.734  15.218
21311TIP3    H131004   6.887   5.755  15.250
21311TIP3    H231005   6.964   5.641  15.195
21312TIP3   OH231006   7.075   7.422  16.954
21312TIP3    H131007   7.138   7.474  16.902
21312TIP3    H231008   7.053   7.348  16.896
21313TIP3   OH231009   6.089   5.664  15.158
21313TIP3    H131010   6.134   5.594  15.210
21313TIP3    H231011   5.996   5.651  15.188
21314TIP3   OH231012   5.802   7.254  15.298
21314TIP3    H131013   5.869   7.250  15.371
21314TIP3    H231014   5.822   7.346  15.271
21315TIP3   OH231015   4.318   6.681  16.331
21315TIP3    H131016   4.327   6.778  16.324
21315TIP3    H231017   4.401   6.659  16.375
21316TIP3   OH231018   4.441   6.542  16.000
21316TIP3    H131019   4.448   6.504  15.909
21316TIP3    H231020   4.521   6.510  16.045
21317TIP3   OH231021   5.237   6.556  15.831
21317TIP3    H131022   5.235   6.478  15.774
21317TIP3    H231023   5.142   6.575  15.844
21318TIP3   OH231024   4.123   6.869  16.143
21318TIP3    H131025   4.145   6.798  16.080
21318TIP3    H231026   4.094   6.939  16.083
21319TIP3   OH231027   5.120   7.008  15.986
21319TIP3    H131028   5.160   6.926  16.021
21319TIP3    H231029   5.028   6.992  16.011
21320TIP3   OH231030   5.449   6.330  16.439
21320TIP3    H131031   5.485   6.420  16.427
21320TIP3    H231032   5.519   6.289  16.494
21321TIP3   OH231033   5.407   6.578  16.192
21321TIP3    H131034   5.368   6.492  16.165
21321TIP3    H231035   5.330   6.637  16.198
21322TIP3   OH231036   4.366   7.418  16.151
21322TIP3    H131037   4.301   7.362  16.200
21322TIP3    H231038   4.403   7.352  16.092
21323TIP3   OH231039   4.642   6.835  15.893
21323TIP3    H131040   4.615   6.819  15.985
21323TIP3    H231041   4.554   6.845  15.851
21324TIP3   OH231042   3.758   5.973  15.884
21324TIP3    H131043   3.752   6.027  15.801
21324TIP3    H231044   3.676   6.003  15.927
21325TIP3   OH231045   4.264   6.270  15.889
21325TIP3    H131046   4.247   6.177  15.870
21325TIP3    H231047   4.275   6.266  15.987
21326TIP3   OH231048   4.975   6.058  16.207
21326TIP3    H131049   4.955   6.138  16.260
21326TIP3    H231050   5.018   6.002  16.274
21327TIP3   OH231051   4.230   6.091  16.338
21327TIP3    H131052   4.174   6.054  16.265
21327TIP3    H231053   4.167   6.154  16.379
21328TIP3   OH231054   5.330   6.330  16.113
21328TIP3    H131055   5.271   6.283  16.051
21328TIP3    H231056   5.300   6.292  16.198
21329TIP3   OH231057   4.847   6.473  16.172
21329TIP3    H131058   4.763   6.428  16.147
21329TIP3    H231059   4.877   6.408  16.239
21330TIP3   OH231060   3.745   6.112  15.656
21330TIP3    H131061   3.777   6.199  15.691
21330TIP3    H231062   3.733   6.138  15.564
21331TIP3   OH231063   5.056   5.984  15.785
21331TIP3    H131064   5.104   6.032  15.855
21331TIP3    H231065   5.121   5.991  15.712
21332TIP3   OH231066   4.397   6.913  16.438
21332TIP3    H131067   4.417   6.916  16.533
21332TIP3    H231068   4.420   7.005  16.410
21333TIP3   OH231069   4.879   6.742  15.793
21333TIP3    H131070   4.932   6.811  15.747
21333TIP3    H231071   4.797   6.790  15.819
21334TIP3   OH231072   4.048   6.020  16.148
21334TIP3    H131073   4.037   5.961  16.072
21334TIP3    H231074   3.967   6.072  16.141
21335TIP3   OH231075   5.126   6.168  15.983
21335TIP3    H131076   5.063   6.232  15.943
21335TIP3    H231077   5.078   6.143  16.065
21336TIP3   OH231078   4.987   6.970  15.686
21336TIP3    H131079   5.007   7.030  15.759
21336TIP3    H231080   5.077   6.961  15.645
21337TIP3   OH231081   5.411   6.902  16.618
21337TIP3    H131082   5.401   6.951  16.702
21337TIP3    H231083   5.388   6.973  16.554
21338TIP3   OH231084   4.040   7.082  15.943
21338TIP3    H131085   4.132   7.106  15.916
21338TIP3    H231086   4.020   7.161  15.995
21339TIP3   OH231087   4.037   5.907  15.803
21339TIP3    H131088   4.116   5.933  15.857
21339TIP3    H231089   3.964   5.951  15.850
21340TIP3   OH231090   4.725   5.727  16.046
21340TIP3    H131091   4.758   5.636  16.052
21340TIP3    H231092   4.807   5.773  16.015
21341TIP3   OH231093   4.197   7.249  16.274
21341TIP3    H131094   4.172   7.168  16.324
21341TIP3    H231095   4.122   7.309  16.296
21342TIP3   OH231096   4.094   7.033  16.424
21342TIP3    H131097   4.106   6.969  16.497
21342TIP3    H231098   4.110   6.976  16.347
21343TIP3   OH231099   3.933   6.900  15.550
21343TIP3    H131100   3.913   6.823  15.608
21343TIP3    H231101   3.918   6.973  15.613
21344TIP3   OH231102   4.475   6.590  16.597
21344TIP3    H131103   4.537   6.664  16.614
21344TIP3    H231104   4.389   6.624  16.629
21345TIP3   OH231105   4.472   6.492  16.868
21345TIP3    H131106   4.418   6.512  16.789
21345TIP3    H231107   4.429   6.415  16.905
21346TIP3   OH231108   3.726   6.541  15.759
21346TIP3    H131109   3.785   6.620  15.760
21346TIP3    H231110   3.670   6.567  15.835
21347TIP3   OH231111   4.087   6.644  16.461
21347TIP3    H131112   4.168   6.656  16.406
21347TIP3    H231113   4.034   6.584  16.404
21348TIP3   OH231114   4.116   6.426  15.552
21348TIP3    H131115   4.114   6.522  15.537
21348TIP3    H231116   4.181   6.422  15.625
21349TIP3   OH231117   4.983   6.654  16.315
21349TIP3    H131118   4.993   6.611  16.403
21349TIP3    H231119   4.920   6.594  16.269
21350TIP3   OH231120   4.829   6.999  16.030
21350TIP3    H131121   4.816   6.978  16.124
21350TIP3    H231122   4.764   6.943  15.983
21351TIP3   OH231123   4.954   6.535  15.932
21351TIP3    H131124   4.911   6.528  16.021
21351TIP3    H231125   4.903   6.607  15.888
21352TIP3   OH231126   4.293   7.125  15.866
21352TIP3    H131127   4.352   7.177  15.810
21352TIP3    H231128   4.308   7.035  15.832
21353TIP3   OH231129   4.842   6.999  15.454
21353TIP3    H131130   4.907   7.059  15.412
21353TIP3    H231131   4.883   6.989  15.543
21354TIP3   OH231132   4.231   6.565  16.694
21354TIP3    H131133   4.174   6.596  16.620
21354TIP3    H231134   4.185   6.605  16.772
21355TIP3   OH231135   5.127   6.589  15.535
21355TIP3    H131136   5.112   6.657  15.466
21355TIP3    H231137   5.224   6.582  15.533
21356TIP3   OH231138   4.464   7.153  16.342
21356TIP3    H131139   4.439   7.219  16.277
21356TIP3    H231140   4.506   7.205  16.412
21357TIP3   OH231141   5.013   7.177  15.372
21357TIP3    H131142   5.016   7.206  15.465
21357TIP3    H231143   5.105   7.148  15.358
21358TIP3   OH231144   3.836   5.691  16.690
21358TIP3    H131145   3.933   5.696  16.705
21358TIP3    H231146   3.809   5.775  16.729
21359TIP3   OH231147   5.072   6.550  16.575
21359TIP3    H131148   5.119   6.631  16.602
21359TIP3    H231149   5.138   6.481  16.588
21360TIP3   OH231150   3.770   7.130  16.913
21360TIP3    H131151   3.737   7.221  16.907
21360TIP3    H231152   3.685   7.083  16.905
21361TIP3   OH231153   5.438   6.826  15.626
21361TIP3    H131154   5.472   6.812  15.715
21361TIP3    H231155   5.397   6.737  15.611
21362TIP3   OH231156   5.472   7.094  15.957
21362TIP3    H131157   5.391   7.044  15.942
21362TIP3    H231158   5.444   7.181  15.926
21363TIP3   OH231159   3.667   7.162  15.412
21363TIP3    H131160   3.683   7.066  15.411
21363TIP3    H231161   3.751   7.193  15.368
21364TIP3   OH231162   4.598   7.103  15.486
21364TIP3    H131163   4.576   7.160  15.410
21364TIP3    H231164   4.689   7.071  15.465
21365TIP3   OH231165   4.521   7.485  16.570
21365TIP3    H131166   4.511   7.510  16.665
21365TIP3    H231167   4.518   7.573  16.527
21366TIP3   OH231168   5.150   7.361  16.351
21366TIP3    H131169   5.130   7.332  16.259
21366TIP3    H231170   5.238   7.324  16.368
21367TIP3   OH231171   4.215   7.426  16.848
21367TIP3    H131172   4.158   7.351  16.875
21367TIP3    H231173   4.212   7.419  16.750
21368TIP3   OH231174   4.248   7.418  16.568
21368TIP3    H131175   4.345   7.429  16.558
21368TIP3    H231176   4.231   7.338  16.518
21369TIP3   OH231177   3.977   6.300  15.342
21369TIP3    H131178   4.024   6.335  15.421
21369TIP3    H231179   3.948   6.210  15.370
21370TIP3   OH231180   5.215   6.963  15.556
21370TIP3    H131181   5.200   6.925  15.468
21370TIP3    H231182   5.302   6.924  15.581
21371TIP3   OH231183   4.954   5.818  15.961
21371TIP3    H131184   5.046   5.807  15.994
21371TIP3    H231185   4.970   5.877  15.884
21372TIP3   OH231186   4.477   5.763  15.642
21372TIP3    H131187   4.445   5.726  15.557
21372TIP3    H231188   4.574   5.763  15.629
21373TIP3   OH231189   4.181   6.165  15.501
21373TIP3    H131190   4.240   6.141  15.424
21373TIP3    H231191   4.180   6.262  15.496
21374TIP3   OH231192   4.103   6.664  16.905
21374TIP3    H131193   4.096   6.656  17.001
21374TIP3    H231194   4.028   6.723  16.886
21375TIP3   OH231195   4.526   6.081  16.892
21375TIP3    H131196   4.577   6.075  16.809
21375TIP3    H231197   4.545   5.996  16.933
21376TIP3   OH231198   4.948   6.293  15.822
21376TIP3    H131199   5.028   6.290  15.766
21376TIP3    H231200   4.955   6.384  15.859
21377TIP3   OH231201   4.949   6.281  16.353
21377TIP3    H131202   5.046   6.279  16.363
21377TIP3    H231203   4.919   6.277  16.447
21378TIP3   OH231204   4.386   6.375  16.467
21378TIP3    H131205   4.420   6.455  16.513
21378TIP3    H231206   4.329   6.340  16.538
21379TIP3   OH231207   4.537   6.422  15.330
21379TIP3    H131208   4.555   6.329  15.306
21379TIP3    H231209   4.451   6.434  15.286
21380TIP3   OH231210   4.292   6.309  16.168
21380TIP3    H131211   4.309   6.395  16.209
21380TIP3    H231212   4.302   6.251  16.246
21381TIP3   OH231213   5.197   6.301  15.705
21381TIP3    H131214   5.167   6.340  15.621
21381TIP3    H231215   5.234   6.215  15.675
21382TIP3   OH231216   4.877   6.087  16.928
21382TIP3    H131217   4.906   6.019  16.864
21382TIP3    H231218   4.903   6.169  16.882
21383TIP3   OH231219   5.515   6.018  16.250
21383TIP3    H131220   5.452   6.028  16.176
21383TIP3    H231221   5.468   6.062  16.322
21384TIP3   OH231222   5.423   6.091  16.741
21384TIP3    H131223   5.353   6.124  16.801
21384TIP3    H231224   5.475   6.174  16.730
21385TIP3   OH231225   4.390   6.460  15.745
21385TIP3    H131226   4.336   6.390  15.790
21385TIP3    H231227   4.445   6.406  15.684
21386TIP3   OH231228   4.662   6.045  16.260
21386TIP3    H131229   4.753   6.045  16.226
21386TIP3    H231230   4.609   6.020  16.181
21387TIP3   OH231231   5.235   6.204  16.340
21387TIP3    H131232   5.306   6.243  16.397
21387TIP3    H231233   5.211   6.122  16.387
21388TIP3   OH231234   4.877   6.239  16.621
21388TIP3    H131235   4.781   6.250  16.614
21388TIP3    H231236   4.901   6.290  16.702
21389TIP3   OH231237   4.264   5.975  15.924
21389TIP3    H131238   4.336   5.968  15.858
21389TIP3    H231239   4.302   5.930  16.001
21390TIP3   OH231240   4.960   6.347  16.855
21390TIP3    H131241   5.018   6.331  16.931
21390TIP3    H231242   4.882   6.390  16.896
21391TIP3   OH231243   3.931   7.534  15.273
21391TIP3    H131244   3.894   7.561  15.360
21391TIP3    H231245   3.885   7.598  15.217
21392TIP3   OH231246   5.163   6.784  15.327
21392TIP3    H131247   5.114   6.839  15.263
21392TIP3    H231248   5.250   6.771  15.284
21393TIP3   OH231249   4.626   6.315  16.107
21393TIP3    H131250   4.530   6.297  16.104
21393TIP3    H231251   4.661   6.255  16.039
21394TIP3   OH231252   5.131   5.955  16.420
21394TIP3    H131253   5.171   5.885  16.363
21394TIP3    H231254   5.089   5.900  16.488
21395TIP3   OH231255   4.718   6.154  15.814
21395TIP3    H131256   4.797   6.212  15.815
21395TIP3    H231257   4.654   6.208  15.766
21396TIP3   OH231258   4.647   6.795  16.614
21396TIP3    H131259   4.722   6.744  16.655
21396TIP3    H231260   4.688   6.822  16.528
21397TIP3   OH231261   3.912   6.737  15.756
21397TIP3    H131262   3.861   6.798  15.815
21397TIP3    H231263   3.997   6.733  15.805
21398TIP3   OH231264   4.267   6.087  16.838
21398TIP3    H131265   4.355   6.104  16.877
21398TIP3    H231266   4.248   6.170  16.791
21399TIP3   OH231267   4.546   6.835  15.531
21399TIP3    H131268   4.551   6.822  15.435
21399TIP3    H231269   4.561   6.932  15.535
21400TIP3   OH231270   4.196   6.290  16.662
21400TIP3    H131271   4.133   6.270  16.591
21400TIP3    H231272   4.165   6.377  16.693
21401TIP3   OH231273   5.146   6.748  16.102
21401TIP3    H131274   5.091   6.739  16.183
21401TIP3    H231275   5.112   6.677  16.046
21402TIP3   OH231276   4.444   6.922  16.723
21402TIP3    H131277   4.481   7.008  16.697
21402TIP3    H231278   4.517   6.862  16.694
21403TIP3   OH231279   5.414   6.567  15.561
21403TIP3    H131280   5.446   6.521  15.480
21403TIP3    H231281   5.484   6.541  15.625
21404TIP3   OH231282   4.774   6.544  15.359
21404TIP3    H131283   4.808   6.486  15.430
21404TIP3    H231284   4.680   6.515  15.357
21405TIP3   OH231285   4.252   7.061  15.497
21405TIP3    H131286   4.320   7.091  15.559
21405TIP3    H231287   4.282   7.109  15.416
21406TIP3   OH231288   3.713   6.275  16.678
21406TIP3    H131289   3.778   6.273  16.751
21406TIP3    H231290   3.694   6.371  16.679
21407TIP3   OH231291   3.687   6.873  15.416
21407TIP3    H131292   3.780   6.889  15.446
21407TIP3    H231293   3.640   6.864  15.502
21408TIP3   OH231294   3.904   7.177  16.666
21408TIP3    H131295   3.916   7.088  16.629
21408TIP3    H231296   3.866   7.161  16.754
21409TIP3   OH231297   4.161   6.652  15.953
21409TIP3    H131298   4.254   6.627  15.965
21409TIP3    H231299   4.118   6.580  16.003
21410TIP3   OH231300   4.914   7.091  16.345
21410TIP3    H131301   4.899   7.186  16.366
21410TIP3    H231302   5.000   7.081  16.388
21411TIP3   OH231303   5.302   6.569  16.881
21411TIP3    H131304   5.256   6.630  16.819
21411TIP3    H231305   5.394   6.570  16.849
21412TIP3   OH231306   4.778   6.854  16.384
21412TIP3    H131307   4.821   6.941  16.373
21412TIP3    H231308   4.836   6.793  16.335
21413TIP3   OH231309   4.714   7.269  15.688
21413TIP3    H131310   4.648   7.336  15.716
21413TIP3    H231311   4.666   7.226  15.614
21414TIP3   OH231312   4.892   7.343  16.431
21414TIP3    H131313   4.988   7.355  16.414
21414TIP3    H231314   4.860   7.427  16.390
21415TIP3   OH231315   4.401   6.871  15.768
21415TIP3    H131316   4.437   6.843  15.681
21415TIP3    H231317   4.347   6.795  15.793
21416TIP3   OH231318   4.135   7.013  16.824
21416TIP3    H131319   4.092   6.957  16.755
21416TIP3    H231320   4.221   6.968  16.827
21417TIP3   OH231321   4.057   7.310  15.549
21417TIP3    H131322   4.150   7.283  15.543
21417TIP3    H231323   4.059   7.381  15.617
21418TIP3   OH231324   3.688   7.408  16.835
21418TIP3    H131325   3.645   7.482  16.881
21418TIP3    H231326   3.760   7.458  16.789
21419TIP3   OH231327   5.261   6.044  15.583
21419TIP3    H131328   5.317   6.098  15.525
21419TIP3    H231329   5.286   5.955  15.551
21420TIP3   OH231330   4.045   6.840  16.635
21420TIP3    H131331   4.072   6.770  16.570
21420TIP3    H231332   3.949   6.840  16.621
21421TIP3   OH231333   5.305   7.236  15.754
21421TIP3    H131334   5.244   7.162  15.742
21421TIP3    H231335   5.279   7.296  15.683
21422TIP3   OH231336   4.847   7.033  16.759
21422TIP3    H131337   4.780   6.990  16.703
21422TIP3    H231338   4.832   7.129  16.738
21423TIP3   OH231339   5.193   6.762  16.721
21423TIP3    H131340   5.258   6.804  16.661
21423TIP3    H231341   5.145   6.838  16.760
21424TIP3   OH231342   4.400   6.034  15.646
21424TIP3    H131343   4.316   6.047  15.599
21424TIP3    H231344   4.427   5.945  15.618
21425TIP3   OH231345   4.337   5.989  16.558
21425TIP3    H131346   4.292   6.036  16.629
21425TIP3    H231347   4.297   6.026  16.476
21426TIP3   OH231348   4.540   7.172  16.656
21426TIP3    H131349   4.605   7.243  16.645
21426TIP3    H231350   4.482   7.209  16.726
21427TIP3   OH231351   4.594   6.170  16.496
21427TIP3    H131352   4.532   6.244  16.476
21427TIP3    H231353   4.622   6.138  16.408
21428TIP3   OH231354   4.511   6.285  15.583
21428TIP3    H131355   4.514   6.307  15.487
21428TIP3    H231356   4.476   6.193  15.587
21429TIP3   OH231357   4.539   5.846  16.445
21429TIP3    H131358   4.570   5.912  16.379
21429TIP3    H231359   4.460   5.896  16.482
21430TIP3   OH231360   4.819   7.295  16.696
21430TIP3    H131361   4.791   7.381  16.733
21430TIP3    H231362   4.854   7.325  16.610
21431TIP3   OH231363   4.974   5.970  16.710
21431TIP3    H131364   4.971   6.050  16.655
21431TIP3    H231365   4.888   5.929  16.687
21432TIP3   OH231366   3.936   6.064  15.463
21432TIP3    H131367   4.032   6.072  15.485
21432TIP3    H231368   3.898   6.053  15.552
21433TIP3   OH231369   4.055   6.418  16.093
21433TIP3    H131370   4.128   6.353  16.095
21433TIP3    H231371   3.985   6.369  16.046
21434TIP3   OH231372   5.120   7.015  16.853
21434TIP3    H131373   5.040   7.042  16.803
21434TIP3    H231374   5.078   6.963  16.923
21435TIP3   OH231375   5.291   6.300  16.930
21435TIP3    H131376   5.273   6.395  16.919
21435TIP3    H231377   5.368   6.303  16.988
21436TIP3   OH231378   3.974   7.358  15.935
21436TIP3    H131379   3.956   7.430  16.000
21436TIP3    H231380   3.883   7.332  15.916
21437TIP3   OH231381   5.213   5.767  16.026
21437TIP3    H131382   5.218   5.750  16.123
21437TIP3    H231383   5.242   5.680  15.990
21438TIP3   OH231384   5.357   7.151  16.465
21438TIP3    H131385   5.431   7.193  16.419
21438TIP3    H231386   5.347   7.215  16.540
21439TIP3   OH231387   5.417   7.441  15.292
21439TIP3    H131388   5.342   7.414  15.236
21439TIP3    H231389   5.460   7.356  15.314
21440TIP3   OH231390   4.933   7.308  15.149
21440TIP3    H131391   4.839   7.284  15.142
21440TIP3    H231392   4.953   7.270  15.237
21441TIP3   OH231393   4.447   7.276  16.902
21441TIP3    H131394   4.509   7.219  16.953
21441TIP3    H231395   4.376   7.291  16.968
21442TIP3   OH231396   4.301   7.201  15.271
21442TIP3    H131397   4.334   7.118  15.228
21442TIP3    H231398   4.215   7.209  15.225
21443TIP3   OH231399   4.029   7.232  16.985
21443TIP3    H131400   4.071   7.161  16.931
21443TIP3    H231401   3.936   7.209  16.968
21444TIP3   OH231402   5.409   6.780  15.197
21444TIP3    H131403   5.444   6.690  15.203
21444TIP3    H231404   5.488   6.828  15.228
21445TIP3   OH231405   4.938   6.817  16.978
21445TIP3    H131406   4.874   6.808  16.906
21445TIP3    H231407   4.893   6.767  17.050
21446TIP3   OH231408   4.744   6.800  15.281
21446TIP3    H131409   4.768   6.855  15.358
21446TIP3    H231410   4.756   6.708  15.315
21447TIP3   OH231411   4.187   6.787  15.514
21447TIP3    H131412   4.099   6.831  15.509
21447TIP3    H231413   4.240   6.869  15.505
21448TIP3   OH231414   5.318   6.510  15.223
21448TIP3    H131415   5.236   6.520  15.273
21448TIP3    H231416   5.299   6.559  15.140
21449TIP3   OH231417   4.839   6.651  16.746
21449TIP3    H131418   4.914   6.601  16.708
21449TIP3    H231419   4.805   6.587  16.812
21450TIP3   OH231420   4.919   6.416  15.564
21450TIP3    H131421   4.988   6.483  15.546
21450TIP3    H231422   4.862   6.459  15.631
21451TIP3   OH231423   4.724   6.458  16.955
21451TIP3    H131424   4.694   6.463  17.048
21451TIP3    H231425   4.636   6.466  16.909
21452TIP3   OH231426   4.393   6.698  15.195
21452TIP3    H131427   4.340   6.647  15.258
21452TIP3    H231428   4.421   6.629  15.130
21453TIP3   OH231429   3.835   6.743   8.513
21453TIP3    H131430   3.868   6.760   8.602
21453TIP3    H231431   3.806   6.830   8.482
21454TIP3   OH231432   4.860   6.188  15.445
21454TIP3    H131433   4.852   6.118  15.512
21454TIP3    H231434   4.863   6.271  15.500
21455TIP3   OH231435   4.818   5.989  15.636
21455TIP3    H131436   4.762   6.040  15.699
21455TIP3    H231437   4.903   5.988  15.685
21456TIP3   OH231438   4.722   6.569  15.674
21456TIP3    H131439   4.638   6.613  15.688
21456TIP3    H231440   4.786   6.640  15.699
21457TIP3   OH231441   4.273   6.327  15.138
21457TIP3    H131442   4.265   6.237  15.101
21457TIP3    H231443   4.181   6.355  15.146
21458TIP3   OH231444   4.104   6.635  15.303
21458TIP3    H131445   4.143   6.683  15.379
21458TIP3    H231446   4.011   6.623  15.332
21459TIP3   OH231447   5.025   6.254  15.238
21459TIP3    H131448   5.110   6.212  15.263
21459TIP3    H231449   4.968   6.228  15.313
21460TIP3   OH231450   4.748   5.733  15.647
21460TIP3    H131451   4.779   5.826  15.639
21460TIP3    H231452   4.830   5.687  15.675
21461TIP3   OH231453   4.624   6.159  15.255
21461TIP3    H131454   4.662   6.132  15.170
21461TIP3    H231455   4.701   6.148  15.314
21462TIP3   OH231456   4.370   6.099  15.328
21462TIP3    H131457   4.463   6.106  15.301
21462TIP3    H231458   4.334   6.042  15.257
21463TIP3   OH231459   4.229   5.947  15.145
21463TIP3    H131460   4.229   5.849  15.155
21463TIP3    H231461   4.238   5.959  15.049
21464TIP3   OH231462   5.241   6.084  15.248
21464TIP3    H131463   5.236   5.994  15.283
21464TIP3    H231464   5.259   6.075  15.153
21465TIP3   OH231465   4.789   5.672  15.372
21465TIP3    H131466   4.732   5.594  15.359
21465TIP3    H231467   4.775   5.686  15.468
21466TIP3   OH231468   4.772   5.890  15.201
21466TIP3    H131469   4.757   5.809  15.253
21466TIP3    H231470   4.862   5.910  15.229
21467TIP3   OH231471   4.770   7.539  16.803
21467TIP3    H131472   4.681   7.578  16.792
21467TIP3    H231473   4.768   7.525  16.899
21468TIP3   OH231474   5.420   6.994  16.897
21468TIP3    H131475   5.322   6.997  16.888
21468TIP3    H231476   5.427   6.958  16.987
21469TIP3   OH231477   5.509   7.488  16.406
21469TIP3    H131478   5.593   7.445  16.435
21469TIP3    H231479   5.488   7.435  16.327
21470TIP3   OH231480   5.441   7.326  16.193
21470TIP3    H131481   5.503   7.263  16.150
21470TIP3    H231482   5.389   7.357  16.116
21471TIP3   OH231483   3.690   7.390  15.944
21471TIP3    H131484   3.655   7.425  15.860
21471TIP3    H231485   3.657   7.455  16.009
21472TIP3   OH231486   3.743   7.350  15.626
21472TIP3    H131487   3.781   7.280  15.682
21472TIP3    H231488   3.715   7.295  15.550
21473TIP3   OH231489   3.873   6.951  15.141
21473TIP3    H131490   3.961   6.952  15.098
21473TIP3    H231491   3.834   7.027  15.092
21474TIP3   OH231492   3.769   6.784  16.620
21474TIP3    H131493   3.684   6.831  16.605
21474TIP3    H231494   3.767   6.718  16.546
21475TIP3   OH231495   3.732   6.590  16.424
21475TIP3    H131496   3.812   6.554  16.376
21475TIP3    H231497   3.671   6.602  16.349
21476TIP3   OH231498   3.756   6.867  15.926
21476TIP3    H131499   3.690   6.801  15.956
21476TIP3    H231500   3.707   6.951  15.938
21477TIP3   OH231501   3.890   7.136  15.710
21477TIP3    H131502   3.957   7.186  15.659
21477TIP3    H231503   3.941   7.113  15.791
21478TIP3   OH231504   3.708   6.561  16.800
21478TIP3    H131505   3.775   6.581  16.868
21478TIP3    H231506   3.731   6.627  16.732
21479TIP3   OH231507   3.916   6.279  16.902
21479TIP3    H131508   3.851   6.322  16.961
21479TIP3    H231509   3.899   6.185  16.926
21480TIP3   OH231510   3.942   6.461  16.328
21480TIP3    H131511   3.956   6.372  16.362
21480TIP3    H231512   3.968   6.450  16.233
21481TIP3   OH231513   5.445   6.680  15.939
21481TIP3    H131514   5.443   6.637  16.028
21481TIP3    H231515   5.360   6.646  15.902
21482TIP3   OH231516   3.830   6.636  15.377
21482TIP3    H131517   3.786   6.549  15.385
21482TIP3    H231518   3.759   6.701  15.396
21483TIP3   OH231519   3.730   6.378  15.387
21483TIP3    H131520   3.820   6.364  15.349
21483TIP3    H231521   3.683   6.300  15.349
21484TIP3   OH231522   3.933   6.038  17.016
21484TIP3    H131523   3.883   5.986  16.950
21484TIP3    H231524   4.025   6.035  16.985
21485TIP3   OH231525   3.995   6.213  16.489
21485TIP3    H131526   3.966   6.124  16.459
21485TIP3    H231527   3.942   6.220  16.570
21486TIP3   OH231528   3.884   6.260  15.949
21486TIP3    H131529   3.786   6.266  15.940
21486TIP3    H231530   3.909   6.272  15.855
21487TIP3   OH231531   3.888   6.332  15.682
21487TIP3    H131532   3.965   6.359  15.629
21487TIP3    H231533   3.843   6.419  15.698
21488TIP3   OH231534   5.494   6.173  15.319
21488TIP3    H131535   5.403   6.158  15.286
21488TIP3    H231536   5.530   6.082  15.324
21489TIP3   OH231537   3.657   5.768  15.169
21489TIP3    H131538   3.624   5.695  15.223
21489TIP3    H231539   3.676   5.838  15.235
21490TIP3   OH231540   3.911   5.937  16.483
21490TIP3    H131541   3.871   5.892  16.405
21490TIP3    H231542   3.954   5.863  16.530
21491TIP3   OH231543   5.353   6.005  16.005
21491TIP3    H131544   5.313   5.915  16.006
21491TIP3    H231545   5.274   6.062  15.995
21492TIP3   OH231546   5.499   6.302  15.911
21492TIP3    H131547   5.454   6.273  15.992
21492TIP3    H231548   5.460   6.389  15.901
21493TIP3   OH231549   3.713   5.923  15.377
21493TIP3    H131550   3.800   5.964  15.359
21493TIP3    H231551   3.738   5.865  15.452
21494TIP3   OH231552   3.736   5.943  16.850
21494TIP3    H131553   3.694   5.881  16.912
21494TIP3    H231554   3.657   5.991  16.818
21495TIP3   OH231555   5.502   5.908  16.554
21495TIP3    H131556   5.590   5.935  16.524
21495TIP3    H231557   5.484   5.972  16.626
21496TIP3   OH231558   4.022   7.432  16.334
21496TIP3    H131559   3.946   7.416  16.393
21496TIP3    H231560   3.985   7.489  16.265
21497TIP3   OH231561   5.492   5.785  15.700
21497TIP3    H131562   5.546   5.749  15.628
21497TIP3    H231563   5.551   5.850  15.742
21498TIP3   OH231564   5.257   7.095  15.283
21498TIP3    H131565   5.318   7.144  15.340
21498TIP3    H231566   5.320   7.047  15.227
21499TIP3   OH231567   4.979   7.264  15.634
21499TIP3    H131568   4.980   7.358  15.663
21499TIP3    H231569   4.888   7.242  15.660
21500TIP3   OH231570   4.580   7.391  15.370
21500TIP3    H131571   4.547   7.335  15.300
21500TIP3    H231572   4.494   7.427  15.403
21501TIP3   OH231573   4.355   7.535  15.434
21501TIP3    H131574   4.285   7.510  15.497
21501TIP3    H231575   4.303   7.556  15.353
21502TIP3   OH231576   3.840   5.740  15.521
21502TIP3    H131577   3.904   5.786  15.576
21502TIP3    H231578   3.843   5.649  15.557
21503TIP3   OH231579   5.243   7.551  15.675
21503TIP3    H131580   5.318   7.608  15.702
21503TIP3    H231581   5.252   7.550  15.578
21504TIP3   OH231582   4.998   7.509  15.767
21504TIP3    H131583   5.093   7.526  15.745
21504TIP3    H231584   4.987   7.566  15.846
21505TIP3   OH231585   4.545   7.462  15.834
21505TIP3    H131586   4.597   7.505  15.903
21505TIP3    H231587   4.525   7.539  15.776
21506TIP3   OH231588   4.320   7.353  15.685
21506TIP3    H131589   4.383   7.399  15.743
21506TIP3    H231590   4.239   7.399  15.716
21507TIP3   OH231591   4.083   7.501  15.742
21507TIP3    H131592   4.065   7.596  15.758
21507TIP3    H231593   4.047   7.463  15.825
21508TIP3   OH231594   5.277   7.397  15.977
21508TIP3    H131595   5.296   7.338  15.901
21508TIP3    H231596   5.190   7.363  16.008
21509TIP3   OH231597   5.066   7.286  16.097
21509TIP3    H131598   5.076   7.192  16.070
21509TIP3    H231599   4.979   7.304  16.056
21510TIP3   OH231600   4.830   7.282  15.977
21510TIP3    H131601   4.805   7.188  15.989
21510TIP3    H231602   4.805   7.295  15.884
21511TIP3   OH231603   4.507   5.887  16.080
21511TIP3    H131604   4.591   5.850  16.049
21511TIP3    H231605   4.471   5.810  16.128
21512TIP3   OH231606   3.943   5.683  16.099
21512TIP3    H131607   3.885   5.744  16.150
21512TIP3    H231608   4.034   5.716  16.118
21513TIP3   OH231609   3.791   5.801  16.281
21513TIP3    H131610   3.729   5.740  16.328
21513TIP3    H231611   3.732   5.877  16.260
21514TIP3   OH231612   5.231   5.727  16.303
21514TIP3    H131613   5.314   5.715  16.354
21514TIP3    H231614   5.190   5.639  16.315
21515TIP3   OH231615   5.381   5.723  16.755
21515TIP3    H131616   5.323   5.785  16.805
21515TIP3    H231617   5.424   5.782  16.690
21516TIP3   OH231618   4.811   5.698  16.318
21516TIP3    H131619   4.725   5.705  16.361
21516TIP3    H231620   4.796   5.742  16.232
21517TIP3   OH231621   4.201   5.744  16.178
21517TIP3    H131622   4.228   5.774  16.265
21517TIP3    H231623   4.255   5.662  16.167
21518TIP3   OH231624   4.086   5.730  16.645
21518TIP3    H131625   4.166   5.783  16.645
21518TIP3    H231626   4.119   5.649  16.598
21519TIP3   OH231627   5.377   7.336  16.655
21519TIP3    H131628   5.466   7.337  16.695
21519TIP3    H231629   5.356   7.430  16.671
21520TIP3   OH231630   5.202   5.862  16.890
21520TIP3    H131631   5.117   5.818  16.907
21520TIP3    H231632   5.175   5.946  16.851
21521TIP3   OH231633   4.684   5.969  16.648
21521TIP3    H131634   4.641   5.905  16.589
21521TIP3    H231635   4.656   6.052  16.602
21522TIP3   OH231636   4.481   7.525  16.828
21522TIP3    H131637   4.394   7.541  16.870
21522TIP3    H231638   4.481   7.428  16.844
21523TIP3   OH231639   3.836   7.369  16.508
21523TIP3    H131640   3.857   7.293  16.568
21523TIP3    H231641   3.842   7.441  16.574
21524TIP3   OH231642   5.289   5.810  15.398
21524TIP3    H131643   5.337   5.727  15.380
21524TIP3    H231644   5.209   5.798  15.344
21525TIP3   OH231645   5.057   5.783  15.187
21525TIP3    H131646   4.975   5.743  15.222
21525TIP3    H231647   5.101   5.706  15.146
21526TIP3   OH231648   5.179   7.434  16.940
21526TIP3    H131649   5.250   7.474  16.888
21526TIP3    H231650   5.166   7.349  16.895
21527TIP3   OH231651   4.214   5.673  15.160
21527TIP3    H131652   4.204   5.605  15.093
21527TIP3    H231653   4.130   5.661  15.211
21528TIP3   OH231654   3.891   7.275  15.345
21528TIP3    H131655   3.961   7.268  15.414
21528TIP3    H231656   3.905   7.367  15.316
21529TIP3   OH231657   2.449   6.675  16.331
21529TIP3    H131658   2.464   6.770  16.347
21529TIP3    H231659   2.523   6.636  16.379
21530TIP3   OH231660   2.562   6.539  15.994
21530TIP3    H131661   2.575   6.501  15.905
21530TIP3    H231662   2.636   6.503  16.046
21531TIP3   OH231663   3.345   6.550  15.820
21531TIP3    H131664   3.334   6.470  15.765
21531TIP3    H231665   3.254   6.569  15.847
21532TIP3   OH231666   2.248   6.871  16.156
21532TIP3    H131667   2.269   6.800  16.093
21532TIP3    H231668   2.210   6.937  16.097
21533TIP3   OH231669   3.228   7.008  15.989
21533TIP3    H131670   3.271   6.926  16.019
21533TIP3    H231671   3.137   6.992  16.016
21534TIP3   OH231672   3.571   6.339  16.439
21534TIP3    H131673   3.606   6.428  16.425
21534TIP3    H231674   3.627   6.307  16.512
21535TIP3   OH231675   3.514   6.588  16.184
21535TIP3    H131676   3.475   6.500  16.164
21535TIP3    H231677   3.437   6.647  16.196
21536TIP3   OH231678   2.476   7.426  16.150
21536TIP3    H131679   2.414   7.365  16.194
21536TIP3    H231680   2.523   7.365  16.092
21537TIP3   OH231681   2.750   6.838  15.899
21537TIP3    H131682   2.723   6.809  15.988
21537TIP3    H231683   2.662   6.852  15.858
21538TIP3   OH231684   1.895   5.985  15.907
21538TIP3    H131685   1.886   6.043  15.829
21538TIP3    H231686   1.807   5.999  15.946
21539TIP3   OH231687   2.389   6.285  15.875
21539TIP3    H131688   2.360   6.193  15.861
21539TIP3    H231689   2.417   6.283  15.968
21540TIP3   OH231690   3.091   6.058  16.215
21540TIP3    H131691   3.073   6.140  16.266
21540TIP3    H231692   3.137   6.005  16.283
21541TIP3   OH231693   2.340   6.095  16.330
21541TIP3    H131694   2.278   6.060  16.262
21541TIP3    H231695   2.285   6.160  16.376
21542TIP3   OH231696   3.449   6.330  16.116
21542TIP3    H131697   3.393   6.277  16.057
21542TIP3    H231698   3.425   6.290  16.202
21543TIP3   OH231699   2.954   6.480  16.171
21543TIP3    H131700   2.875   6.434  16.136
21543TIP3    H231701   2.978   6.415  16.239
21544TIP3   OH231702   1.870   6.109  15.666
21544TIP3    H131703   1.904   6.199  15.687
21544TIP3    H231704   1.826   6.124  15.581
21545TIP3   OH231705   3.177   5.975  15.794
21545TIP3    H131706   3.225   6.026  15.864
21545TIP3    H231707   3.239   5.984  15.719
21546TIP3   OH231708   2.508   6.906  16.445
21546TIP3    H131709   2.520   6.913  16.542
21546TIP3    H231710   2.553   6.987  16.412
21547TIP3   OH231711   2.984   6.742  15.800
21547TIP3    H131712   3.037   6.817  15.765
21547TIP3    H231713   2.904   6.790  15.833
21548TIP3   OH231714   2.132   6.021  16.168
21548TIP3    H131715   2.130   5.960  16.093
21548TIP3    H231716   2.065   6.084  16.139
21549TIP3   OH231717   3.242   6.163  15.991
21549TIP3    H131718   3.181   6.229  15.949
21549TIP3    H231719   3.191   6.141  16.072
21550TIP3   OH231720   3.095   6.961  15.690
21550TIP3    H131721   3.128   7.025  15.756
21550TIP3    H231722   3.181   6.939  15.645
21551TIP3   OH231723   3.526   6.906  16.610
21551TIP3    H131724   3.513   6.958  16.692
21551TIP3    H231725   3.511   6.972  16.539
21552TIP3   OH231726   2.147   7.085  15.924
21552TIP3    H131727   2.243   7.100  15.910
21552TIP3    H231728   2.125   7.169  15.969
21553TIP3   OH231729   2.148   5.894  15.809
21553TIP3    H131730   2.228   5.905  15.864
21553TIP3    H231731   2.079   5.933  15.865
21554TIP3   OH231732   2.841   5.726  16.055
21554TIP3    H131733   2.867   5.634  16.069
21554TIP3    H231734   2.929   5.763  16.026
21555TIP3   OH231735   2.318   7.258  16.279
21555TIP3    H131736   2.290   7.176  16.326
21555TIP3    H231737   2.237   7.314  16.292
21556TIP3   OH231738   2.222   7.038  16.424
21556TIP3    H131739   2.230   6.973  16.496
21556TIP3    H231740   2.238   6.982  16.346
21557TIP3   OH231741   2.049   6.903  15.551
21557TIP3    H131742   2.027   6.831  15.615
21557TIP3    H231743   2.040   6.980  15.610
21558TIP3   OH231744   2.591   6.589  16.589
21558TIP3    H131745   2.658   6.659  16.608
21558TIP3    H231746   2.509   6.625  16.628
21559TIP3   OH231747   2.586   6.490  16.871
21559TIP3    H131748   2.529   6.506  16.793
21559TIP3    H231749   2.544   6.414  16.913
21560TIP3   OH231750   1.861   6.555  15.780
21560TIP3    H131751   1.914   6.636  15.771
21560TIP3    H231752   1.794   6.584  15.846
21561TIP3   OH231753   2.205   6.637  16.467
21561TIP3    H131754   2.283   6.650  16.408
21561TIP3    H231755   2.150   6.577  16.412
21562TIP3   OH231756   2.238   6.429  15.555
21562TIP3    H131757   2.264   6.513  15.514
21562TIP3    H231758   2.289   6.435  15.637
21563TIP3   OH231759   3.108   6.652  16.316
21563TIP3    H131760   3.111   6.613  16.405
21563TIP3    H231761   3.042   6.597  16.270
21564TIP3   OH231762   2.936   7.001  16.039
21564TIP3    H131763   2.914   6.981  16.131
21564TIP3    H231764   2.871   6.948  15.988
21565TIP3   OH231765   3.078   6.539  15.935
21565TIP3    H131766   3.035   6.531  16.023
21565TIP3    H231767   3.023   6.608  15.891
21566TIP3   OH231768   2.407   7.107  15.861
21566TIP3    H131769   2.456   7.160  15.797
21566TIP3    H231770   2.417   7.016  15.826
21567TIP3   OH231771   2.956   6.985  15.456
21567TIP3    H131772   3.031   7.040  15.424
21567TIP3    H231773   2.985   6.973  15.550
21568TIP3   OH231774   2.354   6.569  16.697
21568TIP3    H131775   2.297   6.587  16.619
21568TIP3    H231776   2.304   6.611  16.771
21569TIP3   OH231777   3.239   6.561  15.538
21569TIP3    H131778   3.218   6.637  15.481
21569TIP3    H231779   3.336   6.565  15.532
21570TIP3   OH231780   2.587   7.145  16.340
21570TIP3    H131781   2.542   7.206  16.281
21570TIP3    H231782   2.622   7.203  16.408
21571TIP3   OH231783   3.131   7.162  15.382
21571TIP3    H131784   3.135   7.203  15.472
21571TIP3    H231785   3.225   7.134  15.371
21572TIP3   OH231786   1.953   5.691  16.690
21572TIP3    H131787   2.051   5.698  16.686
21572TIP3    H231788   1.931   5.776  16.731
21573TIP3   OH231789   3.191   6.555  16.580
21573TIP3    H131790   3.236   6.638  16.607
21573TIP3    H231791   3.263   6.491  16.577
21574TIP3   OH231792   1.882   7.118  16.910
21574TIP3    H131793   1.853   7.211  16.906
21574TIP3    H231794   1.795   7.073  16.901
21575TIP3   OH231795   3.565   6.832  15.651
21575TIP3    H131796   3.610   6.831  15.737
21575TIP3    H231797   3.525   6.743  15.654
21576TIP3   OH231798   3.593   7.090  15.968
21576TIP3    H131799   3.500   7.100  15.944
21576TIP3    H231800   3.627   7.178  15.947
21577TIP3   OH231801   1.769   7.146  15.408
21577TIP3    H131802   1.784   7.052  15.426
21577TIP3    H231803   1.855   7.168  15.366
21578TIP3   OH231804   2.713   7.107  15.490
21578TIP3    H131805   2.697   7.187  15.437
21578TIP3    H231806   2.809   7.087  15.479
21579TIP3   OH231807   2.616   7.483  16.571
21579TIP3    H131808   2.620   7.504  16.667
21579TIP3    H231809   2.623   7.572  16.531
21580TIP3   OH231810   3.261   7.367  16.347
21580TIP3    H131811   3.238   7.333  16.258
21580TIP3    H231812   3.347   7.324  16.365
21581TIP3   OH231813   2.331   7.425  16.845
21581TIP3    H131814   2.271   7.352  16.866
21581TIP3    H231815   2.329   7.422  16.747
21582TIP3   OH231816   2.354   7.414  16.564
21582TIP3    H131817   2.451   7.431  16.555
21582TIP3    H231818   2.344   7.331  16.514
21583TIP3   OH231819   2.086   6.290  15.362
21583TIP3    H131820   2.141   6.335  15.430
21583TIP3    H231821   2.071   6.200  15.398
21584TIP3   OH231822   3.335   6.950  15.581
21584TIP3    H131823   3.334   6.920  15.488
21584TIP3    H231824   3.423   6.916  15.609
21585TIP3   OH231825   3.075   5.807  15.969
21585TIP3    H131826   3.167   5.805  16.000
21585TIP3    H231827   3.086   5.864  15.890
21586TIP3   OH231828   2.582   5.763  15.648
21586TIP3    H131829   2.556   5.723  15.563
21586TIP3    H231830   2.680   5.770  15.644
21587TIP3   OH231831   2.323   6.148  15.497
21587TIP3    H131832   2.381   6.113  15.425
21587TIP3    H231833   2.344   6.243  15.498
21588TIP3   OH231834   2.215   6.661  16.908
21588TIP3    H131835   2.214   6.670  17.004
21588TIP3    H231836   2.134   6.710  16.886
21589TIP3   OH231837   2.638   6.078  16.891
21589TIP3    H131838   2.692   6.075  16.810
21589TIP3    H231839   2.664   5.995  16.935
21590TIP3   OH231840   3.060   6.289  15.841
21590TIP3    H131841   3.138   6.291  15.782
21590TIP3    H231842   3.063   6.379  15.879
21591TIP3   OH231843   3.062   6.284  16.354
21591TIP3    H131844   3.159   6.290  16.364
21591TIP3    H231845   3.033   6.266  16.446
21592TIP3   OH231846   2.500   6.374  16.465
21592TIP3    H131847   2.535   6.455  16.510
21592TIP3    H231848   2.444   6.338  16.537
21593TIP3   OH231849   2.637   6.413  15.344
21593TIP3    H131850   2.661   6.323  15.312
21593TIP3    H231851   2.567   6.434  15.281
21594TIP3   OH231852   2.417   6.319  16.156
21594TIP3    H131853   2.431   6.396  16.213
21594TIP3    H231854   2.426   6.247  16.221
21595TIP3   OH231855   3.302   6.295  15.706
21595TIP3    H131856   3.282   6.330  15.617
21595TIP3    H231857   3.342   6.209  15.685
21596TIP3   OH231858   2.998   6.084  16.931
21596TIP3    H131859   3.019   6.014  16.866
21596TIP3    H231860   3.017   6.165  16.879
21597TIP3   OH231861   3.635   6.019  16.256
21597TIP3    H131862   3.561   6.033  16.194
21597TIP3    H231863   3.589   6.009  16.340
21598TIP3   OH231864   3.528   6.084  16.740
21598TIP3    H131865   3.463   6.120  16.803
21598TIP3    H231866   3.582   6.165  16.723
21599TIP3   OH231867   2.515   6.481  15.735
21599TIP3    H131868   2.459   6.415  15.782
21599TIP3    H231869   2.571   6.420  15.681
21600TIP3   OH231870   2.779   6.044  16.259
21600TIP3    H131871   2.873   6.042  16.237
21600TIP3    H231872   2.735   6.022  16.175
21601TIP3   OH231873   3.352   6.206  16.341
21601TIP3    H131874   3.424   6.241  16.398
21601TIP3    H231875   3.325   6.124  16.386
21602TIP3   OH231876   2.986   6.230  16.614
21602TIP3    H131877   2.890   6.244  16.609
21602TIP3    H231878   3.014   6.284  16.691
21603TIP3   OH231879   2.368   5.980  15.935
21603TIP3    H131880   2.433   5.988  15.861
21603TIP3    H231881   2.416   5.930  16.003
21604TIP3   OH231882   3.067   6.333  16.852
21604TIP3    H131883   3.129   6.324  16.927
21604TIP3    H231884   2.993   6.383  16.893
21605TIP3   OH231885   2.064   7.516  15.261
21605TIP3    H131886   2.023   7.557  15.340
21605TIP3    H231887   2.001   7.541  15.193
21606TIP3   OH231888   3.293   6.788  15.354
21606TIP3    H131889   3.225   6.820  15.289
21606TIP3    H231890   3.373   6.788  15.297
21607TIP3   OH231891   2.730   6.330  16.093
21607TIP3    H131892   2.637   6.306  16.109
21607TIP3    H231893   2.758   6.268  16.024
21608TIP3   OH231894   3.247   5.956  16.418
21608TIP3    H131895   3.283   5.881  16.366
21608TIP3    H231896   3.206   5.910  16.494
21609TIP3   OH231897   2.831   6.154  15.819
21609TIP3    H131898   2.910   6.213  15.823
21609TIP3    H231899   2.766   6.209  15.772
21610TIP3   OH231900   2.766   6.790  16.612
21610TIP3    H131901   2.842   6.742  16.652
21610TIP3    H231902   2.807   6.820  16.527
21611TIP3   OH231903   2.034   6.756  15.768
21611TIP3    H131904   1.982   6.813  15.830
21611TIP3    H231905   2.116   6.744  15.818
21612TIP3   OH231906   2.378   6.087  16.839
21612TIP3    H131907   2.467   6.099  16.878
21612TIP3    H231908   2.368   6.170  16.791
21613TIP3   OH231909   2.651   6.844  15.534
21613TIP3    H131910   2.664   6.805  15.447
21613TIP3    H231911   2.684   6.936  15.521
21614TIP3   OH231912   2.318   6.293  16.658
21614TIP3    H131913   2.249   6.271  16.593
21614TIP3    H231914   2.282   6.374  16.697
21615TIP3   OH231915   3.259   6.747  16.098
21615TIP3    H131916   3.206   6.739  16.179
21615TIP3    H231917   3.220   6.677  16.043
21616TIP3   OH231918   2.556   6.925  16.720
21616TIP3    H131919   2.598   7.011  16.699
21616TIP3    H231920   2.628   6.864  16.692
21617TIP3   OH231921   3.547   6.557  15.540
21617TIP3    H131922   3.577   6.502  15.465
21617TIP3    H231923   3.605   6.524  15.612
21618TIP3   OH231924   2.875   6.538  15.360
21618TIP3    H131925   2.920   6.488  15.431
21618TIP3    H231926   2.786   6.497  15.361
21619TIP3   OH231927   2.362   7.062  15.501
21619TIP3    H131928   2.441   7.082  15.553
21619TIP3    H231929   2.381   7.117  15.422
21620TIP3   OH231930   1.832   6.278  16.673
21620TIP3    H131931   1.891   6.271  16.751
21620TIP3    H231932   1.814   6.375  16.678
21621TIP3   OH231933   1.803   6.861  15.420
21621TIP3    H131934   1.894   6.882  15.451
21621TIP3    H231935   1.755   6.848  15.506
21622TIP3   OH231936   2.005   7.165  16.670
21622TIP3    H131937   2.030   7.080  16.632
21622TIP3    H231938   1.966   7.144  16.757
21623TIP3   OH231939   2.269   6.657  15.955
21623TIP3    H131940   2.361   6.625  15.960
21623TIP3    H231941   2.223   6.585  16.003
21624TIP3   OH231942   3.027   7.093  16.354
21624TIP3    H131943   3.013   7.189  16.367
21624TIP3    H231944   3.114   7.083  16.394
21625TIP3   OH231945   3.418   6.562  16.876
21625TIP3    H131946   3.382   6.633  16.819
21625TIP3    H231947   3.514   6.567  16.860
21626TIP3   OH231948   2.889   6.858  16.381
21626TIP3    H131949   2.935   6.946  16.376
21626TIP3    H231950   2.945   6.800  16.327
21627TIP3   OH231951   2.819   7.278  15.698
21627TIP3    H131952   2.758   7.345  15.736
21627TIP3    H231953   2.762   7.235  15.632
21628TIP3   OH231954   3.000   7.350  16.426
21628TIP3    H131955   3.096   7.361  16.408
21628TIP3    H231956   2.967   7.433  16.385
21629TIP3   OH231957   2.508   6.860  15.765
21629TIP3    H131958   2.546   6.839  15.677
21629TIP3    H231959   2.476   6.773  15.794
21630TIP3   OH231960   2.251   7.012  16.822
21630TIP3    H131961   2.212   6.954  16.754
21630TIP3    H231962   2.340   6.972  16.826
21631TIP3   OH231963   2.179   7.312  15.540
21631TIP3    H131964   2.267   7.279  15.565
21631TIP3    H231965   2.167   7.383  15.609
21632TIP3   OH231966   1.804   7.408  16.824
21632TIP3    H131967   1.757   7.470  16.882
21632TIP3    H231968   1.872   7.466  16.784
21633TIP3   OH231969   3.371   6.032  15.588
21633TIP3    H131970   3.421   6.089  15.527
21633TIP3    H231971   3.394   5.944  15.553
21634TIP3   OH231972   2.161   6.838  16.632
21634TIP3    H131973   2.179   6.756  16.580
21634TIP3    H231974   2.064   6.845  16.619
21635TIP3   OH231975   3.413   7.226  15.766
21635TIP3    H131976   3.344   7.160  15.757
21635TIP3    H231977   3.423   7.257  15.675
21636TIP3   OH231978   2.962   7.034  16.755
21636TIP3    H131979   2.896   6.989  16.700
21636TIP3    H231980   2.943   7.129  16.735
21637TIP3   OH231981   3.313   6.762  16.718
21637TIP3    H131982   3.379   6.807  16.660
21637TIP3    H231983   3.262   6.836  16.755
21638TIP3   OH231984   2.486   6.027  15.684
21638TIP3    H131985   2.422   6.049  15.613
21638TIP3    H231986   2.526   5.944  15.650
21639TIP3   OH231987   2.442   5.982  16.559
21639TIP3    H131988   2.407   6.039  16.628
21639TIP3    H231989   2.386   6.003  16.483
21640TIP3   OH231990   2.662   7.167  16.657
21640TIP3    H131991   2.728   7.236  16.642
21640TIP3    H231992   2.610   7.207  16.731
21641TIP3   OH231993   2.706   6.171  16.504
21641TIP3    H131994   2.645   6.244  16.484
21641TIP3    H231995   2.729   6.133  16.417
21642TIP3   OH231996   2.640   6.295  15.593
21642TIP3    H131997   2.640   6.345  15.508
21642TIP3    H231998   2.615   6.205  15.566
21643TIP3   OH231999   2.655   5.851  16.446
21643TIP3    H132000   2.680   5.912  16.374
21643TIP3    H232001   2.574   5.897  16.480
21644TIP3   OH232002   2.927   7.294  16.692
21644TIP3    H132003   2.901   7.380  16.732
21644TIP3    H232004   2.963   7.327  16.607
21645TIP3   OH232005   3.089   5.971  16.702
21645TIP3    H132006   3.082   6.056  16.655
21645TIP3    H232007   3.003   5.932  16.678
21646TIP3   OH232008   2.068   6.047  15.487
21646TIP3    H132009   2.163   6.058  15.506
21646TIP3    H232010   2.027   6.063  15.574
21647TIP3   OH232011   2.169   6.428  16.091
21647TIP3    H132012   2.248   6.372  16.084
21647TIP3    H232013   2.101   6.375  16.044
21648TIP3   OH232014   3.234   7.015  16.844
21648TIP3    H132015   3.151   7.040  16.799
21648TIP3    H232016   3.197   6.962  16.916
21649TIP3   OH232017   3.401   6.290  16.934
21649TIP3    H132018   3.382   6.382  16.910
21649TIP3    H232019   3.483   6.300  16.983
21650TIP3   OH232020   2.073   7.357  15.937
21650TIP3    H132021   2.068   7.438  15.994
21650TIP3    H232022   1.977   7.341  15.927
21651TIP3   OH232023   3.329   5.768  16.032
21651TIP3    H132024   3.334   5.753  16.129
21651TIP3    H232025   3.351   5.678  16.001
21652TIP3   OH232026   3.465   7.164  16.452
21652TIP3    H132027   3.547   7.200  16.415
21652TIP3    H232028   3.459   7.218  16.534
21653TIP3   OH232029   3.526   7.446  15.304
21653TIP3    H132030   3.440   7.426  15.263
21653TIP3    H232031   3.564   7.357  15.318
21654TIP3   OH232032   3.033   7.292  15.155
21654TIP3    H132033   2.939   7.272  15.143
21654TIP3    H232034   3.053   7.256  15.244
21655TIP3   OH232035   2.553   7.265  16.891
21655TIP3    H132036   2.618   7.217  16.947
21655TIP3    H232037   2.487   7.292  16.957
21656TIP3   OH232038   2.419   7.181  15.264
21656TIP3    H132039   2.431   7.090  15.235
21656TIP3    H232040   2.332   7.203  15.221
21657TIP3   OH232041   2.140   7.226  16.966
21657TIP3    H132042   2.191   7.155  16.922
21657TIP3    H232043   2.050   7.197  16.939
21658TIP3   OH232044   3.539   6.795  15.205
21658TIP3    H132045   3.574   6.703  15.206
21658TIP3    H232046   3.586   6.832  15.283
21659TIP3   OH232047   3.057   6.823  16.978
21659TIP3    H132048   2.991   6.814  16.907
21659TIP3    H232049   3.015   6.767  17.047
21660TIP3   OH232050   2.859   6.799  15.290
21660TIP3    H132051   2.890   6.858  15.362
21660TIP3    H232052   2.856   6.710  15.333
21661TIP3   OH232053   2.300   6.783  15.507
21661TIP3    H132054   2.213   6.828  15.515
21661TIP3    H232055   2.354   6.863  15.507
21662TIP3   OH232056   3.451   6.490  15.232
21662TIP3    H132057   3.383   6.462  15.296
21662TIP3    H232058   3.399   6.547  15.173
21663TIP3   OH232059   2.955   6.645  16.747
21663TIP3    H132060   3.032   6.598  16.710
21663TIP3    H232061   2.920   6.581  16.813
21664TIP3   OH232062   2.997   6.400  15.577
21664TIP3    H132063   3.077   6.456  15.568
21664TIP3    H232064   2.943   6.455  15.639
21665TIP3   OH232065   2.844   6.459  16.951
21665TIP3    H132066   2.820   6.472  17.044
21665TIP3    H232067   2.755   6.465  16.908
21666TIP3   OH232068   2.508   6.714  15.184
21666TIP3    H132069   2.453   6.675  15.254
21666TIP3    H232070   2.544   6.637  15.137
21667TIP3   OH232071   1.948   6.741   8.515
21667TIP3    H132072   1.984   6.752   8.605
21667TIP3    H232073   1.922   6.831   8.491
21668TIP3   OH232074   2.981   6.176  15.446
21668TIP3    H132075   2.981   6.101  15.509
21668TIP3    H232076   2.973   6.253  15.507
21669TIP3   OH232077   2.953   5.991  15.650
21669TIP3    H132078   2.905   6.037  15.723
21669TIP3    H232079   3.042   5.983  15.691
21670TIP3   OH232080   2.821   6.575  15.678
21670TIP3    H132081   2.738   6.620  15.699
21670TIP3    H232082   2.887   6.644  15.706
21671TIP3   OH232083   2.359   6.288  15.162
21671TIP3    H132084   2.293   6.222  15.188
21671TIP3    H232085   2.301   6.364  15.149
21672TIP3   OH232086   2.227   6.606  15.299
21672TIP3    H132087   2.253   6.662  15.375
21672TIP3    H232088   2.132   6.595  15.318
21673TIP3   OH232089   3.218   6.313  15.286
21673TIP3    H132090   3.241   6.226  15.250
21673TIP3    H232091   3.139   6.294  15.337
21674TIP3   OH232092   2.853   5.745  15.669
21674TIP3    H132093   2.895   5.833  15.655
21674TIP3    H232094   2.930   5.690  15.690
21675TIP3   OH232095   2.765   6.172  15.257
21675TIP3    H132096   2.821   6.193  15.181
21675TIP3    H232097   2.833   6.155  15.326
21676TIP3   OH232098   2.500   6.071  15.323
21676TIP3    H132099   2.593   6.081  15.297
21676TIP3    H232100   2.465   6.018  15.249
21677TIP3   OH232101   2.343   5.932  15.136
21677TIP3    H132102   2.338   5.836  15.155
21677TIP3    H232103   2.349   5.931  15.039
21678TIP3   OH232104   3.355   6.063  15.228
21678TIP3    H132105   3.373   5.977  15.271
21678TIP3    H232106   3.390   6.051  15.138
21679TIP3   OH232107   2.852   5.730  15.381
21679TIP3    H132108   2.785   5.659  15.379
21679TIP3    H232109   2.862   5.744  15.476
21680TIP3   OH232110   2.871   5.836  15.123
21680TIP3    H132111   2.855   5.776  15.199
21680TIP3    H232112   2.954   5.877  15.151
21681TIP3   OH232113   2.886   7.533  16.810
21681TIP3    H132114   2.804   7.583  16.793
21681TIP3    H232115   2.877   7.518  16.906
21682TIP3   OH232116   3.537   6.996  16.899
21682TIP3    H132117   3.440   6.997  16.887
21682TIP3    H232118   3.541   6.959  16.989
21683TIP3   OH232119   3.638   7.504  16.392
21683TIP3    H132120   3.713   7.449  16.426
21683TIP3    H232121   3.604   7.445  16.322
21684TIP3   OH232122   3.554   7.326  16.196
21684TIP3    H132123   3.615   7.260  16.160
21684TIP3    H232124   3.494   7.345  16.120
21685TIP3   OH232125   1.793   7.398  15.941
21685TIP3    H132126   1.778   7.407  15.846
21685TIP3    H232127   1.755   7.480  15.974
21686TIP3   OH232128   1.859   7.363  15.628
21686TIP3    H132129   1.893   7.285  15.677
21686TIP3    H232130   1.828   7.319  15.547
21687TIP3   OH232131   1.957   6.945  15.128
21687TIP3    H132132   2.045   6.966  15.091
21687TIP3    H232133   1.917   7.034  15.134
21688TIP3   OH232134   1.882   6.791  16.625
21688TIP3    H132135   1.798   6.838  16.605
21688TIP3    H232136   1.883   6.727  16.550
21689TIP3   OH232137   1.855   6.603  16.414
21689TIP3    H132138   1.928   6.560  16.365
21689TIP3    H232139   1.787   6.614  16.345
21690TIP3   OH232140   1.866   6.859  15.937
21690TIP3    H132141   1.805   6.786  15.961
21690TIP3    H232142   1.815   6.938  15.965
21691TIP3   OH232143   1.998   7.135  15.694
21691TIP3    H132144   2.065   7.178  15.639
21691TIP3    H232145   2.050   7.113  15.776
21692TIP3   OH232146   1.847   6.557  16.786
21692TIP3    H132147   1.897   6.584  16.864
21692TIP3    H232148   1.864   6.632  16.725
21693TIP3   OH232149   2.030   6.285  16.910
21693TIP3    H132150   1.958   6.328  16.962
21693TIP3    H232151   2.012   6.191  16.934
21694TIP3   OH232152   2.057   6.454  16.335
21694TIP3    H132153   2.069   6.361  16.363
21694TIP3    H232154   2.079   6.447  16.239
21695TIP3   OH232155   3.562   6.666  15.923
21695TIP3    H132156   3.550   6.639  16.017
21695TIP3    H232157   3.475   6.637  15.886
21696TIP3   OH232158   1.948   6.625  15.381
21696TIP3    H132159   1.898   6.542  15.358
21696TIP3    H232160   1.878   6.692  15.395
21697TIP3   OH232161   1.831   6.378  15.357
21697TIP3    H132162   1.916   6.337  15.330
21697TIP3    H232163   1.770   6.301  15.351
21698TIP3   OH232164   2.052   6.038  17.020
21698TIP3    H132165   1.997   5.991  16.953
21698TIP3    H232166   2.143   6.033  16.987
21699TIP3   OH232167   2.109   6.219  16.496
21699TIP3    H132168   2.077   6.133  16.462
21699TIP3    H232169   2.052   6.223  16.576
21700TIP3   OH232170   2.004   6.262  15.961
21700TIP3    H132171   1.905   6.270  15.961
21700TIP3    H232172   2.021   6.272  15.866
21701TIP3   OH232173   2.006   6.334  15.692
21701TIP3    H132174   2.082   6.353  15.634
21701TIP3    H232175   1.972   6.424  15.711
21702TIP3   OH232176   3.613   6.156  15.300
21702TIP3    H132177   3.520   6.145  15.273
21702TIP3    H232178   3.639   6.064  15.324
21703TIP3   OH232179   1.771   5.758  15.183
21703TIP3    H132180   1.738   5.681  15.232
21703TIP3    H232181   1.779   5.825  15.255
21704TIP3   OH232182   2.014   5.953  16.486
21704TIP3    H132183   1.989   5.901  16.406
21704TIP3    H232184   2.065   5.886  16.534
21705TIP3   OH232185   3.467   6.001  16.000
21705TIP3    H132186   3.424   5.913  16.006
21705TIP3    H232187   3.391   6.061  16.004
21706TIP3   OH232188   3.622   6.300  15.919
21706TIP3    H132189   3.578   6.275  16.003
21706TIP3    H232190   3.573   6.381  15.899
21707TIP3   OH232191   1.817   5.943  15.368
21707TIP3    H132192   1.894   5.973  15.315
21707TIP3    H232193   1.864   5.900  15.442
21708TIP3   OH232194   1.843   5.948  16.859
21708TIP3    H132195   1.798   5.879  16.910
21708TIP3    H232196   1.767   6.002  16.830
21709TIP3   OH232197   3.611   5.916  16.541
21709TIP3    H132198   3.707   5.906  16.536
21709TIP3    H232199   3.599   5.974  16.619
21710TIP3   OH232200   2.124   7.437  16.311
21710TIP3    H132201   2.060   7.419  16.382
21710TIP3    H232202   2.079   7.502  16.254
21711TIP3   OH232203   3.613   5.782  15.706
21711TIP3    H132204   3.676   5.734  15.650
21711TIP3    H232205   3.668   5.851  15.747
21712TIP3   OH232206   3.394   7.097  15.324
21712TIP3    H132207   3.466   7.143  15.369
21712TIP3    H232208   3.431   7.086  15.236
21713TIP3   OH232209   3.086   7.265  15.638
21713TIP3    H132210   3.086   7.354  15.680
21713TIP3    H232211   2.992   7.241  15.651
21714TIP3   OH232212   2.688   7.370  15.388
21714TIP3    H132213   2.668   7.347  15.295
21714TIP3    H232214   2.603   7.413  15.412
21715TIP3   OH232215   2.451   7.506  15.437
21715TIP3    H132216   2.374   7.463  15.477
21715TIP3    H232217   2.411   7.550  15.359
21716TIP3   OH232218   1.934   5.734  15.528
21716TIP3    H132219   2.016   5.764  15.571
21716TIP3    H232220   1.923   5.643  15.562
21717TIP3   OH232221   3.347   7.572  15.688
21717TIP3    H132222   3.414   7.629  15.730
21717TIP3    H232223   3.368   7.585  15.594
21718TIP3   OH232224   3.096   7.510  15.764
21718TIP3    H132225   3.190   7.527  15.738
21718TIP3    H232226   3.090   7.565  15.844
21719TIP3   OH232227   2.653   7.464  15.837
21719TIP3    H132228   2.707   7.508  15.903
21719TIP3    H232229   2.629   7.540  15.780
21720TIP3   OH232230   2.438   7.341  15.697
21720TIP3    H132231   2.503   7.375  15.760
21720TIP3    H232232   2.365   7.403  15.718
21721TIP3   OH232233   2.189   7.495  15.741
21721TIP3    H132234   2.168   7.584  15.775
21721TIP3    H232235   2.149   7.440  15.813
21722TIP3   OH232236   3.386   7.392  15.982
21722TIP3    H132237   3.412   7.340  15.903
21722TIP3    H232238   3.299   7.353  16.003
21723TIP3   OH232239   3.169   7.283  16.097
21723TIP3    H132240   3.174   7.189  16.070
21723TIP3    H232241   3.087   7.307  16.049
21724TIP3   OH232242   2.946   7.287  15.956
21724TIP3    H132243   2.911   7.198  15.978
21724TIP3    H232244   2.923   7.294  15.862
21725TIP3   OH232245   2.590   5.869  16.104
21725TIP3    H132246   2.672   5.857  16.055
21725TIP3    H232247   2.565   5.777  16.121
21726TIP3   OH232248   2.055   5.681  16.099
21726TIP3    H132249   2.001   5.741  16.155
21726TIP3    H232250   2.146   5.716  16.111
21727TIP3   OH232251   1.909   5.805  16.280
21727TIP3    H132252   1.842   5.748  16.326
21727TIP3    H232253   1.851   5.878  16.249
21728TIP3   OH232254   3.355   5.719  16.297
21728TIP3    H132255   3.434   5.709  16.354
21728TIP3    H232256   3.307   5.635  16.317
21729TIP3   OH232257   3.495   5.721  16.756
21729TIP3    H132258   3.436   5.783  16.805
21729TIP3    H232259   3.533   5.777  16.687
21730TIP3   OH232260   2.930   5.705  16.329
21730TIP3    H132261   2.845   5.730  16.367
21730TIP3    H232262   2.929   5.752  16.245
21731TIP3   OH232263   2.302   5.744  16.179
21731TIP3    H132264   2.336   5.780  16.261
21731TIP3    H232265   2.365   5.670  16.161
21732TIP3   OH232266   2.202   5.730  16.632
21732TIP3    H132267   2.286   5.776  16.643
21732TIP3    H232268   2.234   5.646  16.591
21733TIP3   OH232269   3.497   7.336  16.653
21733TIP3    H132270   3.585   7.338  16.696
21733TIP3    H232271   3.474   7.430  16.670
21734TIP3   OH232272   3.319   5.863  16.890
21734TIP3    H132273   3.234   5.816  16.900
21734TIP3    H232274   3.290   5.951  16.862
21735TIP3   OH232275   2.800   5.974  16.653
21735TIP3    H132276   2.754   5.912  16.594
21735TIP3    H232277   2.769   6.057  16.609
21736TIP3   OH232278   2.595   7.523  16.833
21736TIP3    H132279   2.507   7.540  16.871
21736TIP3    H232280   2.594   7.425  16.844
21737TIP3   OH232281   1.956   7.372  16.508
21737TIP3    H132282   1.969   7.298  16.572
21737TIP3    H232283   1.955   7.447  16.572
21738TIP3   OH232284   3.399   5.809  15.391
21738TIP3    H132285   3.444   5.725  15.372
21738TIP3    H232286   3.317   5.800  15.338
21739TIP3   OH232287   3.188   5.745  15.195
21739TIP3    H132288   3.104   5.707  15.225
21739TIP3    H232289   3.238   5.664  15.176
21740TIP3   OH232290   3.296   7.440  16.939
21740TIP3    H132291   3.372   7.476  16.891
21740TIP3    H232292   3.278   7.357  16.893
21741TIP3   OH232293   2.298   5.659  15.152
21741TIP3    H132294   2.264   5.621  15.069
21741TIP3    H232295   2.219   5.649  15.211
21742TIP3   OH232296   2.004   7.253  15.344
21742TIP3    H132297   2.074   7.254  15.413
21742TIP3    H232298   2.013   7.344  15.312
21743TIP3   OH232299   0.531   6.682  16.335
21743TIP3    H132300   0.545   6.779  16.344
21743TIP3    H232301   0.614   6.648  16.373
21744TIP3   OH232302   0.690   6.545  16.010
21744TIP3    H132303   0.669   6.513  15.921
21744TIP3    H232304   0.759   6.485  16.044
21745TIP3   OH232305   1.460   6.563  15.823
21745TIP3    H132306   1.468   6.478  15.776
21745TIP3    H232307   1.375   6.596  15.791
21746TIP3   OH232308   0.306   6.899  16.134
21746TIP3    H132309   0.301   6.826  16.072
21746TIP3    H232310   0.300   6.976  16.074
21747TIP3   OH232311   1.348   7.000  16.000
21747TIP3    H132312   1.383   6.915  16.034
21747TIP3    H232313   1.255   6.990  16.027
21748TIP3   OH232314   1.686   6.336  16.433
21748TIP3    H132315   1.720   6.425  16.422
21748TIP3    H232316   1.754   6.296  16.490
21749TIP3   OH232317   1.642   6.578  16.190
21749TIP3    H132318   1.607   6.486  16.181
21749TIP3    H232319   1.562   6.633  16.198
21750TIP3   OH232320   0.596   7.424  16.134
21750TIP3    H132321   0.541   7.360  16.187
21750TIP3    H232322   0.641   7.359  16.079
21751TIP3   OH232323   0.858   6.843  15.902
21751TIP3    H132324   0.833   6.811  15.990
21751TIP3    H232325   0.768   6.861  15.867
21752TIP3   OH232326  -0.016   6.034  15.838
21752TIP3    H132327  -0.027   6.131  15.831
21752TIP3    H232328  -0.098   6.015  15.889
21753TIP3   OH232329   0.510   6.287  15.885
21753TIP3    H132330   0.484   6.198  15.861
21753TIP3    H232331   0.527   6.278  15.980
21754TIP3   OH232332   1.210   6.060  16.212
21754TIP3    H132333   1.200   6.141  16.266
21754TIP3    H232334   1.254   6.003  16.277
21755TIP3   OH232335   0.436   6.114  16.326
21755TIP3    H132336   0.387   6.069  16.254
21755TIP3    H232337   0.366   6.167  16.367
21756TIP3   OH232338   1.561   6.329  16.126
21756TIP3    H132339   1.503   6.287  16.060
21756TIP3    H232340   1.528   6.288  16.209
21757TIP3   OH232341   1.078   6.473  16.178
21757TIP3    H132342   0.997   6.428  16.147
21757TIP3    H232343   1.114   6.405  16.241
21758TIP3   OH232344   1.319   5.980  15.781
21758TIP3    H132345   1.359   6.035  15.852
21758TIP3    H232346   1.380   6.001  15.707
21759TIP3   OH232347   0.618   6.916  16.432
21759TIP3    H132348   0.632   6.921  16.528
21759TIP3    H232349   0.647   7.006  16.404
21760TIP3   OH232350   1.093   6.738  15.812
21760TIP3    H132351   1.148   6.807  15.770
21760TIP3    H232352   1.017   6.789  15.847
21761TIP3   OH232353   0.272   6.061  16.117
21761TIP3    H132354   0.307   5.995  16.055
21761TIP3    H232355   0.230   6.124  16.054
21762TIP3   OH232356   1.357   6.170  15.985
21762TIP3    H132357   1.294   6.233  15.941
21762TIP3    H232358   1.305   6.144  16.065
21763TIP3   OH232359   1.214   6.950  15.698
21763TIP3    H132360   1.241   7.026  15.753
21763TIP3    H232361   1.300   6.931  15.652
21764TIP3   OH232362   1.631   6.898  16.610
21764TIP3    H132363   1.627   6.950  16.693
21764TIP3    H232364   1.618   6.968  16.542
21765TIP3   OH232365   0.282   7.102  15.972
21765TIP3    H132366   0.377   7.119  15.953
21765TIP3    H232367   0.243   7.191  15.964
21766TIP3   OH232368   0.205   5.877  15.774
21766TIP3    H132369   0.274   5.894  15.841
21766TIP3    H232370   0.135   5.942  15.798
21767TIP3   OH232371   0.954   5.729  16.045
21767TIP3    H132372   0.984   5.637  16.049
21767TIP3    H232373   1.040   5.774  16.019
21768TIP3   OH232374   0.446   7.265  16.280
21768TIP3    H132375   0.406   7.179  16.305
21768TIP3    H232376   0.378   7.329  16.308
21769TIP3   OH232377   0.311   7.039  16.430
21769TIP3    H132378   0.342   6.962  16.480
21769TIP3    H232379   0.277   7.000  16.348
21770TIP3   OH232380   0.159   6.900  15.529
21770TIP3    H132381   0.170   6.839  15.606
21770TIP3    H232382   0.126   6.979  15.576
21771TIP3   OH232383   0.713   6.593  16.590
21771TIP3    H132384   0.780   6.661  16.613
21771TIP3    H232385   0.635   6.625  16.641
21772TIP3   OH232386   0.708   6.484  16.870
21772TIP3    H132387   0.632   6.511  16.813
21772TIP3    H232388   0.669   6.412  16.922
21773TIP3   OH232389   0.016   6.558  15.787
21773TIP3    H132390   0.079   6.633  15.792
21773TIP3    H232391  -0.051   6.589  15.853
21774TIP3   OH232392   0.340   6.581  16.496
21774TIP3    H132393   0.406   6.623  16.436
21774TIP3    H232394   0.280   6.539  16.430
21775TIP3   OH232395   0.386   6.403  15.554
21775TIP3    H132396   0.399   6.481  15.498
21775TIP3    H232397   0.433   6.436  15.632
21776TIP3   OH232398   1.208   6.666  16.308
21776TIP3    H132399   1.225   6.621  16.394
21776TIP3    H232400   1.155   6.598  16.261
21777TIP3   OH232401   1.049   7.006  16.025
21777TIP3    H132402   1.031   6.992  16.119
21777TIP3    H232403   0.983   6.950  15.980
21778TIP3   OH232404   1.177   6.524  15.934
21778TIP3    H132405   1.141   6.523  16.026
21778TIP3    H232406   1.132   6.602  15.894
21779TIP3   OH232407   0.526   7.113  15.874
21779TIP3    H132408   0.561   7.179  15.813
21779TIP3    H232409   0.535   7.031  15.822
21780TIP3   OH232410   1.072   6.978  15.469
21780TIP3    H132411   1.140   7.042  15.436
21780TIP3    H232412   1.112   6.961  15.558
21781TIP3   OH232413   0.480   6.562  16.723
21781TIP3    H132414   0.426   6.561  16.641
21781TIP3    H232415   0.424   6.615  16.784
21782TIP3   OH232416   1.355   6.587  15.539
21782TIP3    H132417   1.344   6.639  15.458
21782TIP3    H232418   1.449   6.565  15.531
21783TIP3   OH232419   0.720   7.173  16.380
21783TIP3    H132420   0.665   7.242  16.340
21783TIP3    H232421   0.763   7.221  16.452
21784TIP3   OH232422   1.248   7.163  15.412
21784TIP3    H132423   1.263   7.196  15.504
21784TIP3    H232424   1.338   7.145  15.378
21785TIP3   OH232425   0.102   5.656  16.696
21785TIP3    H132426   0.191   5.691  16.674
21785TIP3    H232427   0.099   5.666  16.793
21786TIP3   OH232428   1.311   6.550  16.545
21786TIP3    H132429   1.355   6.632  16.574
21786TIP3    H232430   1.373   6.482  16.575
21787TIP3   OH232431  -0.002   7.166  16.893
21787TIP3    H132432  -0.048   7.224  16.955
21787TIP3    H232433  -0.066   7.090  16.888
21788TIP3   OH232434   1.670   6.823  15.652
21788TIP3    H132435   1.714   6.813  15.737
21788TIP3    H232436   1.635   6.732  15.642
21789TIP3   OH232437   1.696   7.088  16.002
21789TIP3    H132438   1.601   7.073  15.995
21789TIP3    H232439   1.706   7.166  15.946
21790TIP3   OH232440   0.822   7.094  15.476
21790TIP3    H132441   0.811   7.189  15.452
21790TIP3    H232442   0.918   7.075  15.469
21791TIP3   OH232443   0.752   7.486  16.558
21791TIP3    H132444   0.750   7.506  16.654
21791TIP3    H232445   0.752   7.577  16.520
21792TIP3   OH232446   1.377   7.359  16.351
21792TIP3    H132447   1.354   7.321  16.263
21792TIP3    H232448   1.467   7.327  16.364
21793TIP3   OH232449   0.455   7.440  16.855
21793TIP3    H132450   0.405   7.362  16.889
21793TIP3    H232451   0.442   7.433  16.760
21794TIP3   OH232452   0.494   7.402  16.555
21794TIP3    H132453   0.590   7.416  16.538
21794TIP3    H232454   0.478   7.314  16.515
21795TIP3   OH232455   0.180   6.323  15.371
21795TIP3    H132456   0.247   6.330  15.441
21795TIP3    H232457   0.125   6.248  15.401
21796TIP3   OH232458   1.446   6.935  15.573
21796TIP3    H132459   1.436   6.899  15.482
21796TIP3    H232460   1.535   6.901  15.599
21797TIP3   OH232461   1.196   5.819  15.966
21797TIP3    H132462   1.291   5.817  15.994
21797TIP3    H232463   1.207   5.865  15.881
21798TIP3   OH232464   0.707   5.763  15.639
21798TIP3    H132465   0.691   5.724  15.551
21798TIP3    H232466   0.806   5.768  15.645
21799TIP3   OH232467   0.395   6.135  15.537
21799TIP3    H132468   0.467   6.119  15.472
21799TIP3    H232469   0.396   6.233  15.543
21800TIP3   OH232470   0.330   6.667  16.909
21800TIP3    H132471   0.294   6.614  16.982
21800TIP3    H232472   0.252   6.721  16.886
21801TIP3   OH232473   0.757   6.069  16.874
21801TIP3    H132474   0.803   6.058  16.788
21801TIP3    H232475   0.768   5.980  16.909
21802TIP3   OH232476   1.178   6.288  15.825
21802TIP3    H132477   1.240   6.293  15.750
21802TIP3    H232478   1.183   6.380  15.859
21803TIP3   OH232479   1.185   6.288  16.355
21803TIP3    H132480   1.282   6.292  16.361
21803TIP3    H232481   1.159   6.265  16.448
21804TIP3   OH232482   0.621   6.377  16.469
21804TIP3    H132483   0.659   6.455  16.516
21804TIP3    H232484   0.561   6.343  16.537
21805TIP3   OH232485   0.772   6.407  15.310
21805TIP3    H132486   0.808   6.316  15.291
21805TIP3    H232487   0.678   6.390  15.307
21806TIP3   OH232488   0.543   6.344  16.168
21806TIP3    H132489   0.558   6.425  16.220
21806TIP3    H232490   0.527   6.281  16.241
21807TIP3   OH232491   1.437   6.296  15.703
21807TIP3    H132492   1.406   6.324  15.616
21807TIP3    H232493   1.470   6.207  15.682
21808TIP3   OH232494   1.086   6.096  16.934
21808TIP3    H132495   1.103   6.035  16.861
21808TIP3    H232496   1.124   6.180  16.898
21809TIP3   OH232497   1.748   6.030  16.248
21809TIP3    H132498   1.678   6.040  16.180
21809TIP3    H232499   1.702   6.050  16.331
21810TIP3   OH232500   1.645   6.092  16.737
21810TIP3    H132501   1.583   6.129  16.801
21810TIP3    H232502   1.696   6.172  16.714
21811TIP3   OH232503   0.606   6.503  15.753
21811TIP3    H132504   0.560   6.424  15.791
21811TIP3    H232505   0.659   6.461  15.684
21812TIP3   OH232506   0.893   6.039  16.264
21812TIP3    H132507   0.984   6.046  16.230
21812TIP3    H232508   0.840   6.018  16.184
21813TIP3   OH232509   1.465   6.201  16.344
21813TIP3    H132510   1.538   6.239  16.399
21813TIP3    H232511   1.445   6.115  16.387
21814TIP3   OH232512   1.120   6.235  16.610
21814TIP3    H132513   1.025   6.256  16.606
21814TIP3    H232514   1.146   6.278  16.694
21815TIP3   OH232515   0.424   5.925  15.936
21815TIP3    H132516   0.502   5.953  15.885
21815TIP3    H232517   0.466   5.878  16.012
21816TIP3   OH232518   1.181   6.329  16.856
21816TIP3    H132519   1.252   6.326  16.922
21816TIP3    H232520   1.111   6.380  16.903
21817TIP3   OH232521   0.212   7.528  15.281
21817TIP3    H132522   0.185   7.563  15.369
21817TIP3    H232523   0.150   7.575  15.225
21818TIP3   OH232524   1.418   6.812  15.327
21818TIP3    H132525   1.360   6.802  15.248
21818TIP3    H232526   1.501   6.776  15.291
21819TIP3   OH232527   0.838   6.310  16.086
21819TIP3    H132528   0.744   6.295  16.102
21819TIP3    H232529   0.866   6.231  16.037
21820TIP3   OH232530   1.359   5.951  16.424
21820TIP3    H132531   1.407   5.881  16.374
21820TIP3    H232532   1.314   5.898  16.492
21821TIP3   OH232533   0.952   6.149  15.820
21821TIP3    H132534   1.032   6.207  15.826
21821TIP3    H232535   0.887   6.208  15.779
21822TIP3   OH232536   0.885   6.795  16.622
21822TIP3    H132537   0.961   6.743  16.658
21822TIP3    H232538   0.925   6.827  16.537
21823TIP3   OH232539   0.177   6.777  15.762
21823TIP3    H132540   0.116   6.825  15.823
21823TIP3    H232541   0.248   6.749  15.823
21824TIP3   OH232542   0.499   6.093  16.807
21824TIP3    H132543   0.594   6.093  16.829
21824TIP3    H232544   0.484   6.187  16.786
21825TIP3   OH232545   0.754   6.832  15.486
21825TIP3    H132546   0.822   6.807  15.422
21825TIP3    H232547   0.773   6.928  15.492
21826TIP3   OH232548   0.409   6.300  16.650
21826TIP3    H132549   0.339   6.272  16.589
21826TIP3    H232550   0.379   6.389  16.672
21827TIP3   OH232551   1.370   6.740  16.094
21827TIP3    H132552   1.308   6.731  16.169
21827TIP3    H232553   1.340   6.671  16.032
21828TIP3   OH232554   0.668   6.934  16.715
21828TIP3    H132555   0.718   7.015  16.692
21828TIP3    H232556   0.735   6.865  16.698
21829TIP3   OH232557   1.651   6.557  15.572
21829TIP3    H132558   1.672   6.525  15.482
21829TIP3    H232559   1.719   6.511  15.624
21830TIP3   OH232560   1.008   6.536  15.359
21830TIP3    H132561   1.020   6.521  15.455
21830TIP3    H232562   0.925   6.488  15.342
21831TIP3   OH232563   0.477   7.047  15.510
21831TIP3    H132564   0.573   7.060  15.518
21831TIP3    H232565   0.461   7.099  15.429
21832TIP3   OH232566   0.083   7.100  16.652
21832TIP3    H132567   0.177   7.078  16.650
21832TIP3    H232568   0.069   7.124  16.747
21833TIP3   OH232569   0.368   6.658  15.951
21833TIP3    H132570   0.464   6.650  15.958
21833TIP3    H232571   0.337   6.593  16.017
21834TIP3   OH232572   1.157   7.092  16.297
21834TIP3    H132573   1.125   7.182  16.315
21834TIP3    H232574   1.231   7.085  16.360
21835TIP3   OH232575   1.548   6.570  16.871
21835TIP3    H132576   1.500   6.641  16.823
21835TIP3    H232577   1.641   6.589  16.850
21836TIP3   OH232578   1.014   6.870  16.392
21836TIP3    H132579   1.056   6.954  16.366
21836TIP3    H232580   1.058   6.805  16.334
21837TIP3   OH232581   0.948   7.275  15.688
21837TIP3    H132582   0.880   7.339  15.715
21837TIP3    H232583   0.897   7.226  15.621
21838TIP3   OH232584   1.114   7.346  16.430
21838TIP3    H132585   1.211   7.351  16.415
21838TIP3    H232586   1.087   7.430  16.386
21839TIP3   OH232587   0.624   6.865  15.770
21839TIP3    H132588   0.649   6.861  15.676
21839TIP3    H232589   0.584   6.777  15.783
21840TIP3   OH232590   0.366   7.015  16.818
21840TIP3    H132591   0.336   6.957  16.744
21840TIP3    H232592   0.447   6.966  16.840
21841TIP3   OH232593   0.348   7.321  15.518
21841TIP3    H132594   0.415   7.264  15.561
21841TIP3    H232595   0.306   7.370  15.593
21842TIP3   OH232596   1.491   6.046  15.580
21842TIP3    H132597   1.554   6.088  15.517
21842TIP3    H232598   1.511   5.953  15.561
21843TIP3   OH232599   0.286   6.811  16.634
21843TIP3    H132600   0.315   6.728  16.589
21843TIP3    H232601   0.189   6.798  16.637
21844TIP3   OH232602   1.540   7.214  15.756
21844TIP3    H132603   1.479   7.139  15.749
21844TIP3    H232604   1.529   7.255  15.669
21845TIP3   OH232605   1.080   7.035  16.761
21845TIP3    H132606   1.014   6.997  16.700
21845TIP3    H232607   1.071   7.132  16.746
21846TIP3   OH232608   1.426   6.761  16.718
21846TIP3    H132609   1.492   6.806  16.660
21846TIP3    H232610   1.366   6.834  16.744
21847TIP3   OH232611   0.629   6.045  15.651
21847TIP3    H132612   0.536   6.057  15.625
21847TIP3    H232613   0.654   5.961  15.609
21848TIP3   OH232614   0.568   6.008  16.534
21848TIP3    H132615   0.527   6.058  16.607
21848TIP3    H232616   0.532   6.057  16.457
21849TIP3   OH232617   0.787   7.177  16.664
21849TIP3    H132618   0.865   7.234  16.674
21849TIP3    H232619   0.729   7.211  16.736
21850TIP3   OH232620   0.818   6.178  16.488
21850TIP3    H132621   0.757   6.254  16.476
21850TIP3    H232622   0.840   6.149  16.397
21851TIP3   OH232623   0.740   6.301  15.590
21851TIP3    H132624   0.785   6.312  15.505
21851TIP3    H232625   0.697   6.212  15.585
21852TIP3   OH232626   0.764   5.852  16.432
21852TIP3    H132627   0.812   5.911  16.370
21852TIP3    H232628   0.691   5.912  16.462
21853TIP3   OH232629   1.067   7.297  16.699
21853TIP3    H132630   1.036   7.383  16.733
21853TIP3    H232631   1.096   7.324  16.610
21854TIP3   OH232632   1.198   5.978  16.707
21854TIP3    H132633   1.196   6.062  16.657
21854TIP3    H232634   1.115   5.938  16.675
21855TIP3   OH232635   0.146   6.046  15.475
21855TIP3    H132636   0.241   6.060  15.495
21855TIP3    H232637   0.103   6.089  15.550
21856TIP3   OH232638   0.290   6.439  16.120
21856TIP3    H132639   0.383   6.411  16.112
21856TIP3    H232640   0.248   6.383  16.052
21857TIP3   OH232641   1.358   7.032  16.856
21857TIP3    H132642   1.281   7.060  16.804
21857TIP3    H232643   1.313   6.970  16.916
21858TIP3   OH232644   1.524   6.303  16.923
21858TIP3    H132645   1.517   6.397  16.899
21858TIP3    H232646   1.601   6.304  16.982
21859TIP3   OH232647   0.148   7.341  15.937
21859TIP3    H132648   0.181   7.407  16.002
21859TIP3    H232649   0.053   7.358  15.941
21860TIP3   OH232650   1.456   5.768  16.026
21860TIP3    H132651   1.462   5.751  16.123
21860TIP3    H232652   1.484   5.681  15.990
21861TIP3   OH232653   1.597   7.139  16.464
21861TIP3    H132654   1.668   7.187  16.419
21861TIP3    H232655   1.574   7.205  16.533
21862TIP3   OH232656   1.643   7.426  15.295
21862TIP3    H132657   1.546   7.416  15.301
21862TIP3    H232658   1.672   7.333  15.298
21863TIP3   OH232659   1.263   7.372  15.211
21863TIP3    H132660   1.189   7.362  15.149
21863TIP3    H232661   1.241   7.313  15.285
21864TIP3   OH232662   0.673   7.276  16.907
21864TIP3    H132663   0.732   7.217  16.959
21864TIP3    H232664   0.620   7.316  16.978
21865TIP3   OH232665   0.538   7.190  15.266
21865TIP3    H132666   0.569   7.106  15.226
21865TIP3    H232667   0.452   7.202  15.220
21866TIP3   OH232668   0.282   7.265  16.978
21866TIP3    H132669   0.290   7.180  16.930
21866TIP3    H232670   0.188   7.285  16.967
21867TIP3   OH232671   1.663   6.780  15.209
21867TIP3    H132672   1.731   6.726  15.163
21867TIP3    H232673   1.717   6.819  15.282
21868TIP3   OH232674   1.179   6.834  16.967
21868TIP3    H132675   1.117   6.810  16.896
21868TIP3    H232676   1.143   6.784  17.042
21869TIP3   OH232677   0.978   6.799  15.293
21869TIP3    H132678   1.016   6.857  15.364
21869TIP3    H232679   1.009   6.708  15.317
21870TIP3   OH232680   0.415   6.779  15.502
21870TIP3    H132681   0.331   6.830  15.493
21870TIP3    H232682   0.476   6.854  15.509
21871TIP3   OH232683   1.538   6.541  15.277
21871TIP3    H132684   1.514   6.463  15.224
21871TIP3    H232685   1.544   6.607  15.207
21872TIP3   OH232686   1.073   6.654  16.749
21872TIP3    H132687   1.144   6.599  16.711
21872TIP3    H232688   1.031   6.592  16.812
21873TIP3   OH232689   1.168   6.403  15.581
21873TIP3    H132690   1.232   6.472  15.555
21873TIP3    H232691   1.100   6.458  15.625
21874TIP3   OH232692   0.963   6.472  16.953
21874TIP3    H132693   0.941   6.476  17.048
21874TIP3    H232694   0.873   6.473  16.911
21875TIP3   OH232695   0.637   6.725  15.203
21875TIP3    H132696   0.549   6.699  15.237
21875TIP3    H232697   0.692   6.700  15.279
21876TIP3   OH232698   0.048   6.652   8.516
21876TIP3    H132699   0.050   6.659   8.613
21876TIP3    H232700  -0.010   6.725   8.490
21877TIP3   OH232701   1.091   6.182  15.447
21877TIP3    H132702   1.079   6.107  15.510
21877TIP3    H232703   1.123   6.255  15.503
21878TIP3   OH232704   1.089   5.991  15.646
21878TIP3    H132705   1.038   6.037  15.717
21878TIP3    H232706   1.179   5.993  15.685
21879TIP3   OH232707   0.963   6.577  15.641
21879TIP3    H132708   0.871   6.592  15.666
21879TIP3    H232709   1.011   6.642  15.698
21880TIP3   OH232710   0.372   6.618  15.290
21880TIP3    H132711   0.374   6.671  15.372
21880TIP3    H232712   0.283   6.580  15.296
21881TIP3   OH232713   1.260   6.254  15.232
21881TIP3    H132714   1.340   6.201  15.252
21881TIP3    H232715   1.199   6.226  15.304
21882TIP3   OH232716   0.972   5.747  15.669
21882TIP3    H132717   1.012   5.837  15.657
21882TIP3    H232718   1.050   5.695  15.694
21883TIP3   OH232719   0.882   6.177  15.260
21883TIP3    H132720   0.916   6.127  15.184
21883TIP3    H232721   0.948   6.159  15.329
21884TIP3   OH232722   0.579   6.076  15.347
21884TIP3    H132723   0.657   6.068  15.291
21884TIP3    H232724   0.516   6.020  15.297
21885TIP3   OH232725   0.419   5.935  15.171
21885TIP3    H132726   0.448   5.841  15.177
21885TIP3    H232727   0.434   5.953  15.078
21886TIP3   OH232728   1.462   6.074  15.248
21886TIP3    H132729   1.469   5.987  15.292
21886TIP3    H232730   1.512   6.063  15.165
21887TIP3   OH232731   0.958   5.779  15.384
21887TIP3    H132732   0.902   5.703  15.363
21887TIP3    H232733   0.971   5.765  15.479
21888TIP3   OH232734   0.967   5.865  15.108
21888TIP3    H132735   0.965   5.827  15.198
21888TIP3    H232736   1.048   5.920  15.114
21889TIP3   OH232737   0.996   7.546  16.812
21889TIP3    H132738   0.910   7.590  16.798
21889TIP3    H232739   0.987   7.522  16.906
21890TIP3   OH232740   1.636   6.977  16.886
21890TIP3    H132741   1.540   6.995  16.875
21890TIP3    H232742   1.637   6.951  16.979
21891TIP3   OH232743   1.737   7.492  16.403
21891TIP3    H132744   1.820   7.445  16.430
21891TIP3    H232745   1.712   7.439  16.325
21892TIP3   OH232746   1.667   7.331  16.199
21892TIP3    H132747   1.722   7.260  16.160
21892TIP3    H232748   1.614   7.356  16.121
21893TIP3   OH232749  -0.020   7.373  15.599
21893TIP3    H132750   0.034   7.299  15.633
21893TIP3    H232751  -0.072   7.327  15.530
21894TIP3   OH232752   0.098   6.939  15.078
21894TIP3    H132753   0.183   6.950  15.030
21894TIP3    H232754   0.075   7.032  15.099
21895TIP3   OH232755   0.022   6.755  16.644
21895TIP3    H132756  -0.044   6.822  16.614
21895TIP3    H232757   0.042   6.707  16.562
21896TIP3   OH232758   9.320   6.889  15.890
21896TIP3    H132759   9.264   6.819  15.930
21896TIP3    H232760   9.301   6.966  15.947
21897TIP3   OH232761   0.114   7.136  15.686
21897TIP3    H132762   0.196   7.187  15.691
21897TIP3    H232763   0.102   7.104  15.778
21898TIP3   OH232764  -0.001   6.274  16.945
21898TIP3    H132765   0.048   6.337  16.999
21898TIP3    H232766   0.052   6.192  16.960
21899TIP3   OH232767   0.177   6.426  16.365
21899TIP3    H132768   0.178   6.335  16.400
21899TIP3    H232769   0.206   6.417  16.271
21900TIP3   OH232770   1.675   6.670  15.933
21900TIP3    H132771   1.667   6.636  16.025
21900TIP3    H232772   1.585   6.649  15.899
21901TIP3   OH232773   0.081   6.613  15.354
21901TIP3    H132774   0.059   6.519  15.364
21901TIP3    H232775   0.040   6.659  15.429
21902TIP3   OH232776   0.165   6.060  17.016
21902TIP3    H132777   0.108   5.988  16.986
21902TIP3    H232778   0.254   6.028  16.995
21903TIP3   OH232779   0.205   6.200  16.514
21903TIP3    H132780   0.191   6.107  16.485
21903TIP3    H232781   0.161   6.197  16.600
21904TIP3   OH232782   0.168   6.246  15.955
21904TIP3    H132783   0.071   6.249  15.971
21904TIP3    H232784   0.166   6.262  15.859
21905TIP3   OH232785   0.122   6.328  15.694
21905TIP3    H132786   0.202   6.372  15.660
21905TIP3    H232787   0.065   6.404  15.719
21906TIP3   OH232788   1.674   6.163  15.382
21906TIP3    H132789   1.606   6.165  15.311
21906TIP3    H232790   1.724   6.081  15.361
21907TIP3   OH232791   0.177   5.937  16.483
21907TIP3    H132792   0.142   5.906  16.396
21907TIP3    H232793   0.225   5.857  16.513
21908TIP3   OH232794   1.581   6.006  15.996
21908TIP3    H132795   1.542   5.916  16.003
21908TIP3    H232796   1.502   6.064  15.996
21909TIP3   OH232797   1.741   6.305  15.935
21909TIP3    H132798   1.694   6.294  16.019
21909TIP3    H232799   1.684   6.370  15.891
21910TIP3   OH232800   1.729   5.918  16.549
21910TIP3    H132801   1.823   5.931  16.533
21910TIP3    H232802   1.713   5.976  16.626
21911TIP3   OH232803   0.250   7.431  16.333
21911TIP3    H132804   0.183   7.395  16.395
21911TIP3    H232805   0.194   7.460  16.258
21912TIP3   OH232806   1.735   5.787  15.705
21912TIP3    H132807   1.794   5.762  15.631
21912TIP3    H232808   1.786   5.857  15.749
21913TIP3   OH232809   1.490   7.111  15.282
21913TIP3    H132810   1.576   7.109  15.328
21913TIP3    H232811   1.471   7.019  15.261
21914TIP3   OH232812   1.217   7.257  15.657
21914TIP3    H132813   1.221   7.353  15.679
21914TIP3    H232814   1.122   7.242  15.675
21915TIP3   OH232815   0.770   7.350  15.412
21915TIP3    H132816   0.769   7.340  15.315
21915TIP3    H232817   0.683   7.396  15.422
21916TIP3   OH232818   0.544   7.503  15.441
21916TIP3    H132819   0.468   7.445  15.459
21916TIP3    H232820   0.520   7.539  15.354
21917TIP3   OH232821   0.081   5.740  15.508
21917TIP3    H132822   0.148   5.801  15.544
21917TIP3    H232823   0.088   5.664  15.568
21918TIP3   OH232824   1.487   7.558  15.678
21918TIP3    H132825   1.553   7.616  15.723
21918TIP3    H232826   1.504   7.580  15.586
21919TIP3   OH232827   1.235   7.507  15.755
21919TIP3    H132828   1.328   7.526  15.727
21919TIP3    H232829   1.232   7.558  15.839
21920TIP3   OH232830   0.744   7.469  15.853
21920TIP3    H132831   0.800   7.511  15.921
21920TIP3    H232832   0.729   7.544  15.791
21921TIP3   OH232833   0.570   7.327  15.700
21921TIP3    H132834   0.627   7.373  15.765
21921TIP3    H232835   0.494   7.388  15.702
21922TIP3   OH232836   0.254   7.470  15.725
21922TIP3    H132837   0.247   7.567  15.738
21922TIP3    H232838   0.209   7.440  15.807
21923TIP3   OH232839   1.503   7.395  15.976
21923TIP3    H132840   1.523   7.333  15.902
21923TIP3    H232841   1.415   7.360  16.005
21924TIP3   OH232842   1.286   7.288  16.095
21924TIP3    H132843   1.289   7.192  16.077
21924TIP3    H232844   1.201   7.309  16.051
21925TIP3   OH232845   1.057   7.293  15.963
21925TIP3    H132846   1.021   7.204  15.980
21925TIP3    H232847   1.053   7.297  15.866
21926TIP3   OH232848   0.720   5.879  16.089
21926TIP3    H132849   0.799   5.839  16.048
21926TIP3    H232850   0.691   5.807  16.146
21927TIP3   OH232851   0.205   5.665  16.104
21927TIP3    H132852   0.146   5.728  16.153
21927TIP3    H232853   0.292   5.708  16.119
21928TIP3   OH232854   0.062   5.816  16.273
21928TIP3    H132855  -0.003   5.771  16.332
21928TIP3    H232856   0.006   5.894  16.246
21929TIP3   OH232857   1.474   5.724  16.297
21929TIP3    H132858   1.556   5.708  16.346
21929TIP3    H232859   1.424   5.641  16.316
21930TIP3   OH232860   1.613   5.721  16.741
21930TIP3    H132861   1.551   5.778  16.793
21930TIP3    H232862   1.645   5.782  16.672
21931TIP3   OH232863   1.039   5.707  16.321
21931TIP3    H132864   0.952   5.711  16.362
21931TIP3    H232865   1.027   5.756  16.238
21932TIP3   OH232866   0.450   5.767  16.181
21932TIP3    H132867   0.456   5.773  16.277
21932TIP3    H232868   0.504   5.686  16.160
21933TIP3   OH232869   0.339   5.727  16.611
21933TIP3    H132870   0.408   5.794  16.601
21933TIP3    H232871   0.386   5.644  16.583
21934TIP3   OH232872   1.599   7.337  16.651
21934TIP3    H132873   1.688   7.335  16.692
21934TIP3    H232874   1.582   7.433  16.665
21935TIP3   OH232875   1.434   5.857  16.883
21935TIP3    H132876   1.347   5.815  16.894
21935TIP3    H232877   1.409   5.946  16.853
21936TIP3   OH232878   0.911   5.976  16.639
21936TIP3    H132879   0.869   5.914  16.577
21936TIP3    H232880   0.881   6.060  16.597
21937TIP3   OH232881   0.717   7.526  16.823
21937TIP3    H132882   0.628   7.538  16.861
21937TIP3    H232883   0.720   7.428  16.835
21938TIP3   OH232884   0.071   7.338  16.508
21938TIP3    H132885   0.081   7.254  16.559
21938TIP3    H232886   0.083   7.407  16.578
21939TIP3   OH232887   1.481   5.805  15.360
21939TIP3    H132888   1.542   5.730  15.350
21939TIP3    H232889   1.414   5.786  15.292
21940TIP3   OH232890   1.288   5.747  15.159
21940TIP3    H132891   1.212   5.711  15.208
21940TIP3    H232892   1.324   5.662  15.126
21941TIP3   OH232893   1.412   7.432  16.944
21941TIP3    H132894   1.485   7.474  16.897
21941TIP3    H232895   1.396   7.351  16.894
21942TIP3   OH232896   0.423   5.641  15.151
21942TIP3    H132897   0.420   5.552  15.112
21942TIP3    H232898   0.341   5.637  15.207
21943TIP3   OH232899   0.143   7.271  15.342
21943TIP3    H132900   0.214   7.240  15.400
21943TIP3    H232901   0.164   7.367  15.332
21944TIP3   OH232902   8.090   8.567  16.338
21944TIP3    H132903   8.106   8.663  16.332
21944TIP3    H232904   8.169   8.539  16.387
21945TIP3   OH232905   8.217   8.438  15.993
21945TIP3    H132906   8.203   8.385  15.912
21945TIP3    H232907   8.277   8.382  16.047
21946TIP3   OH232908   8.950   8.451  15.834
21946TIP3    H132909   8.975   8.386  15.765
21946TIP3    H232910   8.875   8.496  15.791
21947TIP3   OH232911   7.877   8.771  16.119
21947TIP3    H132912   7.885   8.691  16.064
21947TIP3    H232913   7.870   8.841  16.050
21948TIP3   OH232914   8.926   8.886  16.012
21948TIP3    H132915   8.929   8.793  16.044
21948TIP3    H232916   8.834   8.888  15.982
21949TIP3   OH232917   9.202   8.217  16.458
21949TIP3    H132918   9.214   8.313  16.466
21949TIP3    H232919   9.274   8.193  16.399
21950TIP3   OH232920   9.188   8.422  16.195
21950TIP3    H132921   9.128   8.347  16.176
21950TIP3    H232922   9.132   8.480  16.248
21951TIP3   OH232923   8.143   9.252  16.065
21951TIP3    H132924   8.071   9.219  16.125
21951TIP3    H232925   8.168   9.168  16.023
21952TIP3   OH232926   8.368   8.674  15.909
21952TIP3    H132927   8.328   8.616  15.977
21952TIP3    H232928   8.288   8.723  15.880
21953TIP3   OH232929   7.536   7.861  15.909
21953TIP3    H132930   7.535   7.913  15.825
21953TIP3    H232931   7.450   7.887  15.947
21954TIP3   OH232932   8.034   8.171  15.888
21954TIP3    H132933   8.026   8.076  15.869
21954TIP3    H232934   8.042   8.165  15.986
21955TIP3   OH232935   8.747   7.951  16.188
21955TIP3    H132936   8.731   8.030  16.245
21955TIP3    H232937   8.777   7.888  16.258
21956TIP3   OH232938   7.999   7.990  16.328
21956TIP3    H132939   7.936   7.944  16.268
21956TIP3    H232940   7.939   8.046  16.379
21957TIP3   OH232941   9.055   8.200  16.126
21957TIP3    H132942   8.992   8.160  16.064
21957TIP3    H232943   9.034   8.147  16.206
21958TIP3   OH232944   8.599   8.358  16.185
21958TIP3    H132945   8.522   8.307  16.150
21958TIP3    H232946   8.640   8.290  16.243
21959TIP3   OH232947   7.516   7.986  15.666
21959TIP3    H132948   7.553   8.076  15.686
21959TIP3    H232949   7.444   8.009  15.606
21960TIP3   OH232950   8.831   7.865  15.784
21960TIP3    H132951   8.873   7.913  15.858
21960TIP3    H232952   8.898   7.883  15.714
21961TIP3   OH232953   8.166   8.808  16.441
21961TIP3    H132954   8.177   8.796  16.537
21961TIP3    H232955   8.187   8.902  16.431
21962TIP3   OH232956   8.612   8.632  15.811
21962TIP3    H132957   8.664   8.713  15.788
21962TIP3    H232958   8.531   8.672  15.852
21963TIP3   OH232959   7.788   7.892  16.184
21963TIP3    H132960   7.796   7.862  16.092
21963TIP3    H232961   7.705   7.941  16.181
21964TIP3   OH232962   8.893   8.046  15.987
21964TIP3    H132963   8.825   8.103  15.941
21964TIP3    H232964   8.837   8.004  16.057
21965TIP3   OH232965   8.746   8.841  15.719
21965TIP3    H132966   8.747   8.938  15.729
21965TIP3    H232967   8.839   8.824  15.692
21966TIP3   OH232968   9.178   8.824  16.587
21966TIP3    H132969   9.168   8.896  16.652
21966TIP3    H232970   9.136   8.862  16.507
21967TIP3   OH232971   7.816   8.959  15.927
21967TIP3    H132972   7.910   8.977  15.904
21967TIP3    H232973   7.791   9.045  15.966
21968TIP3   OH232974   7.803   7.791  15.806
21968TIP3    H132975   7.884   7.815  15.855
21968TIP3    H232976   7.732   7.829  15.861
21969TIP3   OH232977   8.515   7.589  16.050
21969TIP3    H132978   8.546   7.498  16.045
21969TIP3    H232979   8.596   7.637  16.018
21970TIP3   OH232980   7.972   9.147  16.240
21970TIP3    H132981   7.949   9.064  16.286
21970TIP3    H232982   7.907   9.208  16.280
21971TIP3   OH232983   7.858   8.904  16.418
21971TIP3    H132984   7.876   8.843  16.491
21971TIP3    H232985   7.861   8.845  16.340
21972TIP3   OH232986   7.697   8.804  15.538
21972TIP3    H132987   7.703   8.744  15.615
21972TIP3    H232988   7.681   8.887  15.588
21973TIP3   OH232989   8.257   8.474  16.589
21973TIP3    H132990   8.319   8.546  16.614
21973TIP3    H232991   8.173   8.507  16.627
21974TIP3   OH232992   8.254   8.391  16.863
21974TIP3    H132993   8.189   8.407  16.791
21974TIP3    H232994   8.217   8.313  16.906
21975TIP3   OH232995   7.500   8.439  15.751
21975TIP3    H132996   7.567   8.509  15.760
21975TIP3    H232997   7.440   8.465  15.824
21976TIP3   OH232998   7.862   8.484  16.475
21976TIP3    H132999   7.933   8.517  16.415
21976TIP3    H233000   7.806   8.431  16.415
21977TIP3   OH233001   7.873   8.306  15.555
21977TIP3    H133002   7.876   8.390  15.506
21977TIP3    H233003   7.930   8.326  15.631
21978TIP3   OH233004   8.729   8.552  16.309
21978TIP3    H133005   8.773   8.503  16.382
21978TIP3    H233006   8.674   8.481  16.269
21979TIP3   OH233007   8.605   8.895  16.042
21979TIP3    H133008   8.604   8.913  16.139
21979TIP3    H233009   8.527   8.841  16.028
21980TIP3   OH233010   8.682   8.405  15.936
21980TIP3    H133011   8.658   8.418  16.030
21980TIP3    H233012   8.648   8.487  15.894
21981TIP3   OH233013   8.086   8.986  15.870
21981TIP3    H133014   8.120   9.053  15.808
21981TIP3    H233015   8.096   8.903  15.817
21982TIP3   OH233016   8.618   8.863  15.466
21982TIP3    H133017   8.682   8.925  15.425
21982TIP3    H233018   8.666   8.836  15.548
21983TIP3   OH233019   8.014   8.460  16.695
21983TIP3    H133020   7.951   8.479  16.622
21983TIP3    H233021   7.964   8.492  16.774
21984TIP3   OH233022   8.908   8.491  15.549
21984TIP3    H133023   8.907   8.562  15.483
21984TIP3    H233024   9.002   8.465  15.547
21985TIP3   OH233025   8.216   9.146  16.424
21985TIP3    H133026   8.176   9.150  16.336
21985TIP3    H233027   8.306   9.181  16.413
21986TIP3   OH233028   8.797   9.048  15.391
21986TIP3    H133029   8.813   9.051  15.487
21986TIP3    H233030   8.888   9.024  15.361
21987TIP3   OH233031   7.601   7.573  16.683
21987TIP3    H133032   7.698   7.585  16.676
21987TIP3    H233033   7.575   7.654  16.732
21988TIP3   OH233034   8.880   8.447  16.513
21988TIP3    H133035   8.901   8.526  16.567
21988TIP3    H233036   8.918   8.378  16.568
21989TIP3   OH233037   7.547   8.986  16.907
21989TIP3    H133038   7.522   9.079  16.890
21989TIP3    H233039   7.458   8.945  16.910
21990TIP3   OH233040   9.211   8.689  15.622
21990TIP3    H133041   9.265   8.706  15.702
21990TIP3    H233042   9.209   8.591  15.616
21991TIP3   OH233043   9.205   8.969  16.008
21991TIP3    H133044   9.121   8.927  16.035
21991TIP3    H233045   9.177   9.016  15.928
21992TIP3   OH233046   7.459   9.056  15.380
21992TIP3    H133047   7.468   8.958  15.371
21992TIP3    H233048   7.544   9.088  15.344
21993TIP3   OH233049   8.368   8.969  15.534
21993TIP3    H133050   8.348   9.054  15.492
21993TIP3    H233051   8.461   8.948  15.508
21994TIP3   OH233052   8.884   9.223  16.353
21994TIP3    H133053   8.887   9.196  16.258
21994TIP3    H233054   8.946   9.157  16.391
21995TIP3   OH233055   7.985   9.286  16.827
21995TIP3    H133056   7.920   9.221  16.859
21995TIP3    H233057   7.992   9.262  16.731
21996TIP3   OH233058   8.022   9.263  16.566
21996TIP3    H133059   8.116   9.270  16.544
21996TIP3    H233060   7.999   9.184  16.515
21997TIP3   OH233061   7.732   8.169  15.347
21997TIP3    H133062   7.796   8.199  15.415
21997TIP3    H233063   7.759   8.076  15.332
21998TIP3   OH233064   8.986   8.831  15.593
21998TIP3    H133065   8.984   8.821  15.497
21998TIP3    H233066   9.065   8.774  15.611
21999TIP3   OH233067   8.725   7.706  15.959
21999TIP3    H133068   8.810   7.698  16.008
21999TIP3    H233069   8.755   7.757  15.882
22000TIP3   OH233070   8.262   7.649  15.623
22000TIP3    H133071   8.228   7.600  15.544
22000TIP3    H233072   8.359   7.641  15.615
22001TIP3   OH233073   7.965   8.046  15.497
22001TIP3    H133074   8.024   8.014  15.425
22001TIP3    H233075   8.000   8.134  15.518
22002TIP3   OH233076   7.871   8.547  16.906
22002TIP3    H133077   7.876   8.567  17.001
22002TIP3    H233078   7.784   8.586  16.887
22003TIP3   OH233079   8.292   7.948  16.876
22003TIP3    H133080   8.345   7.939  16.795
22003TIP3    H233081   8.314   7.865  16.920
22004TIP3   OH233082   8.714   8.165  15.845
22004TIP3    H133083   8.754   8.197  15.761
22004TIP3    H233084   8.702   8.254  15.888
22005TIP3   OH233085   8.722   8.168  16.341
22005TIP3    H133086   8.818   8.164  16.359
22005TIP3    H233087   8.684   8.145  16.429
22006TIP3   OH233088   8.159   8.248  16.472
22006TIP3    H133089   8.193   8.332  16.513
22006TIP3    H233090   8.107   8.212  16.547
22007TIP3   OH233091   8.301   8.286  15.296
22007TIP3    H133092   8.339   8.195  15.283
22007TIP3    H233093   8.213   8.276  15.254
22008TIP3   OH233094   8.073   8.216  16.161
22008TIP3    H133095   8.085   8.300  16.211
22008TIP3    H233096   8.082   8.150  16.232
22009TIP3   OH233097   9.004   8.201  15.682
22009TIP3    H133098   8.927   8.217  15.626
22009TIP3    H233099   9.007   8.104  15.687
22010TIP3   OH233100   8.622   7.963  16.935
22010TIP3    H133101   8.671   7.923  16.859
22010TIP3    H233102   8.644   8.057  16.937
22011TIP3   OH233103   9.240   7.911  16.244
22011TIP3    H133104   9.157   7.901  16.196
22011TIP3    H233105   9.214   7.919  16.337
22012TIP3   OH233106   9.198   8.003  16.749
22012TIP3    H133107   9.134   7.999  16.821
22012TIP3    H233108   9.229   8.095  16.753
22013TIP3   OH233109   8.165   8.349  15.720
22013TIP3    H133110   8.106   8.289  15.772
22013TIP3    H233111   8.214   8.286  15.663
22014TIP3   OH233112   8.436   7.936  16.237
22014TIP3    H133113   8.525   7.948  16.200
22014TIP3    H233114   8.392   7.885  16.166
22015TIP3   OH233115   8.993   8.065  16.354
22015TIP3    H133116   9.056   8.096  16.423
22015TIP3    H233117   8.950   7.985  16.392
22016TIP3   OH233118   8.661   8.111  16.606
22016TIP3    H133119   8.566   8.122  16.586
22016TIP3    H233120   8.678   8.168  16.684
22017TIP3   OH233121   8.021   7.872  15.943
22017TIP3    H133122   8.082   7.863  15.866
22017TIP3    H233123   8.050   7.803  16.004
22018TIP3   OH233124   8.737   8.220  16.847
22018TIP3    H133125   8.800   8.213  16.922
22018TIP3    H233126   8.662   8.270  16.885
22019TIP3   OH233127   8.920   8.736  15.328
22019TIP3    H133128   8.853   8.730  15.256
22019TIP3    H233129   8.999   8.705  15.280
22020TIP3   OH233130   8.378   8.212  16.100
22020TIP3    H133131   8.285   8.182  16.105
22020TIP3    H233132   8.418   8.147  16.040
22021TIP3   OH233133   8.863   7.827  16.397
22021TIP3    H133134   8.917   7.752  16.360
22021TIP3    H233135   8.833   7.791  16.481
22022TIP3   OH233136   8.480   8.043  15.823
22022TIP3    H133137   8.568   8.087  15.829
22022TIP3    H233138   8.428   8.105  15.771
22023TIP3   OH233139   8.418   8.679  16.630
22023TIP3    H133140   8.496   8.637  16.671
22023TIP3    H233141   8.457   8.710  16.544
22024TIP3   OH233142   7.690   8.647  15.752
22024TIP3    H133143   7.646   8.686  15.832
22024TIP3    H233144   7.776   8.623  15.790
22025TIP3   OH233145   8.032   7.967  16.823
22025TIP3    H133146   8.129   7.966  16.840
22025TIP3    H233147   8.020   8.058  16.791
22026TIP3   OH233148   8.282   8.702  15.537
22026TIP3    H133149   8.314   8.643  15.468
22026TIP3    H233150   8.316   8.789  15.508
22027TIP3   OH233151   7.967   8.186  16.679
22027TIP3    H133152   7.913   8.156  16.603
22027TIP3    H233153   7.946   8.280  16.681
22028TIP3   OH233154   8.899   8.629  16.093
22028TIP3    H133155   8.853   8.604  16.175
22028TIP3    H233156   8.879   8.555  16.033
22029TIP3   OH233157   8.210   8.821  16.720
22029TIP3    H133158   8.260   8.906  16.719
22029TIP3    H233159   8.282   8.760  16.694
22030TIP3   OH233160   9.182   8.438  15.537
22030TIP3    H133161   9.184   8.393  15.451
22030TIP3    H233162   9.220   8.370  15.594
22031TIP3   OH233163   8.549   8.410  15.354
22031TIP3    H133164   8.571   8.369  15.438
22031TIP3    H233165   8.459   8.376  15.337
22032TIP3   OH233166   8.021   8.969  15.519
22032TIP3    H133167   8.101   8.956  15.572
22032TIP3    H233168   8.060   8.999  15.435
22033TIP3   OH233169   7.493   8.163  16.679
22033TIP3    H133170   7.553   8.157  16.756
22033TIP3    H233171   7.470   8.258  16.686
22034TIP3   OH233172   7.466   8.786  15.416
22034TIP3    H133173   7.553   8.786  15.462
22034TIP3    H233174   7.406   8.777  15.493
22035TIP3   OH233175   7.660   9.050  16.650
22035TIP3    H133176   7.714   8.980  16.611
22035TIP3    H233177   7.633   9.013  16.736
22036TIP3   OH233178   7.933   8.545  15.943
22036TIP3    H133179   8.020   8.521  15.979
22036TIP3    H233180   7.875   8.482  15.989
22037TIP3   OH233181   8.666   8.964  16.302
22037TIP3    H133182   8.638   9.044  16.352
22037TIP3    H233183   8.759   8.957  16.329
22038TIP3   OH233184   9.107   8.442  16.805
22038TIP3    H133185   9.026   8.498  16.801
22038TIP3    H233186   9.173   8.500  16.846
22039TIP3   OH233187   8.525   8.750  16.393
22039TIP3    H133188   8.576   8.829  16.369
22039TIP3    H233189   8.562   8.683  16.333
22040TIP3   OH233190   8.508   9.185  15.702
22040TIP3    H133191   8.488   9.277  15.670
22040TIP3    H233192   8.435   9.132  15.665
22041TIP3   OH233193   8.626   9.203  16.423
22041TIP3    H133194   8.721   9.221  16.409
22041TIP3    H233195   8.592   9.284  16.380
22042TIP3   OH233196   8.135   8.738  15.766
22042TIP3    H133197   8.186   8.710  15.686
22042TIP3    H233198   8.083   8.660  15.787
22043TIP3   OH233199   7.895   8.895  16.814
22043TIP3    H133200   7.863   8.831  16.747
22043TIP3    H233201   7.989   8.868  16.819
22044TIP3   OH233202   7.847   9.230  15.551
22044TIP3    H133203   7.916   9.165  15.573
22044TIP3    H233204   7.861   9.303  15.613
22045TIP3   OH233205   7.475   9.241  16.848
22045TIP3    H133206   7.432   9.289  16.920
22045TIP3    H233207   7.525   9.312  16.801
22046TIP3   OH233208   9.027   7.918  15.602
22046TIP3    H133209   9.086   7.968  15.543
22046TIP3    H233210   9.059   7.827  15.588
22047TIP3   OH233211   7.811   8.710  16.624
22047TIP3    H133212   7.830   8.623  16.583
22047TIP3    H233213   7.714   8.711  16.614
22048TIP3   OH233214   9.080   9.104  15.764
22048TIP3    H133215   9.026   9.024  15.749
22048TIP3    H233216   9.074   9.148  15.679
22049TIP3   OH233217   8.614   8.921  16.767
22049TIP3    H133218   8.547   8.862  16.728
22049TIP3    H233219   8.584   9.009  16.738
22050TIP3   OH233220   8.966   8.643  16.704
22050TIP3    H133221   9.056   8.677  16.686
22050TIP3    H233222   8.928   8.713  16.760
22051TIP3   OH233223   8.124   7.887  15.679
22051TIP3    H133224   8.063   7.922  15.611
22051TIP3    H233225   8.174   7.818  15.633
22052TIP3   OH233226   8.108   7.888  16.549
22052TIP3    H133227   8.048   7.909  16.622
22052TIP3    H233228   8.070   7.936  16.472
22053TIP3   OH233229   8.334   9.061  16.711
22053TIP3    H133230   8.408   9.124  16.710
22053TIP3    H233231   8.277   9.101  16.781
22054TIP3   OH233232   8.405   8.074  16.481
22054TIP3    H133233   8.329   8.132  16.463
22054TIP3    H233234   8.417   8.023  16.398
22055TIP3   OH233235   8.286   8.158  15.558
22055TIP3    H133236   8.275   8.193  15.467
22055TIP3    H233237   8.270   8.062  15.544
22056TIP3   OH233238   8.305   7.737  16.448
22056TIP3    H133239   8.331   7.793  16.373
22056TIP3    H233240   8.225   7.787  16.479
22057TIP3   OH233241   8.579   9.227  16.724
22057TIP3    H133242   8.576   9.320  16.747
22057TIP3    H233243   8.621   9.223  16.636
22058TIP3   OH233244   8.732   7.863  16.710
22058TIP3    H133245   8.741   7.947  16.661
22058TIP3    H233246   8.640   7.840  16.684
22059TIP3   OH233247   7.721   7.926  15.474
22059TIP3    H133248   7.813   7.951  15.497
22059TIP3    H233249   7.674   7.961  15.551
22060TIP3   OH233250   7.816   8.312  16.116
22060TIP3    H133251   7.895   8.258  16.095
22060TIP3    H233252   7.750   8.270  16.057
22061TIP3   OH233253   8.891   8.889  16.851
22061TIP3    H133254   8.822   8.931  16.797
22061TIP3    H233255   8.833   8.844  16.916
22062TIP3   OH233256   9.043   8.201  16.961
22062TIP3    H133257   9.031   8.281  16.907
22062TIP3    H233258   9.133   8.177  16.937
22063TIP3   OH233259   7.768   9.223  15.917
22063TIP3    H133260   7.768   9.292  15.986
22063TIP3    H233261   7.675   9.234  15.886
22064TIP3   OH233262   8.973   7.657  16.041
22064TIP3    H133263   8.986   7.635  16.136
22064TIP3    H233264   9.009   7.573  16.002
22065TIP3   OH233265   9.065   9.037  16.419
22065TIP3    H133266   9.140   9.072  16.367
22065TIP3    H233267   9.086   9.081  16.505
22066TIP3   OH233268   9.160   9.297  15.260
22066TIP3    H133269   9.103   9.276  15.183
22066TIP3    H233270   9.161   9.214  15.309
22067TIP3   OH233271   8.711   9.145  15.157
22067TIP3    H133272   8.617   9.156  15.178
22067TIP3    H233273   8.745   9.118  15.245
22068TIP3   OH233274   8.212   9.157  16.928
22068TIP3    H133275   8.266   9.109  16.993
22068TIP3    H233276   8.143   9.198  16.982
22069TIP3   OH233277   8.068   9.051  15.264
22069TIP3    H133278   8.092   8.966  15.220
22069TIP3    H233279   7.972   9.051  15.255
22070TIP3   OH233280   7.798   9.130  16.976
22070TIP3    H133281   7.804   9.044  16.928
22070TIP3    H233282   7.701   9.138  16.985
22071TIP3   OH233283   9.184   8.697  15.266
22071TIP3    H133284   9.178   8.607  15.230
22071TIP3    H233285   9.274   8.694  15.304
22072TIP3   OH233286   8.738   8.707  16.981
22072TIP3    H133287   8.704   8.663  16.901
22072TIP3    H233288   8.693   8.655  17.050
22073TIP3   OH233289   8.498   8.667  15.316
22073TIP3    H133290   8.537   8.724  15.386
22073TIP3    H233291   8.515   8.575  15.348
22074TIP3   OH233292   7.927   8.660  15.500
22074TIP3    H133293   7.844   8.713  15.496
22074TIP3    H233294   7.994   8.731  15.498
22075TIP3   OH233295   9.116   8.377  15.226
22075TIP3    H133296   9.041   8.315  15.240
22075TIP3    H233297   9.130   8.370  15.130
22076TIP3   OH233298   8.620   8.536  16.757
22076TIP3    H133299   8.675   8.477  16.703
22076TIP3    H233300   8.580   8.472  16.820
22077TIP3   OH233301   8.740   8.298  15.620
22077TIP3    H133302   8.798   8.366  15.580
22077TIP3    H233303   8.663   8.352  15.647
22078TIP3   OH233304   8.516   8.355  16.941
22078TIP3    H133305   8.488   8.352  17.034
22078TIP3    H233306   8.427   8.359  16.896
22079TIP3   OH233307   8.139   8.576  15.166
22079TIP3    H133308   8.091   8.532  15.238
22079TIP3    H233309   8.198   8.508  15.133
22080TIP3   OH233310   7.605   8.635   8.514
22080TIP3    H133311   7.643   8.631   8.603
22080TIP3    H233312   7.561   8.721   8.511
22081TIP3   OH233313   8.646   8.091  15.464
22081TIP3    H133314   8.639   8.006  15.511
22081TIP3    H233315   8.642   8.156  15.536
22082TIP3   OH233316   8.581   7.872  15.656
22082TIP3    H133317   8.523   7.920  15.720
22082TIP3    H233318   8.665   7.876  15.706
22083TIP3   OH233319   8.484   8.463  15.642
22083TIP3    H133320   8.396   8.481  15.678
22083TIP3    H233321   8.535   8.527  15.695
22084TIP3   OH233322   8.041   8.191  15.152
22084TIP3    H133323   8.037   8.131  15.076
22084TIP3    H233324   7.969   8.252  15.132
22085TIP3   OH233325   7.889   8.480  15.298
22085TIP3    H133326   7.908   8.543  15.372
22085TIP3    H233327   7.793   8.472  15.305
22086TIP3   OH233328   8.895   8.203  15.291
22086TIP3    H133329   8.922   8.109  15.279
22086TIP3    H233330   8.807   8.192  15.330
22087TIP3   OH233331   8.524   7.612  15.642
22087TIP3    H133332   8.551   7.706  15.647
22087TIP3    H233333   8.598   7.570  15.687
22088TIP3   OH233334   8.427   8.059  15.258
22088TIP3    H133335   8.473   8.023  15.177
22088TIP3    H233336   8.496   8.039  15.324
22089TIP3   OH233337   8.165   7.950  15.347
22089TIP3    H133338   8.250   7.965  15.303
22089TIP3    H233339   8.123   7.898  15.275
22090TIP3   OH233340   8.008   7.824  15.144
22090TIP3    H133341   8.016   7.725  15.143
22090TIP3    H233342   8.014   7.849  15.050
22091TIP3   OH233343   9.003   7.956  15.240
22091TIP3    H133344   9.011   7.875  15.294
22091TIP3    H233345   8.993   7.920  15.148
22092TIP3   OH233346   8.519   7.582  15.347
22092TIP3    H133347   8.446   7.517  15.354
22092TIP3    H233348   8.522   7.613  15.439
22093TIP3   OH233349   8.593   7.702  15.123
22093TIP3    H133350   8.553   7.641  15.189
22093TIP3    H233351   8.521   7.767  15.116
22094TIP3   OH233352   9.152   8.870  16.908
22094TIP3    H133353   9.058   8.874  16.880
22094TIP3    H233354   9.141   8.863  17.006
22095TIP3   OH233355   9.200   9.212  16.185
22095TIP3    H133356   9.247   9.140  16.138
22095TIP3    H233357   9.162   9.260  16.110
22096TIP3   OH233358   7.519   9.305  15.877
22096TIP3    H133359   7.457   9.313  15.801
22096TIP3    H233360   7.502   9.386  15.926
22097TIP3   OH233361   7.475   9.225  15.621
22097TIP3    H133362   7.523   9.152  15.664
22097TIP3    H233363   7.422   9.178  15.554
22098TIP3   OH233364   7.540   8.658  16.607
22098TIP3    H133365   7.456   8.708  16.598
22098TIP3    H233366   7.538   8.604  16.525
22099TIP3   OH233367   7.500   8.484  16.405
22099TIP3    H133368   7.575   8.431  16.372
22099TIP3    H233369   7.442   8.490  16.327
22100TIP3   OH233370   7.537   8.728  15.951
22100TIP3    H133371   7.459   8.668  15.955
22100TIP3    H233372   7.497   8.814  15.975
22101TIP3   OH233373   7.644   9.011  15.698
22101TIP3    H133374   7.710   9.075  15.668
22101TIP3    H233375   7.685   8.978  15.782
22102TIP3   OH233376   7.518   8.430  16.772
22102TIP3    H133377   7.572   8.451  16.849
22102TIP3    H233378   7.535   8.506  16.712
22103TIP3   OH233379   7.698   8.173  16.923
22103TIP3    H133380   7.630   8.215  16.977
22103TIP3    H233381   7.685   8.081  16.953
22104TIP3   OH233382   7.684   8.301  16.348
22104TIP3    H133383   7.717   8.214  16.379
22104TIP3    H233384   7.728   8.308  16.260
22105TIP3   OH233385   9.175   8.540  15.947
22105TIP3    H133386   9.180   8.509  16.040
22105TIP3    H233387   9.083   8.513  15.921
22106TIP3   OH233388   7.587   8.508  15.378
22106TIP3    H133389   7.554   8.414  15.369
22106TIP3    H233390   7.521   8.549  15.437
22107TIP3   OH233391   7.488   8.261  15.378
22107TIP3    H133392   7.573   8.210  15.377
22107TIP3    H233393   7.422   8.194  15.350
22108TIP3   OH233394   7.705   7.921  17.024
22108TIP3    H133395   7.652   7.868  16.959
22108TIP3    H233396   7.796   7.915  16.992
22109TIP3   OH233397   7.783   8.095  16.495
22109TIP3    H133398   7.745   8.007  16.471
22109TIP3    H233399   7.728   8.110  16.575
22110TIP3   OH233400   7.662   8.154  15.957
22110TIP3    H133401   7.563   8.164  15.952
22110TIP3    H233402   7.682   8.157  15.862
22111TIP3   OH233403   7.648   8.212  15.683
22111TIP3    H133404   7.722   8.230  15.621
22111TIP3    H233405   7.612   8.302  15.699
22112TIP3   OH233406   9.246   8.055  15.317
22112TIP3    H133407   9.153   8.043  15.289
22112TIP3    H233408   9.284   7.968  15.303
22113TIP3   OH233409   7.438   7.620  15.162
22113TIP3    H133410   7.396   7.557  15.224
22113TIP3    H233411   7.455   7.696  15.223
22114TIP3   OH233412   7.688   7.841  16.486
22114TIP3    H133413   7.654   7.785  16.413
22114TIP3    H233414   7.733   7.776  16.542
22115TIP3   OH233415   9.100   7.884  15.961
22115TIP3    H133416   9.059   7.799  15.988
22115TIP3    H233417   9.028   7.950  15.965
22116TIP3   OH233418   9.251   8.172  15.924
22116TIP3    H133419   9.194   8.146  15.999
22116TIP3    H233420   9.220   8.263  15.909
22117TIP3   OH233421   7.500   7.831  15.311
22117TIP3    H133422   7.577   7.885  15.283
22117TIP3    H233423   7.533   7.798  15.397
22118TIP3   OH233424   7.508   7.826  16.852
22118TIP3    H133425   7.454   7.780  16.918
22118TIP3    H233426   7.444   7.894  16.821
22119TIP3   OH233427   9.255   7.821  16.547
22119TIP3    H133428   9.352   7.820  16.553
22119TIP3    H233429   9.232   7.862  16.632
22120TIP3   OH233430   7.817   9.315  16.362
22120TIP3    H133431   7.725   9.284  16.382
22120TIP3    H233432   7.798   9.380  16.292
22121TIP3   OH233433   9.249   7.671  15.707
22121TIP3    H133434   9.303   7.670  15.627
22121TIP3    H233435   9.294   7.737  15.762
22122TIP3   OH233436   9.054   8.997  15.331
22122TIP3    H133437   9.086   8.905  15.328
22122TIP3    H233438   9.038   9.020  15.238
22123TIP3   OH233439   8.757   9.096  15.660
22123TIP3    H133440   8.798   9.181  15.677
22123TIP3    H233441   8.661   9.120  15.659
22124TIP3   OH233442   8.297   9.222  15.416
22124TIP3    H133443   8.320   9.214  15.322
22124TIP3    H233444   8.203   9.241  15.411
22125TIP3   OH233445   7.602   7.611  15.509
22125TIP3    H133446   7.679   7.660  15.542
22125TIP3    H233447   7.618   7.523  15.547
22126TIP3   OH233448   8.100   9.216  15.705
22126TIP3    H133449   8.155   9.287  15.741
22126TIP3    H233450   8.017   9.234  15.751
22127TIP3   OH233451   9.052   9.290  15.973
22127TIP3    H133452   9.097   9.254  15.895
22127TIP3    H233453   8.990   9.218  15.998
22128TIP3   OH233454   8.870   9.139  16.095
22128TIP3    H133455   8.886   9.044  16.077
22128TIP3    H233456   8.788   9.154  16.042
22129TIP3   OH233457   8.652   9.156  15.942
22129TIP3    H133458   8.641   9.059  15.946
22129TIP3    H233459   8.605   9.178  15.860
22130TIP3   OH233460   8.318   7.754  16.070
22130TIP3    H133461   8.398   7.697  16.054
22130TIP3    H233462   8.255   7.692  16.106
22131TIP3   OH233463   7.716   7.573  16.095
22131TIP3    H133464   7.658   7.629  16.151
22131TIP3    H233465   7.805   7.613  16.112
22132TIP3   OH233466   7.562   7.685  16.296
22132TIP3    H133467   7.492   7.630  16.338
22132TIP3    H233468   7.511   7.768  16.277
22133TIP3   OH233469   8.997   7.615  16.310
22133TIP3    H133470   9.077   7.604  16.366
22133TIP3    H233471   8.952   7.528  16.322
22134TIP3   OH233472   9.109   7.574  16.742
22134TIP3    H133473   9.087   7.642  16.808
22134TIP3    H233474   9.167   7.621  16.680
22135TIP3   OH233475   8.577   7.587  16.324
22135TIP3    H133476   8.492   7.592  16.371
22135TIP3    H233477   8.551   7.610  16.233
22136TIP3   OH233478   7.975   7.626  16.175
22136TIP3    H133479   7.999   7.642  16.268
22136TIP3    H233480   8.033   7.550  16.153
22137TIP3   OH233481   7.852   7.619  16.635
22137TIP3    H133482   7.916   7.626  16.708
22137TIP3    H233483   7.895   7.551  16.578
22138TIP3   OH233484   9.134   9.188  16.632
22138TIP3    H133485   9.228   9.201  16.610
22138TIP3    H233486   9.116   9.275  16.673
22139TIP3   OH233487   8.960   7.756  16.892
22139TIP3    H133488   8.883   7.707  16.926
22139TIP3    H233489   8.917   7.824  16.839
22140TIP3   OH233490   8.460   7.855  16.642
22140TIP3    H133491   8.420   7.792  16.579
22140TIP3    H233492   8.432   7.939  16.597
22141TIP3   OH233493   8.223   9.400  16.794
22141TIP3    H133494   8.130   9.371  16.800
22141TIP3    H233495   8.263   9.324  16.840
22142TIP3   OH233496   7.591   9.246  16.475
22142TIP3    H133497   7.612   9.176  16.541
22142TIP3    H233498   7.590   9.322  16.537
22143TIP3   OH233499   9.061   7.683  15.383
22143TIP3    H133500   9.109   7.599  15.373
22143TIP3    H233501   8.976   7.661  15.338
22144TIP3   OH233502   8.848   7.631  15.204
22144TIP3    H133503   8.759   7.667  15.183
22144TIP3    H233504   8.822   7.539  15.223
22145TIP3   OH233505   8.894   9.322  16.919
22145TIP3    H133506   8.949   9.354  16.844
22145TIP3    H233507   8.899   9.226  16.912
22146TIP3   OH233508   8.009   7.556  15.154
22146TIP3    H133509   8.011   7.537  15.058
22146TIP3    H233510   7.919   7.526  15.177
22147TIP3   OH233511   7.692   9.179  15.322
22147TIP3    H133512   7.733   9.192  15.410
22147TIP3    H233513   7.636   9.258  15.315
22148TIP3   OH233514   6.194   8.565  16.325
22148TIP3    H133515   6.200   8.660  16.305
22148TIP3    H233516   6.279   8.550  16.371
22149TIP3   OH233517   6.340   8.425  16.004
22149TIP3    H133518   6.325   8.377  15.919
22149TIP3    H233519   6.409   8.373  16.049
22150TIP3   OH233520   7.139   8.417  15.843
22150TIP3    H133521   7.131   8.339  15.785
22150TIP3    H233522   7.072   8.475  15.802
22151TIP3   OH233523   6.008   8.761  16.108
22151TIP3    H133524   6.000   8.681  16.053
22151TIP3    H233525   5.990   8.832  16.044
22152TIP3   OH233526   7.023   8.906  16.028
22152TIP3    H133527   7.053   8.814  16.043
22152TIP3    H233528   6.928   8.884  16.021
22153TIP3   OH233529   7.328   8.213  16.451
22153TIP3    H133530   7.355   8.302  16.424
22153TIP3    H233531   7.413   8.177  16.485
22154TIP3   OH233532   7.302   8.459  16.194
22154TIP3    H133533   7.267   8.367  16.182
22154TIP3    H233534   7.222   8.513  16.209
22155TIP3   OH233535   6.262   9.242  16.073
22155TIP3    H133536   6.191   9.217  16.135
22155TIP3    H233537   6.275   9.158  16.027
22156TIP3   OH233538   6.487   8.695  15.947
22156TIP3    H133539   6.447   8.623  15.999
22156TIP3    H233540   6.409   8.728  15.898
22157TIP3   OH233541   5.650   7.885  15.911
22157TIP3    H133542   5.643   7.930  15.824
22157TIP3    H233543   5.558   7.891  15.940
22158TIP3   OH233544   6.152   8.162  15.883
22158TIP3    H133545   6.132   8.068  15.866
22158TIP3    H233546   6.170   8.157  15.979
22159TIP3   OH233547   6.857   7.941  16.212
22159TIP3    H133548   6.849   8.025  16.262
22159TIP3    H233549   6.910   7.889  16.276
22160TIP3   OH233550   6.111   8.000  16.320
22160TIP3    H133551   6.044   7.951  16.265
22160TIP3    H233552   6.052   8.056  16.373
22161TIP3   OH233553   7.213   8.208  16.126
22161TIP3    H133554   7.150   8.174  16.059
22161TIP3    H233555   7.180   8.163  16.207
22162TIP3   OH233556   6.739   8.356  16.176
22162TIP3    H133557   6.661   8.306  16.144
22162TIP3    H233558   6.774   8.291  16.241
22163TIP3   OH233559   5.627   8.003  15.661
22163TIP3    H133560   5.664   8.087  15.698
22163TIP3    H233561   5.610   8.032  15.570
22164TIP3   OH233562   6.947   7.852  15.790
22164TIP3    H133563   6.999   7.903  15.856
22164TIP3    H233564   6.999   7.869  15.710
22165TIP3   OH233565   6.281   8.808  16.441
22165TIP3    H133566   6.286   8.791  16.537
22165TIP3    H233567   6.298   8.904  16.438
22166TIP3   OH233568   6.730   8.634  15.813
22166TIP3    H133569   6.780   8.716  15.789
22166TIP3    H233570   6.660   8.672  15.870
22167TIP3   OH233571   5.904   7.911  16.178
22167TIP3    H133572   5.905   7.857  16.097
22167TIP3    H233573   5.830   7.969  16.155
22168TIP3   OH233574   7.017   8.049  15.993
22168TIP3    H133575   6.954   8.111  15.948
22168TIP3    H233576   6.964   8.021  16.070
22169TIP3   OH233577   6.863   8.850  15.709
22169TIP3    H133578   6.871   8.948  15.706
22169TIP3    H233579   6.952   8.824  15.673
22170TIP3   OH233580   7.282   8.780  16.602
22170TIP3    H133581   7.280   8.836  16.681
22170TIP3    H233582   7.278   8.847  16.530
22171TIP3   OH233583   5.929   8.961  15.937
22171TIP3    H133584   6.022   8.977  15.910
22171TIP3    H233585   5.908   9.048  15.977
22172TIP3   OH233586   5.919   7.788  15.818
22172TIP3    H133587   5.999   7.808  15.870
22172TIP3    H233588   5.850   7.826  15.876
22173TIP3   OH233589   6.616   7.607  16.050
22173TIP3    H133590   6.642   7.515  16.064
22173TIP3    H233591   6.704   7.643  16.019
22174TIP3   OH233592   6.084   9.140  16.244
22174TIP3    H133593   6.072   9.055  16.291
22174TIP3    H233594   6.021   9.197  16.293
22175TIP3   OH233595   5.971   8.903  16.418
22175TIP3    H133596   5.994   8.846  16.494
22175TIP3    H233597   5.981   8.840  16.344
22176TIP3   OH233598   5.799   8.814  15.548
22176TIP3    H133599   5.810   8.743  15.616
22176TIP3    H233600   5.782   8.889  15.608
22177TIP3   OH233601   6.364   8.472  16.590
22177TIP3    H133602   6.428   8.544  16.613
22177TIP3    H233603   6.280   8.505  16.630
22178TIP3   OH233604   6.364   8.383  16.865
22178TIP3    H133605   6.306   8.402  16.789
22178TIP3    H233606   6.317   8.310  16.907
22179TIP3   OH233607   5.609   8.445  15.753
22179TIP3    H133608   5.678   8.514  15.748
22179TIP3    H233609   5.552   8.484  15.823
22180TIP3   OH233610   5.975   8.492  16.476
22180TIP3    H133611   6.047   8.521  16.415
22180TIP3    H233612   5.918   8.440  16.415
22181TIP3   OH233613   5.997   8.305  15.565
22181TIP3    H133614   6.014   8.385  15.513
22181TIP3    H233615   6.063   8.314  15.636
22182TIP3   OH233616   6.866   8.544  16.315
22182TIP3    H133617   6.879   8.499  16.401
22182TIP3    H233618   6.810   8.479  16.268
22183TIP3   OH233619   6.713   8.894  16.034
22183TIP3    H133620   6.701   8.902  16.130
22183TIP3    H233621   6.638   8.838  16.007
22184TIP3   OH233622   6.846   8.424  15.935
22184TIP3    H133623   6.809   8.424  16.026
22184TIP3    H233624   6.793   8.495  15.892
22185TIP3   OH233625   6.198   8.980  15.869
22185TIP3    H133626   6.226   9.054  15.811
22185TIP3    H233627   6.214   8.899  15.815
22186TIP3   OH233628   6.720   8.868  15.449
22186TIP3    H133629   6.781   8.939  15.419
22186TIP3    H233630   6.758   8.844  15.536
22187TIP3   OH233631   6.126   8.458  16.694
22187TIP3    H133632   6.066   8.470  16.616
22187TIP3    H233633   6.074   8.494  16.769
22188TIP3   OH233634   7.027   8.496  15.593
22188TIP3    H133635   7.012   8.585  15.559
22188TIP3    H233636   7.101   8.465  15.537
22189TIP3   OH233637   6.326   9.121  16.397
22189TIP3    H133638   6.288   9.144  16.311
22189TIP3    H233639   6.405   9.175  16.405
22190TIP3   OH233640   6.914   9.054  15.402
22190TIP3    H133641   6.928   9.065  15.498
22190TIP3    H233642   7.003   9.025  15.371
22191TIP3   OH233643   5.721   7.576  16.685
22191TIP3    H133644   5.819   7.578  16.679
22191TIP3    H233645   5.705   7.661  16.727
22192TIP3   OH233646   6.972   8.437  16.550
22192TIP3    H133647   7.016   8.520  16.577
22192TIP3    H233648   7.039   8.371  16.574
22193TIP3   OH233649   5.660   8.977  16.908
22193TIP3    H133650   5.638   9.073  16.901
22193TIP3    H233651   5.568   8.942  16.913
22194TIP3   OH233652   7.321   8.713  15.631
22194TIP3    H133653   7.371   8.701  15.714
22194TIP3    H233654   7.298   8.618  15.615
22195TIP3   OH233655   7.346   8.968  15.977
22195TIP3    H133656   7.254   8.961  16.005
22195TIP3    H233657   7.343   9.043  15.917
22196TIP3   OH233658   5.580   9.059  15.373
22196TIP3    H133659   5.591   8.964  15.355
22196TIP3    H233660   5.659   9.094  15.325
22197TIP3   OH233661   6.454   8.979  15.546
22197TIP3    H133662   6.445   9.070  15.513
22197TIP3    H233663   6.545   8.956  15.519
22198TIP3   OH233664   7.024   9.210  16.352
22198TIP3    H133665   6.995   9.196  16.258
22198TIP3    H233666   7.106   9.157  16.350
22199TIP3   OH233667   6.090   9.279  16.829
22199TIP3    H133668   6.020   9.220  16.862
22199TIP3    H233669   6.092   9.256  16.734
22200TIP3   OH233670   6.140   9.261  16.565
22200TIP3    H133671   6.234   9.281  16.556
22200TIP3    H233672   6.133   9.177  16.517
22201TIP3   OH233673   5.853   8.177  15.350
22201TIP3    H133674   5.900   8.212  15.428
22201TIP3    H233675   5.870   8.081  15.354
22202TIP3   OH233676   7.087   8.831  15.564
22202TIP3    H133677   7.082   8.793  15.474
22202TIP3    H233678   7.179   8.804  15.589
22203TIP3   OH233679   6.851   7.682  15.961
22203TIP3    H133680   6.943   7.691  15.994
22203TIP3    H233681   6.857   7.741  15.883
22204TIP3   OH233682   6.359   7.650  15.650
22204TIP3    H133683   6.319   7.614  15.568
22204TIP3    H233684   6.455   7.650  15.631
22205TIP3   OH233685   6.090   8.040  15.496
22205TIP3    H133686   6.164   8.017  15.435
22205TIP3    H233687   6.086   8.137  15.496
22206TIP3   OH233688   5.989   8.549  16.907
22206TIP3    H133689   5.984   8.560  17.002
22206TIP3    H233690   5.917   8.609  16.881
22207TIP3   OH233691   6.407   7.956  16.890
22207TIP3    H133692   6.457   7.952  16.806
22207TIP3    H233693   6.439   7.878  16.935
22208TIP3   OH233694   6.837   8.171  15.842
22208TIP3    H133695   6.904   8.182  15.772
22208TIP3    H233696   6.836   8.263  15.877
22209TIP3   OH233697   6.847   8.169  16.353
22209TIP3    H133698   6.943   8.162  16.368
22209TIP3    H233699   6.810   8.146  16.441
22210TIP3   OH233700   6.271   8.255  16.466
22210TIP3    H133701   6.307   8.336  16.510
22210TIP3    H233702   6.218   8.219  16.539
22211TIP3   OH233703   6.397   8.290  15.296
22211TIP3    H133704   6.450   8.207  15.283
22211TIP3    H233705   6.312   8.264  15.254
22212TIP3   OH233706   6.204   8.207  16.151
22212TIP3    H133707   6.211   8.286  16.207
22212TIP3    H233708   6.193   8.137  16.218
22213TIP3   OH233709   7.093   8.169  15.710
22213TIP3    H133710   7.052   8.209  15.632
22213TIP3    H233711   7.117   8.081  15.675
22214TIP3   OH233712   6.755   7.968  16.933
22214TIP3    H133713   6.788   7.908  16.863
22214TIP3    H233714   6.784   8.057  16.902
22215TIP3   OH233715   7.407   7.907  16.260
22215TIP3    H133716   7.340   7.915  16.191
22215TIP3    H233717   7.365   7.948  16.336
22216TIP3   OH233718   7.304   7.979  16.750
22216TIP3    H133719   7.240   8.019  16.812
22216TIP3    H233720   7.355   8.058  16.723
22217TIP3   OH233721   6.282   8.349  15.738
22217TIP3    H133722   6.226   8.283  15.784
22217TIP3    H233723   6.335   8.292  15.678
22218TIP3   OH233724   6.548   7.924  16.262
22218TIP3    H133725   6.641   7.927  16.232
22218TIP3    H233726   6.500   7.899  16.181
22219TIP3   OH233727   7.120   8.083  16.346
22219TIP3    H133728   7.186   8.127  16.405
22219TIP3    H233729   7.103   7.997  16.393
22220TIP3   OH233730   6.767   8.119  16.609
22220TIP3    H133731   6.670   8.134  16.602
22220TIP3    H233732   6.793   8.168  16.690
22221TIP3   OH233733   6.137   7.863  15.944
22221TIP3    H133734   6.198   7.865  15.867
22221TIP3    H233735   6.181   7.806  16.009
22222TIP3   OH233736   6.838   8.214  16.851
22222TIP3    H133737   6.903   8.209  16.924
22222TIP3    H233738   6.767   8.269  16.890
22223TIP3   OH233739   7.071   8.672  15.338
22223TIP3    H133740   6.984   8.673  15.295
22223TIP3    H233741   7.130   8.645  15.266
22224TIP3   OH233742   6.504   8.208  16.103
22224TIP3    H133743   6.410   8.183  16.113
22224TIP3    H233744   6.535   8.147  16.034
22225TIP3   OH233745   7.008   7.837  16.411
22225TIP3    H133746   7.053   7.760  16.368
22225TIP3    H233747   6.963   7.795  16.487
22226TIP3   OH233748   6.593   8.041  15.825
22226TIP3    H133749   6.673   8.095  15.841
22226TIP3    H233750   6.543   8.094  15.762
22227TIP3   OH233751   6.530   8.674  16.618
22227TIP3    H133752   6.604   8.617  16.649
22227TIP3    H233753   6.570   8.706  16.532
22228TIP3   OH233754   5.816   8.640  15.747
22228TIP3    H133755   5.765   8.671  15.825
22228TIP3    H233756   5.900   8.617  15.788
22229TIP3   OH233757   6.150   7.967  16.835
22229TIP3    H133758   6.235   7.984  16.880
22229TIP3    H233759   6.130   8.054  16.796
22230TIP3   OH233760   6.384   8.695  15.486
22230TIP3    H133761   6.435   8.658  15.412
22230TIP3    H233762   6.415   8.787  15.488
22231TIP3   OH233763   6.082   8.185  16.680
22231TIP3    H133764   6.017   8.162  16.611
22231TIP3    H233765   6.054   8.276  16.702
22232TIP3   OH233766   7.020   8.635  16.077
22232TIP3    H133767   6.967   8.615  16.156
22232TIP3    H233768   7.004   8.558  16.020
22233TIP3   OH233769   6.328   8.823  16.714
22233TIP3    H133770   6.367   8.912  16.702
22233TIP3    H233771   6.403   8.764  16.691
22234TIP3   OH233772   7.314   8.455  15.537
22234TIP3    H133773   7.326   8.403  15.455
22234TIP3    H233774   7.378   8.411  15.596
22235TIP3   OH233775   6.658   8.436  15.372
22235TIP3    H133776   6.663   8.375  15.447
22235TIP3    H233777   6.570   8.417  15.337
22236TIP3   OH233778   6.132   8.940  15.538
22236TIP3    H133779   6.200   8.943  15.606
22236TIP3    H233780   6.180   8.980  15.464
22237TIP3   OH233781   5.605   8.164  16.677
22237TIP3    H133782   5.666   8.156  16.753
22237TIP3    H233783   5.584   8.260  16.685
22238TIP3   OH233784   5.576   8.741  15.417
22238TIP3    H133785   5.658   8.780  15.456
22238TIP3    H233786   5.520   8.736  15.496
22239TIP3   OH233787   5.792   9.058  16.657
22239TIP3    H133788   5.827   8.983  16.606
22239TIP3    H233789   5.755   9.015  16.737
22240TIP3   OH233790   6.043   8.523  15.959
22240TIP3    H133791   6.138   8.505  15.970
22240TIP3    H233792   6.007   8.454  16.019
22241TIP3   OH233793   6.793   8.964  16.307
22241TIP3    H133794   6.754   9.053  16.312
22241TIP3    H233795   6.868   8.973  16.367
22242TIP3   OH233796   7.221   8.429  16.860
22242TIP3    H133797   7.163   8.495  16.819
22242TIP3    H233798   7.311   8.458  16.836
22243TIP3   OH233799   6.665   8.741  16.393
22243TIP3    H133800   6.707   8.827  16.370
22243TIP3    H233801   6.701   8.682  16.324
22244TIP3   OH233802   6.610   9.194  15.739
22244TIP3    H133803   6.594   9.288  15.711
22244TIP3    H233804   6.543   9.145  15.690
22245TIP3   OH233805   6.753   9.211  16.428
22245TIP3    H133806   6.850   9.223  16.414
22245TIP3    H233807   6.724   9.294  16.384
22246TIP3   OH233808   6.277   8.733  15.754
22246TIP3    H133809   6.317   8.714  15.667
22246TIP3    H233810   6.227   8.652  15.770
22247TIP3   OH233811   6.011   8.889  16.825
22247TIP3    H133812   5.977   8.829  16.755
22247TIP3    H233813   6.105   8.867  16.824
22248TIP3   OH233814   5.942   9.220  15.566
22248TIP3    H133815   6.020   9.161  15.566
22248TIP3    H233816   5.973   9.304  15.604
22249TIP3   OH233817   5.603   9.233  16.861
22249TIP3    H133818   5.545   9.286  16.919
22249TIP3    H233819   5.653   9.303  16.812
22250TIP3   OH233820   7.120   7.937  15.556
22250TIP3    H133821   7.196   7.972  15.504
22250TIP3    H233822   7.105   7.855  15.507
22251TIP3   OH233823   5.926   8.712  16.637
22251TIP3    H133824   5.948   8.625  16.598
22251TIP3    H233825   5.830   8.715  16.616
22252TIP3   OH233826   7.187   9.103  15.740
22252TIP3    H133827   7.129   9.026  15.747
22252TIP3    H233828   7.153   9.149  15.662
22253TIP3   OH233829   6.719   8.924  16.761
22253TIP3    H133830   6.660   8.857  16.721
22253TIP3    H233831   6.683   9.007  16.727
22254TIP3   OH233832   7.081   8.640  16.722
22254TIP3    H133833   7.154   8.683  16.672
22254TIP3    H233834   7.027   8.717  16.748
22255TIP3   OH233835   6.256   7.896  15.693
22255TIP3    H133836   6.203   7.922  15.616
22255TIP3    H233837   6.298   7.812  15.662
22256TIP3   OH233838   6.221   7.887  16.537
22256TIP3    H133839   6.183   7.927  16.616
22256TIP3    H233840   6.184   7.939  16.462
22257TIP3   OH233841   6.430   9.088  16.696
22257TIP3    H133842   6.515   9.134  16.699
22257TIP3    H233843   6.385   9.122  16.777
22258TIP3   OH233844   6.492   8.077  16.492
22258TIP3    H133845   6.417   8.138  16.474
22258TIP3    H233846   6.504   8.032  16.406
22259TIP3   OH233847   6.404   8.171  15.556
22259TIP3    H133848   6.407   8.195  15.461
22259TIP3    H233849   6.386   8.076  15.556
22260TIP3   OH233850   6.417   7.735  16.441
22260TIP3    H133851   6.457   7.796  16.375
22260TIP3    H233852   6.340   7.791  16.471
22261TIP3   OH233853   6.704   9.241  16.700
22261TIP3    H133854   6.693   9.336  16.706
22261TIP3    H233855   6.735   9.226  16.608
22262TIP3   OH233856   6.862   7.858  16.706
22262TIP3    H133857   6.857   7.946  16.660
22262TIP3    H233858   6.777   7.820  16.678
22263TIP3   OH233859   5.843   7.928  15.476
22263TIP3    H133860   5.936   7.958  15.490
22263TIP3    H233861   5.806   7.932  15.566
22264TIP3   OH233862   5.941   8.303  16.113
22264TIP3    H133863   6.014   8.243  16.090
22264TIP3    H233864   5.870   8.268  16.054
22265TIP3   OH233865   7.016   8.889  16.859
22265TIP3    H133866   6.951   8.937  16.806
22265TIP3    H233867   6.956   8.837  16.916
22266TIP3   OH233868   7.171   8.175  16.942
22266TIP3    H133869   7.164   8.267  16.910
22266TIP3    H233870   7.255   8.179  16.989
22267TIP3   OH233871   5.893   9.229  15.915
22267TIP3    H133872   5.890   9.295  15.987
22267TIP3    H233873   5.800   9.234  15.885
22268TIP3   OH233874   7.105   7.655  16.034
22268TIP3    H133875   7.108   7.638  16.130
22268TIP3    H233876   7.125   7.565  15.999
22269TIP3   OH233877   7.232   9.015  16.462
22269TIP3    H133878   7.306   9.062  16.421
22269TIP3    H233879   7.225   9.074  16.541
22270TIP3   OH233880   7.328   9.278  15.308
22270TIP3    H133881   7.266   9.250  15.237
22270TIP3    H233882   7.360   9.190  15.340
22271TIP3   OH233883   6.795   9.176  15.169
22271TIP3    H133884   6.711   9.216  15.191
22271TIP3    H233885   6.832   9.151  15.256
22272TIP3   OH233886   6.330   9.160  16.926
22272TIP3    H133887   6.386   9.116  16.994
22272TIP3    H233888   6.251   9.186  16.976
22273TIP3   OH233889   6.184   9.065  15.263
22273TIP3    H133890   6.211   8.975  15.234
22273TIP3    H233891   6.087   9.059  15.258
22274TIP3   OH233892   5.906   9.127  16.985
22274TIP3    H133893   5.912   9.044  16.932
22274TIP3    H233894   5.809   9.135  16.995
22275TIP3   OH233895   7.345   8.685  15.212
22275TIP3    H133896   7.344   8.589  15.224
22275TIP3    H233897   7.396   8.716  15.292
22276TIP3   OH233898   6.837   8.704  16.965
22276TIP3    H133899   6.804   8.656  16.886
22276TIP3    H233900   6.785   8.663  17.037
22277TIP3   OH233901   6.602   8.686  15.254
22277TIP3    H133902   6.648   8.744  15.318
22277TIP3    H233903   6.644   8.599  15.270
22278TIP3   OH233904   6.066   8.665  15.519
22278TIP3    H133905   5.985   8.719  15.517
22278TIP3    H233906   6.130   8.737  15.504
22279TIP3   OH233907   7.189   8.397  15.230
22279TIP3    H133908   7.147   8.316  15.194
22279TIP3    H233909   7.182   8.454  15.151
22280TIP3   OH233910   6.727   8.538  16.748
22280TIP3    H133911   6.794   8.485  16.702
22280TIP3    H233912   6.684   8.472  16.807
22281TIP3   OH233913   6.841   8.300  15.595
22281TIP3    H133914   6.898   8.369  15.559
22281TIP3    H233915   6.769   8.355  15.632
22282TIP3   OH233916   6.624   8.358  16.940
22282TIP3    H133917   6.596   8.361  17.033
22282TIP3    H233918   6.536   8.355  16.896
22283TIP3   OH233919   6.283   8.550  15.164
22283TIP3    H133920   6.252   8.515  15.249
22283TIP3    H233921   6.339   8.478  15.128
22284TIP3   OH233922   5.719   8.645   8.525
22284TIP3    H133923   5.771   8.659   8.606
22284TIP3    H233924   5.697   8.735   8.498
22285TIP3   OH233925   6.738   8.076  15.462
22285TIP3    H133926   6.725   7.999  15.521
22285TIP3    H233927   6.752   8.150  15.524
22286TIP3   OH233928   6.708   7.877  15.649
22286TIP3    H133929   6.664   7.924  15.723
22286TIP3    H233930   6.797   7.864  15.687
22287TIP3   OH233931   6.611   8.452  15.653
22287TIP3    H133932   6.521   8.483  15.672
22287TIP3    H233933   6.663   8.523  15.696
22288TIP3   OH233934   6.127   8.178  15.183
22288TIP3    H133935   6.097   8.089  15.204
22288TIP3    H233936   6.044   8.227  15.194
22289TIP3   OH233937   5.996   8.498  15.310
22289TIP3    H133938   6.021   8.557  15.384
22289TIP3    H233939   5.900   8.488  15.326
22290TIP3   OH233940   6.915   8.103  15.250
22290TIP3    H133941   7.000   8.058  15.271
22290TIP3    H233942   6.857   8.089  15.327
22291TIP3   OH233943   6.631   7.622  15.651
22291TIP3    H133944   6.664   7.715  15.650
22291TIP3    H233945   6.710   7.574  15.680
22292TIP3   OH233946   6.530   8.062  15.248
22292TIP3    H133947   6.564   8.033  15.161
22292TIP3    H233948   6.601   8.028  15.304
22293TIP3   OH233949   6.282   7.969  15.329
22293TIP3    H133950   6.371   7.992  15.295
22293TIP3    H233951   6.256   7.904  15.261
22294TIP3   OH233952   6.075   7.821  15.174
22294TIP3    H133953   6.100   7.726  15.171
22294TIP3    H233954   6.101   7.847  15.083
22295TIP3   OH233955   7.127   7.927  15.223
22295TIP3    H133956   7.153   7.841  15.261
22295TIP3    H233957   7.128   7.913  15.126
22296TIP3   OH233958   6.695   7.546  15.392
22296TIP3    H133959   6.619   7.496  15.359
22296TIP3    H233960   6.666   7.563  15.484
22297TIP3   OH233961   6.578   7.773  15.206
22297TIP3    H133962   6.608   7.683  15.190
22297TIP3    H233963   6.641   7.826  15.156
22298TIP3   OH233964   7.295   8.870  16.906
22298TIP3    H133965   7.200   8.868  16.880
22298TIP3    H233966   7.286   8.865  17.003
22299TIP3   OH233967   7.306   9.222  16.197
22299TIP3    H133968   7.392   9.206  16.157
22299TIP3    H233969   7.255   9.255  16.121
22300TIP3   OH233970   5.633   9.296  15.880
22300TIP3    H133971   5.570   9.309  15.807
22300TIP3    H233972   5.617   9.374  15.934
22301TIP3   OH233973   5.607   9.216  15.618
22301TIP3    H133974   5.645   9.147  15.674
22301TIP3    H233975   5.586   9.165  15.538
22302TIP3   OH233976   5.749   8.829  15.152
22302TIP3    H133977   5.834   8.825  15.105
22302TIP3    H233978   5.696   8.892  15.098
22303TIP3   OH233979   5.655   8.660  16.614
22303TIP3    H133980   5.571   8.711  16.605
22303TIP3    H233981   5.650   8.599  16.537
22304TIP3   OH233982   5.613   8.480  16.414
22304TIP3    H133983   5.688   8.431  16.373
22304TIP3    H233984   5.555   8.493  16.336
22305TIP3   OH233985   5.652   8.717  15.946
22305TIP3    H133986   5.573   8.661  15.959
22305TIP3    H233987   5.617   8.805  15.970
22306TIP3   OH233988   5.763   9.013  15.723
22306TIP3    H133989   5.827   9.075  15.685
22306TIP3    H233990   5.808   8.985  15.806
22307TIP3   OH233991   5.626   8.431  16.775
22307TIP3    H133992   5.689   8.445  16.848
22307TIP3    H233993   5.644   8.507  16.717
22308TIP3   OH233994   5.806   8.169  16.913
22308TIP3    H133995   5.739   8.210  16.970
22308TIP3    H233996   5.795   8.076  16.944
22309TIP3   OH233997   5.804   8.306  16.344
22309TIP3    H133998   5.830   8.220  16.379
22309TIP3    H233999   5.845   8.306  16.255
22310TIP3   OH234000   7.333   8.556  15.938
22310TIP3    H134001   7.337   8.518  16.029
22310TIP3    H234002   7.244   8.521  15.913
22311TIP3   OH234003   5.733   8.511  15.388
22311TIP3    H134004   5.672   8.435  15.377
22311TIP3    H234005   5.675   8.585  15.417
22312TIP3   OH234006   5.607   8.278  15.358
22312TIP3    H134007   5.697   8.236  15.353
22312TIP3    H234008   5.549   8.199  15.349
22313TIP3   OH234009   5.818   7.921  17.020
22313TIP3    H134010   5.761   7.873  16.956
22313TIP3    H234011   5.909   7.911  16.984
22314TIP3   OH234012   5.886   8.099  16.505
22314TIP3    H134013   5.858   8.011  16.472
22314TIP3    H234014   5.828   8.103  16.583
22315TIP3   OH234015   5.778   8.168  15.946
22315TIP3    H134016   5.680   8.163  15.956
22315TIP3    H234017   5.782   8.185  15.851
22316TIP3   OH234018   5.764   8.228  15.679
22316TIP3    H134019   5.851   8.255  15.641
22316TIP3    H234020   5.721   8.316  15.690
22317TIP3   OH234021   7.329   8.034  15.365
22317TIP3    H134022   7.262   8.041  15.293
22317TIP3    H234023   7.378   7.955  15.335
22318TIP3   OH234024   5.802   7.825  16.486
22318TIP3    H134025   5.762   7.778  16.409
22318TIP3    H234026   5.845   7.751  16.532
22319TIP3   OH234027   7.245   7.890  15.999
22319TIP3    H134028   7.209   7.799  16.010
22319TIP3    H234029   7.164   7.945  15.998
22320TIP3   OH234030   7.403   8.204  15.936
22320TIP3    H134031   7.346   8.175  16.009
22320TIP3    H234032   7.344   8.270  15.897
22321TIP3   OH234033   5.647   7.833  15.315
22321TIP3    H134034   5.720   7.879  15.363
22321TIP3    H234035   5.625   7.767  15.383
22322TIP3   OH234036   5.616   7.836  16.855
22322TIP3    H134037   5.564   7.774  16.908
22322TIP3    H234038   5.545   7.898  16.825
22323TIP3   OH234039   7.385   7.808  16.552
22323TIP3    H134040   7.480   7.815  16.537
22323TIP3    H234041   7.373   7.852  16.638
22324TIP3   OH234042   5.929   9.310  16.369
22324TIP3    H134043   5.837   9.284  16.389
22324TIP3    H234044   5.916   9.371  16.294
22325TIP3   OH234045   7.400   7.667  15.723
22325TIP3    H134046   7.463   7.640  15.653
22325TIP3    H234047   7.448   7.736  15.772
22326TIP3   OH234048   7.142   8.973  15.290
22326TIP3    H134049   7.216   8.923  15.327
22326TIP3    H234050   7.179   9.010  15.208
22327TIP3   OH234051   6.865   9.123  15.657
22327TIP3    H134052   6.883   9.218  15.646
22327TIP3    H234053   6.774   9.130  15.693
22328TIP3   OH234054   6.423   9.233  15.424
22328TIP3    H134055   6.447   9.212  15.331
22328TIP3    H234056   6.328   9.246  15.415
22329TIP3   OH234057   5.709   7.609  15.515
22329TIP3    H134058   5.792   7.643  15.552
22329TIP3    H234059   5.699   7.525  15.565
22330TIP3   OH234060   6.212   9.217  15.705
22330TIP3    H134061   6.270   9.286  15.741
22330TIP3    H234062   6.130   9.241  15.750
22331TIP3   OH234063   7.167   9.274  15.950
22331TIP3    H134064   7.183   9.228  15.864
22331TIP3    H234065   7.091   9.221  15.986
22332TIP3   OH234066   6.978   9.161  16.099
22332TIP3    H134067   6.989   9.064  16.088
22332TIP3    H234068   6.892   9.175  16.053
22333TIP3   OH234069   6.748   9.159  15.970
22333TIP3    H134070   6.733   9.061  15.979
22333TIP3    H234071   6.702   9.179  15.886
22334TIP3   OH234072   6.390   7.762  16.080
22334TIP3    H134073   6.467   7.723  16.036
22334TIP3    H234074   6.366   7.694  16.144
22335TIP3   OH234075   5.832   7.590  16.097
22335TIP3    H134076   5.767   7.639  16.152
22335TIP3    H234077   5.919   7.615  16.138
22336TIP3   OH234078   5.671   7.688  16.283
22336TIP3    H134079   5.601   7.634  16.326
22336TIP3    H234080   5.619   7.770  16.262
22337TIP3   OH234081   7.124   7.613  16.307
22337TIP3    H134082   7.206   7.600  16.358
22337TIP3    H234083   7.079   7.528  16.324
22338TIP3   OH234084   7.264   7.607  16.753
22338TIP3    H134085   7.201   7.666  16.801
22338TIP3    H234086   7.301   7.665  16.683
22339TIP3   OH234087   6.703   7.587  16.323
22339TIP3    H134088   6.616   7.594  16.363
22339TIP3    H234089   6.694   7.638  16.241
22340TIP3   OH234090   6.083   7.623  16.199
22340TIP3    H134091   6.118   7.652  16.284
22340TIP3    H234092   6.142   7.548  16.175
22341TIP3   OH234093   5.968   7.613  16.631
22341TIP3    H134094   6.048   7.666  16.639
22341TIP3    H234095   6.006   7.531  16.590
22342TIP3   OH234096   7.294   9.204  16.634
22342TIP3    H134097   7.379   9.202  16.681
22342TIP3    H234098   7.254   9.280  16.680
22343TIP3   OH234099   7.083   7.740  16.893
22343TIP3    H134100   6.995   7.703  16.905
22343TIP3    H234101   7.063   7.827  16.854
22344TIP3   OH234102   6.569   7.863  16.644
22344TIP3    H134103   6.526   7.797  16.586
22344TIP3    H234104   6.541   7.945  16.597
22345TIP3   OH234105   6.326   9.407  16.802
22345TIP3    H134106   6.234   9.375  16.804
22345TIP3    H234107   6.365   9.333  16.852
22346TIP3   OH234108   5.699   9.243  16.480
22346TIP3    H134109   5.729   9.177  16.547
22346TIP3    H234110   5.705   9.324  16.535
22347TIP3   OH234111   7.152   7.686  15.361
22347TIP3    H134112   7.209   7.609  15.347
22347TIP3    H234113   7.074   7.667  15.305
22348TIP3   OH234114   6.940   7.627  15.189
22348TIP3    H134115   6.865   7.658  15.242
22348TIP3    H234116   6.906   7.538  15.168
22349TIP3   OH234117   7.028   9.314  16.943
22349TIP3    H134118   7.100   9.344  16.885
22349TIP3    H234119   7.016   9.222  16.918
22350TIP3   OH234120   6.140   7.558  15.163
22350TIP3    H134121   6.138   7.514  15.073
22350TIP3    H234122   6.057   7.525  15.201
22351TIP3   OH234123   5.824   9.170  15.323
22351TIP3    H134124   5.856   9.171  15.416
22351TIP3    H234125   5.773   9.254  15.322
22352TIP3   OH234126   4.309   8.570  16.328
22352TIP3    H134127   4.319   8.667  16.316
22352TIP3    H234128   4.394   8.549  16.370
22353TIP3   OH234129   4.457   8.423  15.994
22353TIP3    H134130   4.451   8.378  15.907
22353TIP3    H234131   4.524   8.371  16.043
22354TIP3   OH234132   5.243   8.429  15.846
22354TIP3    H134133   5.233   8.367  15.773
22354TIP3    H234134   5.169   8.489  15.832
22355TIP3   OH234135   4.111   8.770  16.114
22355TIP3    H134136   4.107   8.688  16.062
22355TIP3    H234137   4.097   8.839  16.047
22356TIP3   OH234138   5.130   8.902  16.022
22356TIP3    H134139   5.164   8.812  16.036
22356TIP3    H234140   5.036   8.883  16.039
22357TIP3   OH234141   5.448   8.212  16.442
22357TIP3    H134142   5.479   8.303  16.429
22357TIP3    H234143   5.521   8.176  16.496
22358TIP3   OH234144   5.420   8.460  16.189
22358TIP3    H134145   5.387   8.367  16.185
22358TIP3    H234146   5.338   8.512  16.198
22359TIP3   OH234147   4.372   9.256  16.066
22359TIP3    H134148   4.303   9.229  16.132
22359TIP3    H234149   4.383   9.172  16.019
22360TIP3   OH234150   4.603   8.706  15.933
22360TIP3    H134151   4.568   8.635  15.989
22360TIP3    H234152   4.522   8.736  15.887
22361TIP3   OH234153   3.767   7.850  15.907
22361TIP3    H134154   3.746   7.910  15.833
22361TIP3    H234155   3.691   7.863  15.966
22362TIP3   OH234156   4.263   8.165  15.885
22362TIP3    H134157   4.251   8.070  15.863
22362TIP3    H234158   4.268   8.157  15.983
22363TIP3   OH234159   4.962   7.940  16.221
22363TIP3    H134160   4.961   8.027  16.267
22363TIP3    H234161   5.019   7.890  16.284
22364TIP3   OH234162   4.223   7.991  16.328
22364TIP3    H134163   4.162   7.946  16.265
22364TIP3    H234164   4.163   8.050  16.374
22365TIP3   OH234165   5.332   8.208  16.126
22365TIP3    H134166   5.272   8.166  16.062
22365TIP3    H234167   5.298   8.169  16.210
22366TIP3   OH234168   4.852   8.355  16.171
22366TIP3    H134169   4.771   8.303  16.150
22366TIP3    H234170   4.896   8.293  16.233
22367TIP3   OH234171   3.741   7.998  15.673
22367TIP3    H134172   3.783   8.078  15.713
22367TIP3    H234173   3.693   8.040  15.600
22368TIP3   OH234174   5.058   7.862  15.787
22368TIP3    H134175   5.111   7.907  15.857
22368TIP3    H234176   5.116   7.877  15.710
22369TIP3   OH234177   4.399   8.811  16.443
22369TIP3    H134178   4.405   8.797  16.539
22369TIP3    H234179   4.421   8.906  16.436
22370TIP3   OH234180   4.848   8.628  15.805
22370TIP3    H134181   4.898   8.706  15.770
22370TIP3    H234182   4.778   8.672  15.857
22371TIP3   OH234183   4.028   7.908  16.171
22371TIP3    H134184   4.020   7.853  16.091
22371TIP3    H234185   3.955   7.969  16.154
22372TIP3   OH234186   5.127   8.046  16.002
22372TIP3    H134187   5.066   8.109  15.958
22372TIP3    H234188   5.074   8.020  16.081
22373TIP3   OH234189   4.974   8.841  15.692
22373TIP3    H134190   4.978   8.938  15.707
22373TIP3    H234191   5.069   8.826  15.670
22374TIP3   OH234192   5.404   8.780  16.607
22374TIP3    H134193   5.396   8.834  16.688
22374TIP3    H234194   5.394   8.849  16.537
22375TIP3   OH234195   4.037   8.955  15.924
22375TIP3    H134196   4.133   8.967  15.912
22375TIP3    H234197   4.013   9.048  15.944
22376TIP3   OH234198   4.033   7.785  15.808
22376TIP3    H134199   4.117   7.808  15.856
22376TIP3    H234200   3.965   7.821  15.867
22377TIP3   OH234201   4.728   7.603  16.046
22377TIP3    H134202   4.755   7.512  16.063
22377TIP3    H234203   4.816   7.641  16.022
22378TIP3   OH234204   4.208   9.153  16.243
22378TIP3    H134205   4.195   9.069  16.289
22378TIP3    H234206   4.150   9.215  16.294
22379TIP3   OH234207   4.078   8.904  16.424
22379TIP3    H134208   4.105   8.844  16.496
22379TIP3    H234209   4.091   8.848  16.346
22380TIP3   OH234210   3.917   8.816  15.541
22380TIP3    H134211   3.914   8.743  15.607
22380TIP3    H234212   3.895   8.892  15.600
22381TIP3   OH234213   4.480   8.472  16.590
22381TIP3    H134214   4.543   8.545  16.609
22381TIP3    H234215   4.397   8.506  16.630
22382TIP3   OH234216   4.483   8.381  16.862
22382TIP3    H134217   4.425   8.400  16.786
22382TIP3    H234218   4.434   8.310  16.906
22383TIP3   OH234219   3.731   8.433  15.770
22383TIP3    H134220   3.786   8.512  15.752
22383TIP3    H234221   3.674   8.468  15.841
22384TIP3   OH234222   4.093   8.489  16.473
22384TIP3    H134223   4.165   8.517  16.413
22384TIP3    H234224   4.032   8.441  16.413
22385TIP3   OH234225   4.117   8.312  15.560
22385TIP3    H134226   4.137   8.401  15.526
22385TIP3    H234227   4.173   8.312  15.639
22386TIP3   OH234228   4.974   8.549  16.309
22386TIP3    H134229   4.990   8.507  16.396
22386TIP3    H234230   4.920   8.482  16.264
22387TIP3   OH234231   4.828   8.891  16.032
22387TIP3    H134232   4.814   8.901  16.128
22387TIP3    H234233   4.749   8.841  16.004
22388TIP3   OH234234   4.962   8.426  15.932
22388TIP3    H134235   4.920   8.420  16.020
22388TIP3    H234236   4.905   8.492  15.887
22389TIP3   OH234237   4.308   8.986  15.878
22389TIP3    H134238   4.337   9.064  15.826
22389TIP3    H234239   4.330   8.910  15.820
22390TIP3   OH234240   4.830   8.848  15.442
22390TIP3    H134241   4.888   8.922  15.414
22390TIP3    H234242   4.869   8.829  15.531
22391TIP3   OH234243   4.241   8.457  16.698
22391TIP3    H134244   4.183   8.472  16.620
22391TIP3    H234245   4.188   8.495  16.772
22392TIP3   OH234246   5.134   8.501  15.573
22392TIP3    H134247   5.133   8.589  15.532
22392TIP3    H234248   5.221   8.469  15.543
22393TIP3   OH234249   4.447   9.112  16.379
22393TIP3    H134250   4.417   9.140  16.291
22393TIP3    H234251   4.520   9.171  16.400
22394TIP3   OH234252   4.994   9.047  15.383
22394TIP3    H134253   5.012   9.063  15.478
22394TIP3    H234254   5.083   9.025  15.350
22395TIP3   OH234255   3.832   7.576  16.690
22395TIP3    H134256   3.930   7.579  16.679
22395TIP3    H234257   3.817   7.661  16.734
22396TIP3   OH234258   5.086   8.438  16.541
22396TIP3    H134259   5.129   8.520  16.573
22396TIP3    H234260   5.146   8.371  16.574
22397TIP3   OH234261   3.774   8.984  16.911
22397TIP3    H134262   3.748   9.078  16.895
22397TIP3    H234263   3.685   8.943  16.908
22398TIP3   OH234264   5.421   8.718  15.648
22398TIP3    H134265   5.474   8.715  15.728
22398TIP3    H234266   5.398   8.623  15.637
22399TIP3   OH234267   5.476   8.974  15.940
22399TIP3    H134268   5.383   8.992  15.959
22399TIP3    H234269   5.505   9.053  15.892
22400TIP3   OH234270   3.687   9.058  15.356
22400TIP3    H134271   3.702   8.961  15.349
22400TIP3    H234272   3.778   9.090  15.334
22401TIP3   OH234273   4.575   8.943  15.490
22401TIP3    H134274   4.568   9.037  15.462
22401TIP3    H234275   4.670   8.924  15.476
22402TIP3   OH234276   5.132   9.221  16.357
22402TIP3    H134277   5.107   9.207  16.262
22402TIP3    H234278   5.213   9.169  16.360
22403TIP3   OH234279   4.210   9.286  16.830
22403TIP3    H134280   4.141   9.227  16.863
22403TIP3    H234281   4.208   9.264  16.735
22404TIP3   OH234282   4.252   9.254  16.568
22404TIP3    H134283   4.345   9.271  16.549
22404TIP3    H234284   4.231   9.181  16.509
22405TIP3   OH234285   3.965   8.184  15.363
22405TIP3    H134286   4.020   8.222  15.432
22405TIP3    H234287   3.972   8.087  15.377
22406TIP3   OH234288   5.207   8.851  15.566
22406TIP3    H134289   5.201   8.815  15.474
22406TIP3    H234290   5.294   8.813  15.595
22407TIP3   OH234291   4.961   7.701  15.976
22407TIP3    H134292   5.054   7.702  16.006
22407TIP3    H234293   4.968   7.758  15.898
22408TIP3   OH234294   4.494   7.641  15.634
22408TIP3    H134295   4.456   7.604  15.551
22408TIP3    H234296   4.590   7.641  15.616
22409TIP3   OH234297   4.183   8.048  15.519
22409TIP3    H134298   4.251   8.031  15.450
22409TIP3    H234299   4.171   8.144  15.513
22410TIP3   OH234300   4.099   8.546  16.906
22410TIP3    H134301   4.104   8.561  17.001
22410TIP3    H234302   4.016   8.594  16.886
22411TIP3   OH234303   4.524   7.956  16.890
22411TIP3    H134304   4.572   7.957  16.806
22411TIP3    H234305   4.546   7.867  16.923
22412TIP3   OH234306   4.953   8.174  15.840
22412TIP3    H134307   5.031   8.161  15.782
22412TIP3    H234308   4.965   8.269  15.865
22413TIP3   OH234309   4.963   8.170  16.352
22413TIP3    H134310   5.059   8.165  16.369
22413TIP3    H234311   4.924   8.152  16.440
22414TIP3   OH234312   4.390   8.251  16.472
22414TIP3    H134313   4.424   8.335  16.513
22414TIP3    H234314   4.336   8.216  16.545
22415TIP3   OH234315   4.537   8.293  15.312
22415TIP3    H134316   4.556   8.199  15.290
22415TIP3    H234317   4.445   8.301  15.281
22416TIP3   OH234318   4.295   8.210  16.165
22416TIP3    H134319   4.321   8.293  16.210
22416TIP3    H234320   4.308   8.146  16.237
22417TIP3   OH234321   5.195   8.167  15.716
22417TIP3    H134322   5.169   8.217  15.637
22417TIP3    H234323   5.226   8.084  15.676
22418TIP3   OH234324   4.863   7.968  16.935
22418TIP3    H134325   4.900   7.908  16.867
22418TIP3    H234326   4.894   8.056  16.904
22419TIP3   OH234327   5.510   7.913  16.248
22419TIP3    H134328   5.441   7.921  16.180
22419TIP3    H234329   5.473   7.962  16.323
22420TIP3   OH234330   5.418   7.981  16.743
22420TIP3    H134331   5.354   8.017  16.807
22420TIP3    H234332   5.469   8.061  16.724
22421TIP3   OH234333   4.407   8.336  15.739
22421TIP3    H134334   4.343   8.276  15.784
22421TIP3    H234335   4.450   8.275  15.675
22422TIP3   OH234336   4.662   7.924  16.261
22422TIP3    H134337   4.756   7.924  16.232
22422TIP3    H234338   4.614   7.905  16.178
22423TIP3   OH234339   5.233   8.086  16.347
22423TIP3    H134340   5.304   8.125  16.404
22423TIP3    H234341   5.214   8.000  16.391
22424TIP3   OH234342   4.887   8.124  16.613
22424TIP3    H134343   4.791   8.134  16.603
22424TIP3    H234344   4.907   8.172  16.696
22425TIP3   OH234345   4.256   7.865  15.935
22425TIP3    H134346   4.325   7.867  15.865
22425TIP3    H234347   4.294   7.810  16.005
22426TIP3   OH234348   4.951   8.214  16.854
22426TIP3    H134349   5.018   8.208  16.925
22426TIP3    H234350   4.881   8.269  16.896
22427TIP3   OH234351   5.175   8.699  15.330
22427TIP3    H134352   5.095   8.688  15.275
22427TIP3    H234353   5.243   8.666  15.268
22428TIP3   OH234354   4.618   8.204  16.107
22428TIP3    H134355   4.524   8.180  16.112
22428TIP3    H234356   4.653   8.143  16.040
22429TIP3   OH234357   5.130   7.839  16.417
22429TIP3    H134358   5.176   7.766  16.369
22429TIP3    H234359   5.087   7.788  16.488
22430TIP3   OH234360   4.712   8.038  15.826
22430TIP3    H134361   4.794   8.092  15.839
22430TIP3    H234362   4.659   8.094  15.768
22431TIP3   OH234363   4.648   8.674  16.618
22431TIP3    H134364   4.721   8.617  16.651
22431TIP3    H234365   4.688   8.706  16.533
22432TIP3   OH234366   3.912   8.641  15.748
22432TIP3    H134367   3.869   8.685  15.825
22432TIP3    H234368   4.001   8.628  15.785
22433TIP3   OH234369   4.267   7.966  16.824
22433TIP3    H134370   4.346   7.986  16.877
22433TIP3    H234371   4.245   8.054  16.789
22434TIP3   OH234372   4.469   8.696  15.458
22434TIP3    H134373   4.541   8.632  15.461
22434TIP3    H234374   4.518   8.781  15.466
22435TIP3   OH234375   4.195   8.186  16.675
22435TIP3    H134376   4.139   8.166  16.598
22435TIP3    H234377   4.170   8.277  16.697
22436TIP3   OH234378   5.137   8.632  16.090
22436TIP3    H134379   5.082   8.615  16.170
22436TIP3    H234380   5.113   8.558  16.032
22437TIP3   OH234381   4.447   8.824  16.716
22437TIP3    H134382   4.487   8.913  16.703
22437TIP3    H234383   4.521   8.766  16.689
22438TIP3   OH234384   5.417   8.458  15.545
22438TIP3    H134385   5.438   8.407  15.463
22438TIP3    H234386   5.484   8.422  15.606
22439TIP3   OH234387   4.787   8.399  15.339
22439TIP3    H134388   4.834   8.358  15.413
22439TIP3    H234389   4.706   8.343  15.337
22440TIP3   OH234390   4.256   9.006  15.542
22440TIP3    H134391   4.325   8.974  15.601
22440TIP3    H234392   4.297   9.000  15.455
22441TIP3   OH234393   3.720   8.165  16.675
22441TIP3    H134394   3.779   8.154  16.752
22441TIP3    H234395   3.699   8.260  16.684
22442TIP3   OH234396   3.694   8.783  15.394
22442TIP3    H134397   3.787   8.794  15.426
22442TIP3    H234398   3.647   8.772  15.480
22443TIP3   OH234399   3.895   9.050  16.651
22443TIP3    H134400   3.941   8.978  16.606
22443TIP3    H234401   3.864   9.008  16.734
22444TIP3   OH234402   4.157   8.544  15.948
22444TIP3    H134403   4.244   8.517  15.982
22444TIP3    H234404   4.100   8.477  15.990
22445TIP3   OH234405   4.912   8.962  16.305
22445TIP3    H134406   4.879   9.054  16.302
22445TIP3    H234407   4.984   8.970  16.369
22446TIP3   OH234408   5.330   8.431  16.865
22446TIP3    H134409   5.272   8.493  16.817
22446TIP3    H234410   5.420   8.460  16.841
22447TIP3   OH234411   4.777   8.741  16.389
22447TIP3    H134412   4.820   8.828  16.372
22447TIP3    H234413   4.816   8.686  16.320
22448TIP3   OH234414   4.703   9.197  15.726
22448TIP3    H134415   4.698   9.295  15.718
22448TIP3    H234416   4.635   9.168  15.663
22449TIP3   OH234417   4.867   9.210  16.437
22449TIP3    H134418   4.964   9.222  16.421
22449TIP3    H234419   4.837   9.291  16.391
22450TIP3   OH234420   4.387   8.737  15.757
22450TIP3    H134421   4.424   8.714  15.669
22450TIP3    H234422   4.322   8.666  15.771
22451TIP3   OH234423   4.127   8.895  16.815
22451TIP3    H134424   4.094   8.829  16.750
22451TIP3    H234425   4.220   8.866  16.821
22452TIP3   OH234426   4.096   9.235  15.534
22452TIP3    H134427   4.162   9.164  15.551
22452TIP3    H234428   4.116   9.306  15.596
22453TIP3   OH234429   3.709   9.239  16.851
22453TIP3    H134430   3.659   9.286  16.920
22453TIP3    H234431   3.763   9.311  16.811
22454TIP3   OH234432   5.246   7.945  15.568
22454TIP3    H134433   5.333   7.983  15.551
22454TIP3    H234434   5.246   7.871  15.506
22455TIP3   OH234435   4.038   8.709  16.633
22455TIP3    H134436   4.061   8.626  16.585
22455TIP3    H234437   3.941   8.711  16.619
22456TIP3   OH234438   5.278   9.125  15.736
22456TIP3    H134439   5.236   9.038  15.740
22456TIP3    H234440   5.249   9.160  15.651
22457TIP3   OH234441   4.834   8.922  16.771
22457TIP3    H134442   4.774   8.860  16.725
22457TIP3    H234443   4.813   9.007  16.731
22458TIP3   OH234444   5.204   8.637  16.717
22458TIP3    H134445   5.273   8.680  16.661
22458TIP3    H234446   5.158   8.714  16.754
22459TIP3   OH234447   4.375   7.898  15.679
22459TIP3    H134448   4.305   7.928  15.620
22459TIP3    H234449   4.409   7.817  15.635
22460TIP3   OH234450   4.342   7.888  16.538
22460TIP3    H134451   4.300   7.926  16.616
22460TIP3    H234452   4.296   7.933  16.463
22461TIP3   OH234453   4.543   9.079  16.692
22461TIP3    H134454   4.631   9.118  16.697
22461TIP3    H234455   4.497   9.122  16.767
22462TIP3   OH234456   4.607   8.077  16.494
22462TIP3    H134457   4.529   8.135  16.477
22462TIP3    H234458   4.621   8.034  16.407
22463TIP3   OH234459   4.518   8.154  15.567
22463TIP3    H134460   4.533   8.185  15.475
22463TIP3    H234461   4.495   8.060  15.555
22464TIP3   OH234462   4.536   7.734  16.444
22464TIP3    H134463   4.575   7.797  16.379
22464TIP3    H234464   4.459   7.790  16.476
22465TIP3   OH234465   4.831   9.227  16.716
22465TIP3    H134466   4.781   9.310  16.721
22465TIP3    H234467   4.860   9.219  16.623
22466TIP3   OH234468   4.972   7.858  16.708
22466TIP3    H134469   4.970   7.942  16.658
22466TIP3    H234470   4.886   7.819  16.681
22467TIP3   OH234471   3.937   7.933  15.477
22467TIP3    H134472   4.031   7.952  15.498
22467TIP3    H234473   3.898   7.937  15.566
22468TIP3   OH234474   4.047   8.316  16.109
22468TIP3    H134475   4.126   8.260  16.104
22468TIP3    H234476   3.984   8.264  16.054
22469TIP3   OH234477   5.129   8.894  16.861
22469TIP3    H134478   5.061   8.938  16.808
22469TIP3    H234479   5.073   8.836  16.916
22470TIP3   OH234480   5.280   8.175  16.938
22470TIP3    H134481   5.276   8.267  16.906
22470TIP3    H234482   5.363   8.180  16.988
22471TIP3   OH234483   3.980   9.215  15.917
22471TIP3    H134484   3.980   9.271  15.996
22471TIP3    H234485   3.888   9.228  15.890
22472TIP3   OH234486   5.217   7.654  16.025
22472TIP3    H134487   5.224   7.634  16.121
22472TIP3    H234488   5.246   7.568  15.987
22473TIP3   OH234489   5.346   9.014  16.471
22473TIP3    H134490   5.418   9.063  16.428
22473TIP3    H234491   5.339   9.071  16.551
22474TIP3   OH234492   5.407   9.272  15.315
22474TIP3    H134493   5.320   9.234  15.294
22474TIP3    H234494   5.456   9.191  15.342
22475TIP3   OH234495   4.962   9.204  15.159
22475TIP3    H134496   4.906   9.164  15.092
22475TIP3    H234497   4.947   9.147  15.237
22476TIP3   OH234498   4.449   9.159  16.929
22476TIP3    H134499   4.506   9.115  16.996
22476TIP3    H234500   4.376   9.193  16.983
22477TIP3   OH234501   4.276   9.059  15.263
22477TIP3    H134502   4.324   8.979  15.232
22477TIP3    H234503   4.182   9.034  15.252
22478TIP3   OH234504   4.025   9.131  16.988
22478TIP3    H134505   4.044   9.050  16.935
22478TIP3    H234506   3.927   9.127  16.994
22479TIP3   OH234507   5.417   8.688  15.180
22479TIP3    H134508   5.464   8.609  15.212
22479TIP3    H234509   5.463   8.758  15.230
22480TIP3   OH234510   4.957   8.696  16.968
22480TIP3    H134511   4.923   8.642  16.894
22480TIP3    H234512   4.904   8.662  17.043
22481TIP3   OH234513   4.743   8.656  15.273
22481TIP3    H134514   4.780   8.716  15.342
22481TIP3    H234515   4.766   8.566  15.308
22482TIP3   OH234516   4.175   8.672  15.514
22482TIP3    H134517   4.099   8.733  15.510
22482TIP3    H234518   4.249   8.729  15.489
22483TIP3   OH234519   5.308   8.401  15.237
22483TIP3    H134520   5.229   8.349  15.214
22483TIP3    H234521   5.365   8.394  15.159
22484TIP3   OH234522   4.841   8.537  16.746
22484TIP3    H134523   4.910   8.482  16.704
22484TIP3    H234524   4.800   8.473  16.808
22485TIP3   OH234525   4.937   8.314  15.569
22485TIP3    H134526   4.995   8.392  15.557
22485TIP3    H234527   4.862   8.354  15.617
22486TIP3   OH234528   4.740   8.356  16.949
22486TIP3    H134529   4.708   8.356  17.041
22486TIP3    H234530   4.653   8.356  16.901
22487TIP3   OH234531   3.835   8.640   8.529
22487TIP3    H134532   3.882   8.635   8.614
22487TIP3    H234533   3.800   8.730   8.529
22488TIP3   OH234534   4.872   8.077  15.468
22488TIP3    H134535   4.838   8.011  15.533
22488TIP3    H234536   4.882   8.158  15.523
22489TIP3   OH234537   4.819   7.878  15.648
22489TIP3    H134538   4.771   7.918  15.725
22489TIP3    H234539   4.908   7.871  15.687
22490TIP3   OH234540   4.713   8.467  15.631
22490TIP3    H134541   4.626   8.477  15.673
22490TIP3    H234542   4.769   8.524  15.687
22491TIP3   OH234543   4.271   8.192  15.166
22491TIP3    H134544   4.228   8.107  15.147
22491TIP3    H234545   4.198   8.254  15.156
22492TIP3   OH234546   4.090   8.491  15.314
22492TIP3    H134547   4.120   8.551  15.385
22492TIP3    H234548   3.996   8.475  15.337
22493TIP3   OH234549   5.038   8.124  15.248
22493TIP3    H134550   5.117   8.069  15.267
22493TIP3    H234551   4.977   8.101  15.322
22494TIP3   OH234552   4.761   7.619  15.632
22494TIP3    H134553   4.786   7.714  15.641
22494TIP3    H234554   4.831   7.577  15.684
22495TIP3   OH234555   4.638   8.059  15.241
22495TIP3    H134556   4.630   8.009  15.156
22495TIP3    H234557   4.712   8.016  15.286
22496TIP3   OH234558   4.359   7.950  15.332
22496TIP3    H134559   4.424   7.982  15.268
22496TIP3    H234560   4.301   7.899  15.270
22497TIP3   OH234561   4.202   7.826  15.143
22497TIP3    H134562   4.199   7.731  15.170
22497TIP3    H234563   4.221   7.821  15.047
22498TIP3   OH234564   5.252   7.936  15.224
22498TIP3    H134565   5.273   7.851  15.267
22498TIP3    H234566   5.254   7.915  15.128
22499TIP3   OH234567   4.767   7.610  15.363
22499TIP3    H134568   4.703   7.536  15.358
22499TIP3    H234569   4.761   7.629  15.460
22500TIP3   OH234570   4.757   7.717  15.082
22500TIP3    H134571   4.766   7.681  15.173
22500TIP3    H234572   4.829   7.784  15.082
22501TIP3   OH234573   5.414   8.867  16.908
22501TIP3    H134574   5.320   8.881  16.885
22501TIP3    H234575   5.405   8.845  17.002
22502TIP3   OH234576   5.434   9.219  16.192
22502TIP3    H134577   5.519   9.206  16.147
22502TIP3    H234578   5.379   9.254  16.119
22503TIP3   OH234579   3.712   9.291  15.884
22503TIP3    H134580   3.689   9.280  15.790
22503TIP3    H234581   3.643   9.354  15.906
22504TIP3   OH234582   3.717   9.219  15.629
22504TIP3    H134583   3.758   9.142  15.673
22504TIP3    H234584   3.701   9.181  15.541
22505TIP3   OH234585   3.895   8.843  15.138
22505TIP3    H134586   3.978   8.843  15.086
22505TIP3    H234587   3.849   8.918  15.097
22506TIP3   OH234588   3.767   8.663  16.613
22506TIP3    H134589   3.685   8.715  16.600
22506TIP3    H234590   3.763   8.600  16.537
22507TIP3   OH234591   3.724   8.479  16.418
22507TIP3    H134592   3.801   8.432  16.380
22507TIP3    H234593   3.669   8.494  16.339
22508TIP3   OH234594   3.767   8.727  15.950
22508TIP3    H134595   3.688   8.669  15.953
22508TIP3    H234596   3.728   8.814  15.974
22509TIP3   OH234597   3.877   9.018  15.711
22509TIP3    H134598   3.946   9.078  15.679
22509TIP3    H234599   3.920   8.982  15.792
22510TIP3   OH234600   3.742   8.432  16.774
22510TIP3    H134601   3.797   8.451  16.851
22510TIP3    H234602   3.759   8.508  16.715
22511TIP3   OH234603   3.925   8.175  16.923
22511TIP3    H134604   3.853   8.218  16.973
22511TIP3    H234605   3.913   8.085  16.958
22512TIP3   OH234606   3.915   8.309  16.341
22512TIP3    H134607   3.942   8.222  16.375
22512TIP3    H234608   3.961   8.314  16.254
22513TIP3   OH234609   5.444   8.553  15.939
22513TIP3    H134610   5.445   8.518  16.031
22513TIP3    H234611   5.356   8.519  15.910
22514TIP3   OH234612   3.818   8.518  15.384
22514TIP3    H134613   3.774   8.440  15.342
22514TIP3    H234614   3.759   8.594  15.369
22515TIP3   OH234615   3.725   8.290  15.296
22515TIP3    H134616   3.814   8.247  15.304
22515TIP3    H234617   3.665   8.218  15.320
22516TIP3   OH234618   3.935   7.921  17.022
22516TIP3    H134619   3.877   7.873  16.958
22516TIP3    H234620   4.024   7.911  16.985
22517TIP3   OH234621   4.003   8.098  16.497
22517TIP3    H134622   3.973   8.008  16.471
22517TIP3    H234623   3.951   8.105  16.579
22518TIP3   OH234624   3.898   8.144  15.960
22518TIP3    H134625   3.800   8.154  15.956
22518TIP3    H234626   3.918   8.154  15.866
22519TIP3   OH234627   3.892   8.214  15.690
22519TIP3    H134628   3.964   8.231  15.626
22519TIP3    H234629   3.852   8.304  15.698
22520TIP3   OH234630   5.464   8.058  15.336
22520TIP3    H134631   5.380   8.050  15.286
22520TIP3    H234632   5.515   7.988  15.291
22521TIP3   OH234633   3.622   7.613  15.116
22521TIP3    H134634   3.595   7.561  15.194
22521TIP3    H234635   3.661   7.689  15.161
22522TIP3   OH234636   3.924   7.831  16.486
22522TIP3    H134637   3.884   7.785  16.409
22522TIP3    H234638   3.963   7.757  16.535
22523TIP3   OH234639   5.354   7.887  15.997
22523TIP3    H134640   5.317   7.797  16.008
22523TIP3    H234641   5.275   7.944  15.997
22524TIP3   OH234642   5.513   8.195  15.928
22524TIP3    H134643   5.464   8.167  16.007
22524TIP3    H234644   5.463   8.274  15.906
22525TIP3   OH234645   3.776   7.779  15.312
22525TIP3    H134646   3.835   7.844  15.358
22525TIP3    H234647   3.739   7.735  15.391
22526TIP3   OH234648   3.732   7.836  16.856
22526TIP3    H134649   3.687   7.775  16.916
22526TIP3    H234650   3.657   7.893  16.829
22527TIP3   OH234651   5.496   7.809  16.545
22527TIP3    H134652   5.590   7.821  16.526
22527TIP3    H234653   5.482   7.862  16.626
22528TIP3   OH234654   4.051   9.322  16.370
22528TIP3    H134655   3.961   9.289  16.391
22528TIP3    H234656   4.030   9.379  16.293
22529TIP3   OH234657   5.497   7.676  15.709
22529TIP3    H134658   5.556   7.634  15.644
22529TIP3    H234659   5.550   7.750  15.741
22530TIP3   OH234660   5.258   9.001  15.266
22530TIP3    H134661   5.323   8.961  15.325
22530TIP3    H234662   5.289   8.976  15.178
22531TIP3   OH234663   4.965   9.108  15.654
22531TIP3    H134664   4.994   9.200  15.648
22531TIP3    H234665   4.877   9.121  15.694
22532TIP3   OH234666   4.558   9.208  15.399
22532TIP3    H134667   4.571   9.196  15.301
22532TIP3    H234668   4.465   9.234  15.399
22533TIP3   OH234669   3.797   7.597  15.519
22533TIP3    H134670   3.865   7.645  15.568
22533TIP3    H234671   3.801   7.507  15.560
22534TIP3   OH234672   4.349   9.213  15.736
22534TIP3    H134673   4.410   9.288  15.744
22534TIP3    H234674   4.265   9.256  15.757
22535TIP3   OH234675   5.285   9.275  15.956
22535TIP3    H134676   5.299   9.231  15.869
22535TIP3    H234677   5.211   9.221  15.995
22536TIP3   OH234678   5.087   9.163  16.099
22536TIP3    H134679   5.094   9.065  16.087
22536TIP3    H234680   5.005   9.178  16.047
22537TIP3   OH234681   4.867   9.151  15.953
22537TIP3    H134682   4.847   9.054  15.955
22537TIP3    H234683   4.815   9.179  15.876
22538TIP3   OH234684   4.506   7.757  16.084
22538TIP3    H134685   4.587   7.714  16.049
22538TIP3    H234686   4.480   7.698  16.155
22539TIP3   OH234687   3.945   7.568  16.101
22539TIP3    H134688   3.891   7.630  16.155
22539TIP3    H234689   4.037   7.599  16.120
22540TIP3   OH234690   3.797   7.696  16.284
22540TIP3    H134691   3.729   7.637  16.326
22540TIP3    H234692   3.742   7.776  16.268
22541TIP3   OH234693   5.242   7.615  16.303
22541TIP3    H134694   5.325   7.602  16.351
22541TIP3    H234695   5.197   7.530  16.322
22542TIP3   OH234696   5.380   7.609  16.749
22542TIP3    H134697   5.322   7.669  16.800
22542TIP3    H234698   5.416   7.666  16.679
22543TIP3   OH234699   4.820   7.588  16.336
22543TIP3    H134700   4.725   7.585  16.356
22543TIP3    H234701   4.827   7.655  16.267
22544TIP3   OH234702   4.195   7.620  16.190
22544TIP3    H134703   4.232   7.652  16.273
22544TIP3    H234704   4.257   7.547  16.167
22545TIP3   OH234705   4.076   7.605  16.626
22545TIP3    H134706   4.152   7.662  16.632
22545TIP3    H234707   4.120   7.525  16.588
22546TIP3   OH234708   5.406   9.203  16.644
22546TIP3    H134709   5.494   9.208  16.684
22546TIP3    H234710   5.364   9.279  16.689
22547TIP3   OH234711   5.203   7.743  16.892
22547TIP3    H134712   5.117   7.697  16.895
22547TIP3    H234713   5.178   7.830  16.858
22548TIP3   OH234714   4.689   7.862  16.642
22548TIP3    H134715   4.651   7.796  16.581
22548TIP3    H234716   4.656   7.944  16.599
22549TIP3   OH234717   4.449   9.406  16.804
22549TIP3    H134718   4.356   9.375  16.800
22549TIP3    H234719   4.483   9.330  16.856
22550TIP3   OH234720   3.820   9.248  16.488
22550TIP3    H134721   3.841   9.178  16.554
22550TIP3    H234722   3.819   9.326  16.548
22551TIP3   OH234723   5.292   7.689  15.361
22551TIP3    H134724   5.339   7.603  15.356
22551TIP3    H234725   5.218   7.676  15.298
22552TIP3   OH234726   5.082   7.656  15.191
22552TIP3    H134727   5.006   7.674  15.251
22552TIP3    H234728   5.085   7.559  15.196
22553TIP3   OH234729   5.156   9.317  16.952
22553TIP3    H134730   5.217   9.344  16.882
22553TIP3    H234731   5.131   9.228  16.927
22554TIP3   OH234732   4.189   7.569  15.221
22554TIP3    H134733   4.219   7.520  15.141
22554TIP3    H234734   4.100   7.528  15.231
22555TIP3   OH234735   3.929   9.177  15.318
22555TIP3    H134736   3.978   9.199  15.401
22555TIP3    H234737   3.882   9.259  15.298
22556TIP3   OH234738   2.427   8.567  16.333
22556TIP3    H134739   2.441   8.664  16.329
22556TIP3    H234740   2.507   8.539  16.380
22557TIP3   OH234741   2.550   8.425  15.996
22557TIP3    H134742   2.552   8.391  15.903
22557TIP3    H234743   2.630   8.386  16.037
22558TIP3   OH234744   3.359   8.427  15.843
22558TIP3    H134745   3.367   8.359  15.775
22558TIP3    H234746   3.294   8.486  15.800
22559TIP3   OH234747   2.213   8.751  16.117
22559TIP3    H134748   2.228   8.679  16.053
22559TIP3    H234749   2.212   8.829  16.059
22560TIP3   OH234750   3.241   8.904  16.061
22560TIP3    H134751   3.280   8.815  16.042
22560TIP3    H234752   3.148   8.874  16.062
22561TIP3   OH234753   3.562   8.219  16.447
22561TIP3    H134754   3.592   8.309  16.427
22561TIP3    H234755   3.642   8.181  16.488
22562TIP3   OH234756   3.527   8.465  16.191
22562TIP3    H134757   3.493   8.373  16.176
22562TIP3    H234758   3.445   8.515  16.204
22563TIP3   OH234759   2.493   9.246  16.084
22563TIP3    H134760   2.416   9.214  16.139
22563TIP3    H234761   2.507   9.166  16.032
22564TIP3   OH234762   2.722   8.708  15.929
22564TIP3    H134763   2.679   8.650  15.993
22564TIP3    H234764   2.644   8.746  15.883
22565TIP3   OH234765   1.869   7.865  15.892
22565TIP3    H134766   1.863   7.917  15.810
22565TIP3    H234767   1.788   7.893  15.938
22566TIP3   OH234768   2.385   8.170  15.876
22566TIP3    H134769   2.355   8.079  15.863
22566TIP3    H234770   2.395   8.171  15.973
22567TIP3   OH234771   3.083   7.941  16.220
22567TIP3    H134772   3.076   8.025  16.271
22567TIP3    H234773   3.139   7.890  16.282
22568TIP3   OH234774   2.341   7.979  16.339
22568TIP3    H134775   2.285   7.950  16.263
22568TIP3    H234776   2.284   8.048  16.377
22569TIP3   OH234777   3.449   8.216  16.115
22569TIP3    H134778   3.384   8.182  16.051
22569TIP3    H234779   3.422   8.169  16.197
22570TIP3   OH234780   2.970   8.363  16.173
22570TIP3    H134781   2.889   8.321  16.139
22570TIP3    H234782   2.999   8.295  16.237
22571TIP3   OH234783   1.864   8.002  15.643
22571TIP3    H134784   1.898   8.087  15.681
22571TIP3    H234785   1.838   8.033  15.555
22572TIP3   OH234786   3.177   7.863  15.786
22572TIP3    H134787   3.226   7.908  15.858
22572TIP3    H234788   3.235   7.879  15.709
22573TIP3   OH234789   2.505   8.812  16.436
22573TIP3    H134790   2.516   8.799  16.532
22573TIP3    H234791   2.525   8.906  16.425
22574TIP3   OH234792   2.975   8.628  15.798
22574TIP3    H134793   3.025   8.702  15.758
22574TIP3    H234794   2.904   8.675  15.846
22575TIP3   OH234795   2.172   7.931  16.140
22575TIP3    H134796   2.208   7.898  16.057
22575TIP3    H234797   2.081   7.955  16.116
22576TIP3   OH234798   3.240   8.055  15.998
22576TIP3    H134799   3.179   8.120  15.957
22576TIP3    H234800   3.189   8.025  16.076
22577TIP3   OH234801   3.095   8.855  15.681
22577TIP3    H134802   3.109   8.949  15.704
22577TIP3    H234803   3.186   8.829  15.651
22578TIP3   OH234804   3.508   8.775  16.607
22578TIP3    H134805   3.510   8.831  16.687
22578TIP3    H234806   3.503   8.844  16.537
22579TIP3   OH234807   2.157   8.976  15.901
22579TIP3    H134808   2.254   8.979  15.896
22579TIP3    H234809   2.141   9.068  15.929
22580TIP3   OH234810   2.149   7.788  15.799
22580TIP3    H134811   2.234   7.816  15.840
22580TIP3    H234812   2.082   7.829  15.857
22581TIP3   OH234813   2.854   7.595  16.046
22581TIP3    H134814   2.889   7.505  16.036
22581TIP3    H234815   2.937   7.644  16.021
22582TIP3   OH234816   2.310   9.142  16.247
22582TIP3    H134817   2.292   9.057  16.292
22582TIP3    H234818   2.244   9.202  16.290
22583TIP3   OH234819   2.194   8.902  16.410
22583TIP3    H134820   2.222   8.849  16.487
22583TIP3    H234821   2.203   8.838  16.337
22584TIP3   OH234822   2.042   8.784  15.540
22584TIP3    H134823   2.023   8.712  15.604
22584TIP3    H234824   2.030   8.861  15.600
22585TIP3   OH234825   2.590   8.470  16.589
22585TIP3    H134826   2.652   8.545  16.608
22585TIP3    H234827   2.507   8.499  16.631
22586TIP3   OH234828   2.594   8.380  16.858
22586TIP3    H134829   2.537   8.398  16.781
22586TIP3    H234830   2.546   8.307  16.900
22587TIP3   OH234831   1.841   8.432  15.756
22587TIP3    H134832   1.895   8.513  15.748
22587TIP3    H234833   1.787   8.457  15.834
22588TIP3   OH234834   2.199   8.502  16.472
22588TIP3    H134835   2.274   8.526  16.413
22588TIP3    H234836   2.145   8.445  16.413
22589TIP3   OH234837   2.242   8.320  15.545
22589TIP3    H134838   2.231   8.409  15.508
22589TIP3    H234839   2.302   8.338  15.620
22590TIP3   OH234840   3.093   8.552  16.308
22590TIP3    H134841   3.101   8.511  16.396
22590TIP3    H234842   3.040   8.485  16.261
22591TIP3   OH234843   2.945   8.874  16.034
22591TIP3    H134844   2.924   8.897  16.125
22591TIP3    H234845   2.864   8.830  16.003
22592TIP3   OH234846   3.069   8.413  15.933
22592TIP3    H134847   3.039   8.422  16.026
22592TIP3    H234848   3.018   8.483  15.887
22593TIP3   OH234849   2.433   8.988  15.867
22593TIP3    H134850   2.466   9.060  15.812
22593TIP3    H234851   2.458   8.908  15.815
22594TIP3   OH234852   2.947   8.876  15.433
22594TIP3    H134853   3.012   8.942  15.404
22594TIP3    H234854   2.978   8.860  15.525
22595TIP3   OH234855   2.355   8.448  16.692
22595TIP3    H134856   2.298   8.470  16.615
22595TIP3    H234857   2.306   8.490  16.767
22596TIP3   OH234858   3.256   8.516  15.609
22596TIP3    H134859   3.232   8.600  15.567
22596TIP3    H234860   3.317   8.480  15.542
22597TIP3   OH234861   2.582   9.104  16.357
22597TIP3    H134862   2.529   9.145  16.288
22597TIP3    H234863   2.634   9.175  16.396
22598TIP3   OH234864   3.147   9.055  15.375
22598TIP3    H134865   3.147   9.065  15.472
22598TIP3    H234866   3.240   9.027  15.358
22599TIP3   OH234867   1.947   7.579  16.681
22599TIP3    H134868   2.045   7.582  16.693
22599TIP3    H234869   1.921   7.662  16.723
22600TIP3   OH234870   3.189   8.442  16.577
22600TIP3    H134871   3.236   8.524  16.603
22600TIP3    H234872   3.261   8.377  16.577
22601TIP3   OH234873   1.885   8.982  16.907
22601TIP3    H134874   1.858   9.076  16.891
22601TIP3    H234875   1.798   8.939  16.907
22602TIP3   OH234876   3.566   8.707  15.622
22602TIP3    H134877   3.627   8.701  15.696
22602TIP3    H234878   3.522   8.620  15.630
22603TIP3   OH234879   3.582   8.976  15.942
22603TIP3    H134880   3.496   8.982  15.984
22603TIP3    H234881   3.586   9.060  15.893
22604TIP3   OH234882   1.784   9.064  15.367
22604TIP3    H134883   1.798   8.967  15.368
22604TIP3    H234884   1.875   9.097  15.346
22605TIP3   OH234885   2.674   9.001  15.554
22605TIP3    H134886   2.667   9.077  15.492
22605TIP3    H234887   2.754   8.956  15.522
22606TIP3   OH234888   3.256   9.211  16.352
22606TIP3    H134889   3.230   9.194  16.258
22606TIP3    H234890   3.341   9.163  16.355
22607TIP3   OH234891   2.316   9.280  16.832
22607TIP3    H134892   2.247   9.220  16.865
22607TIP3    H234893   2.319   9.257  16.737
22608TIP3   OH234894   2.376   9.263  16.567
22608TIP3    H134895   2.469   9.280  16.550
22608TIP3    H234896   2.355   9.188  16.510
22609TIP3   OH234897   2.072   8.189  15.356
22609TIP3    H134898   2.138   8.232  15.416
22609TIP3    H234899   2.081   8.096  15.389
22610TIP3   OH234900   3.328   8.821  15.556
22610TIP3    H134901   3.335   8.792  15.463
22610TIP3    H234902   3.419   8.799  15.587
22611TIP3   OH234903   3.076   7.705  15.969
22611TIP3    H134904   3.169   7.693  15.999
22611TIP3    H234905   3.093   7.758  15.888
22612TIP3   OH234906   2.577   7.645  15.642
22612TIP3    H134907   2.543   7.596  15.565
22612TIP3    H234908   2.674   7.648  15.626
22613TIP3   OH234909   2.316   8.064  15.545
22613TIP3    H134910   2.359   8.032  15.462
22613TIP3    H234911   2.342   8.158  15.546
22614TIP3   OH234912   2.223   8.554  16.900
22614TIP3    H134913   2.223   8.558  16.997
22614TIP3    H234914   2.137   8.597  16.883
22615TIP3   OH234915   2.638   7.959  16.896
22615TIP3    H134916   2.686   7.955  16.812
22615TIP3    H234917   2.665   7.878  16.941
22616TIP3   OH234918   3.059   8.169  15.833
22616TIP3    H134919   3.142   8.169  15.781
22616TIP3    H234920   3.065   8.260  15.870
22617TIP3   OH234921   3.076   8.170  16.358
22617TIP3    H134922   3.172   8.163  16.372
22617TIP3    H234923   3.039   8.145  16.445
22618TIP3   OH234924   2.503   8.256  16.460
22618TIP3    H134925   2.536   8.338  16.505
22618TIP3    H234926   2.447   8.218  16.531
22619TIP3   OH234927   2.623   8.244  15.329
22619TIP3    H134928   2.674   8.171  15.286
22619TIP3    H234929   2.531   8.219  15.314
22620TIP3   OH234930   2.403   8.204  16.152
22620TIP3    H134931   2.423   8.290  16.193
22620TIP3    H234932   2.422   8.146  16.228
22621TIP3   OH234933   3.309   8.175  15.712
22621TIP3    H134934   3.271   8.221  15.635
22621TIP3    H234935   3.345   8.095  15.670
22622TIP3   OH234936   2.983   7.969  16.932
22622TIP3    H134937   3.016   7.907  16.864
22622TIP3    H234938   3.013   8.055  16.895
22623TIP3   OH234939   3.632   7.908  16.254
22623TIP3    H134940   3.562   7.917  16.186
22623TIP3    H234941   3.590   7.944  16.334
22624TIP3   OH234942   3.533   7.979  16.743
22624TIP3    H134943   3.473   8.014  16.810
22624TIP3    H234944   3.586   8.060  16.724
22625TIP3   OH234945   2.503   8.369  15.734
22625TIP3    H134946   2.449   8.300  15.779
22625TIP3    H234947   2.568   8.312  15.687
22626TIP3   OH234948   2.786   7.931  16.243
22626TIP3    H134949   2.880   7.936  16.222
22626TIP3    H234950   2.745   7.917  16.156
22627TIP3   OH234951   3.359   8.082  16.341
22627TIP3    H134952   3.425   8.122  16.401
22627TIP3    H234953   3.335   7.998  16.386
22628TIP3   OH234954   2.992   8.117  16.614
22628TIP3    H134955   2.897   8.136  16.607
22628TIP3    H234956   3.021   8.171  16.692
22629TIP3   OH234957   2.367   7.869  15.933
22629TIP3    H134958   2.443   7.875  15.873
22629TIP3    H234959   2.399   7.807  16.001
22630TIP3   OH234960   3.068   8.215  16.849
22630TIP3    H134961   3.135   8.209  16.919
22630TIP3    H234962   2.997   8.268  16.890
22631TIP3   OH234963   3.316   8.676  15.315
22631TIP3    H134964   3.249   8.718  15.260
22631TIP3    H234965   3.394   8.676  15.255
22632TIP3   OH234966   2.737   8.231  16.090
22632TIP3    H134967   2.647   8.197  16.106
22632TIP3    H234968   2.773   8.166  16.028
22633TIP3   OH234969   3.248   7.841  16.415
22633TIP3    H134970   3.293   7.766  16.370
22633TIP3    H234971   3.205   7.796  16.489
22634TIP3   OH234972   2.820   8.040  15.833
22634TIP3    H134973   2.903   8.093  15.831
22634TIP3    H234974   2.761   8.095  15.779
22635TIP3   OH234975   2.758   8.671  16.613
22635TIP3    H134976   2.833   8.618  16.650
22635TIP3    H234977   2.800   8.703  16.529
22636TIP3   OH234978   2.022   8.633  15.755
22636TIP3    H134979   1.978   8.685  15.827
22636TIP3    H234980   2.110   8.621  15.795
22637TIP3   OH234981   2.375   7.969  16.840
22637TIP3    H134982   2.459   7.991  16.887
22637TIP3    H234983   2.361   8.051  16.790
22638TIP3   OH234984   2.690   8.695  15.522
22638TIP3    H134985   2.665   8.637  15.450
22638TIP3    H234986   2.669   8.783  15.487
22639TIP3   OH234987   2.315   8.177  16.661
22639TIP3    H134988   2.248   8.155  16.594
22639TIP3    H234989   2.288   8.267  16.686
22640TIP3   OH234990   3.253   8.625  16.076
22640TIP3    H134991   3.198   8.615  16.157
22640TIP3    H234992   3.229   8.548  16.022
22641TIP3   OH234993   2.553   8.822  16.707
22641TIP3    H134994   2.597   8.910  16.699
22641TIP3    H234995   2.628   8.762  16.685
22642TIP3   OH234996   3.528   8.428  15.559
22642TIP3    H134997   3.557   8.396  15.473
22642TIP3    H234998   3.600   8.401  15.618
22643TIP3   OH234999   2.825   8.415  15.374
22643TIP3    H135000   2.892   8.355  15.408
22643TIP3    H235001   2.749   8.354  15.367
22644TIP3   OH235002   2.359   8.960  15.512
22644TIP3    H135003   2.433   8.974  15.573
22644TIP3    H235004   2.396   8.998  15.430
22645TIP3   OH235005   1.831   8.167  16.683
22645TIP3    H135006   1.894   8.157  16.757
22645TIP3    H235007   1.815   8.264  16.690
22646TIP3   OH235008   1.795   8.783  15.408
22646TIP3    H135009   1.881   8.797  15.454
22646TIP3    H235010   1.736   8.772  15.487
22647TIP3   OH235011   2.014   9.057  16.659
22647TIP3    H135012   2.043   8.979  16.611
22647TIP3    H235013   1.974   9.018  16.739
22648TIP3   OH235014   2.277   8.542  15.934
22648TIP3    H135015   2.367   8.513  15.957
22648TIP3    H235016   2.224   8.475  15.982
22649TIP3   OH235017   3.021   8.963  16.307
22649TIP3    H135018   2.989   9.055  16.307
22649TIP3    H235019   3.097   8.972  16.367
22650TIP3   OH235020   3.465   8.445  16.860
22650TIP3    H135021   3.404   8.511  16.821
22650TIP3    H235022   3.553   8.475  16.834
22651TIP3   OH235023   2.885   8.742  16.381
22651TIP3    H135024   2.928   8.829  16.367
22651TIP3    H235025   2.925   8.689  16.310
22652TIP3   OH235026   2.845   9.192  15.707
22652TIP3    H135027   2.821   9.284  15.681
22652TIP3    H235028   2.765   9.140  15.689
22653TIP3   OH235029   2.988   9.209  16.441
22653TIP3    H135030   3.084   9.219  16.425
22653TIP3    H235031   2.959   9.283  16.383
22654TIP3   OH235032   2.510   8.745  15.760
22654TIP3    H135033   2.556   8.719  15.678
22654TIP3    H235034   2.476   8.659  15.793
22655TIP3   OH235035   2.240   8.895  16.815
22655TIP3    H135036   2.201   8.829  16.755
22655TIP3    H235037   2.332   8.864  16.820
22656TIP3   OH235038   2.169   9.222  15.551
22656TIP3    H135039   2.247   9.165  15.534
22656TIP3    H235040   2.201   9.285  15.617
22657TIP3   OH235041   1.820   9.240  16.850
22657TIP3    H135042   1.773   9.289  16.919
22657TIP3    H235043   1.877   9.310  16.810
22658TIP3   OH235044   3.349   7.938  15.556
22658TIP3    H135045   3.427   7.970  15.508
22658TIP3    H235046   3.356   7.842  15.541
22659TIP3   OH235047   2.152   8.711  16.634
22659TIP3    H135048   2.177   8.627  16.588
22659TIP3    H235049   2.055   8.707  16.620
22660TIP3   OH235050   3.406   9.111  15.731
22660TIP3    H135051   3.351   9.031  15.737
22660TIP3    H235052   3.372   9.156  15.652
22661TIP3   OH235053   2.942   8.924  16.765
22661TIP3    H135054   2.885   8.860  16.718
22661TIP3    H235055   2.919   9.009  16.725
22662TIP3   OH235056   3.312   8.643  16.721
22662TIP3    H135057   3.383   8.684  16.668
22662TIP3    H235058   3.267   8.721  16.757
22663TIP3   OH235059   2.529   7.922  15.638
22663TIP3    H135060   2.435   7.928  15.614
22663TIP3    H235061   2.549   7.827  15.627
22664TIP3   OH235062   2.450   7.868  16.556
22664TIP3    H135063   2.409   7.917  16.628
22664TIP3    H235064   2.402   7.900  16.476
22665TIP3   OH235065   2.651   9.081  16.689
22665TIP3    H135066   2.735   9.127  16.693
22665TIP3    H235067   2.606   9.113  16.771
22666TIP3   OH235068   2.708   8.061  16.486
22666TIP3    H135069   2.643   8.132  16.468
22666TIP3    H235070   2.736   8.030  16.398
22667TIP3   OH235071   2.630   8.172  15.605
22667TIP3    H135072   2.662   8.180  15.513
22667TIP3    H235073   2.608   8.077  15.618
22668TIP3   OH235074   2.653   7.733  16.441
22668TIP3    H135075   2.685   7.802  16.379
22668TIP3    H235076   2.573   7.780  16.477
22669TIP3   OH235077   2.957   9.226  16.719
22669TIP3    H135078   2.923   9.316  16.727
22669TIP3    H235079   2.980   9.217  16.625
22670TIP3   OH235080   3.084   7.851  16.711
22670TIP3    H135081   3.080   7.938  16.667
22670TIP3    H235082   3.000   7.813  16.678
22671TIP3   OH235083   2.079   7.951  15.467
22671TIP3    H135084   2.166   7.965  15.511
22671TIP3    H235085   2.021   7.956  15.545
22672TIP3   OH235086   2.159   8.319  16.092
22672TIP3    H135087   2.235   8.258  16.086
22672TIP3    H235088   2.092   8.270  16.041
22673TIP3   OH235089   3.241   8.889  16.858
22673TIP3    H135090   3.171   8.937  16.810
22673TIP3    H235091   3.185   8.835  16.918
22674TIP3   OH235092   3.405   8.188  16.929
22674TIP3    H135093   3.405   8.280  16.897
22674TIP3    H235094   3.483   8.188  16.987
22675TIP3   OH235095   2.122   9.240  15.919
22675TIP3    H135096   2.125   9.306  15.991
22675TIP3    H235097   2.025   9.234  15.908
22676TIP3   OH235098   3.335   7.648  16.027
22676TIP3    H135099   3.341   7.637  16.125
22676TIP3    H235100   3.352   7.556  15.998
22677TIP3   OH235101   3.463   9.010  16.479
22677TIP3    H135102   3.535   9.060  16.437
22677TIP3    H235103   3.452   9.069  16.557
22678TIP3   OH235104   3.549   9.288  15.323
22678TIP3    H135105   3.475   9.277  15.259
22678TIP3    H235106   3.579   9.195  15.336
22679TIP3   OH235107   3.039   9.139  15.134
22679TIP3    H135108   2.951   9.097  15.143
22679TIP3    H235109   3.074   9.126  15.224
22680TIP3   OH235110   2.548   9.156  16.927
22680TIP3    H135111   2.601   9.123  17.003
22680TIP3    H235112   2.472   9.199  16.970
22681TIP3   OH235113   2.402   9.071  15.263
22681TIP3    H135114   2.431   8.986  15.221
22681TIP3    H235115   2.318   9.083  15.212
22682TIP3   OH235116   2.131   9.126  16.985
22682TIP3    H135117   2.146   9.045  16.929
22682TIP3    H235118   2.034   9.128  16.988
22683TIP3   OH235119   3.562   8.677  15.176
22683TIP3    H135120   3.588   8.594  15.219
22683TIP3    H235121   3.609   8.743  15.233
22684TIP3   OH235122   3.077   8.694  16.970
22684TIP3    H135123   3.039   8.645  16.894
22684TIP3    H235124   3.025   8.659  17.045
22685TIP3   OH235125   2.845   8.663  15.273
22685TIP3    H135126   2.879   8.724  15.342
22685TIP3    H235127   2.841   8.576  15.321
22686TIP3   OH235128   2.294   8.679  15.510
22686TIP3    H135129   2.200   8.704  15.514
22686TIP3    H235130   2.332   8.769  15.506
22687TIP3   OH235131   3.413   8.381  15.237
22687TIP3    H135132   3.320   8.370  15.255
22687TIP3    H235133   3.415   8.450  15.168
22688TIP3   OH235134   2.954   8.540  16.747
22688TIP3    H135135   3.021   8.485  16.701
22688TIP3    H235136   2.914   8.474  16.807
22689TIP3   OH235137   3.084   8.314  15.593
22689TIP3    H135138   3.132   8.396  15.617
22689TIP3    H235139   2.997   8.338  15.631
22690TIP3   OH235140   2.852   8.356  16.937
22690TIP3    H135141   2.825   8.353  17.031
22690TIP3    H235142   2.763   8.353  16.893
22691TIP3   OH235143   2.505   8.569  15.174
22691TIP3    H135144   2.441   8.531  15.236
22691TIP3    H235145   2.566   8.495  15.162
22692TIP3   OH235146   1.959   8.648   8.523
22692TIP3    H135147   2.012   8.647   8.605
22692TIP3    H235148   1.921   8.738   8.523
22693TIP3   OH235149   2.947   8.088  15.475
22693TIP3    H135150   2.948   8.011  15.535
22693TIP3    H235151   2.981   8.160  15.531
22694TIP3   OH235152   2.936   7.874  15.660
22694TIP3    H135153   2.878   7.921  15.724
22694TIP3    H235154   3.020   7.879  15.712
22695TIP3   OH235155   2.826   8.444  15.665
22695TIP3    H135156   2.738   8.486  15.668
22695TIP3    H235157   2.883   8.520  15.683
22696TIP3   OH235158   2.233   8.509  15.306
22696TIP3    H135159   2.255   8.578  15.372
22696TIP3    H235160   2.137   8.501  15.319
22697TIP3   OH235161   3.147   8.162  15.241
22697TIP3    H135162   3.230   8.112  15.248
22697TIP3    H235163   3.117   8.166  15.333
22698TIP3   OH235164   2.853   7.617  15.643
22698TIP3    H135165   2.888   7.709  15.645
22698TIP3    H235166   2.930   7.571  15.680
22699TIP3   OH235167   2.766   8.031  15.259
22699TIP3    H135168   2.825   8.011  15.183
22699TIP3    H235169   2.834   8.032  15.331
22700TIP3   OH235170   2.464   7.955  15.335
22700TIP3    H135171   2.555   7.985  15.348
22700TIP3    H235172   2.483   7.867  15.299
22701TIP3   OH235173   3.361   7.955  15.225
22701TIP3    H135174   3.360   7.871  15.276
22701TIP3    H235175   3.391   7.928  15.137
22702TIP3   OH235176   2.912   7.554  15.344
22702TIP3    H135177   2.859   7.475  15.323
22702TIP3    H235178   2.887   7.562  15.438
22703TIP3   OH235179   2.852   7.714  15.110
22703TIP3    H135180   2.867   7.657  15.188
22703TIP3    H235181   2.908   7.790  15.131
22704TIP3   OH235182   3.523   8.876  16.904
22704TIP3    H135183   3.428   8.871  16.879
22704TIP3    H235184   3.514   8.867  17.001
22705TIP3   OH235185   3.536   9.221  16.200
22705TIP3    H135186   3.629   9.212  16.174
22705TIP3    H235187   3.496   9.253  16.118
22706TIP3   OH235188   1.853   9.283  15.888
22706TIP3    H135189   1.796   9.292  15.809
22706TIP3    H235190   1.831   9.363  15.937
22707TIP3   OH235191   1.832   9.225  15.621
22707TIP3    H135192   1.872   9.150  15.670
22707TIP3    H235193   1.783   9.179  15.551
22708TIP3   OH235194   1.884   8.661  16.610
22708TIP3    H135195   1.798   8.710  16.600
22708TIP3    H235196   1.880   8.601  16.533
22709TIP3   OH235197   1.840   8.482  16.412
22709TIP3    H135198   1.917   8.437  16.370
22709TIP3    H235199   1.782   8.498  16.334
22710TIP3   OH235200   1.874   8.740  15.939
22710TIP3    H135201   1.800   8.676  15.952
22710TIP3    H235202   1.832   8.824  15.968
22711TIP3   OH235203   1.994   9.010  15.689
22711TIP3    H135204   2.059   9.075  15.656
22711TIP3    H235205   2.038   8.981  15.772
22712TIP3   OH235206   1.857   8.435  16.774
22712TIP3    H135207   1.916   8.447  16.850
22712TIP3    H235208   1.878   8.511  16.716
22713TIP3   OH235209   2.040   8.170  16.917
22713TIP3    H135210   1.965   8.208  16.966
22713TIP3    H235211   2.025   8.075  16.940
22714TIP3   OH235212   2.039   8.321  16.336
22714TIP3    H135213   2.062   8.232  16.366
22714TIP3    H235214   2.072   8.321  16.244
22715TIP3   OH235215   3.557   8.561  15.936
22715TIP3    H135216   3.557   8.526  16.028
22715TIP3    H235217   3.469   8.524  15.907
22716TIP3   OH235218   1.950   8.533  15.372
22716TIP3    H135219   1.906   8.463  15.320
22716TIP3    H235220   1.882   8.603  15.374
22717TIP3   OH235221   1.842   8.319  15.274
22717TIP3    H135222   1.914   8.269  15.319
22717TIP3    H235223   1.764   8.265  15.293
22718TIP3   OH235224   2.048   7.922  17.019
22718TIP3    H135225   1.991   7.871  16.956
22718TIP3    H235226   2.139   7.908  16.987
22719TIP3   OH235227   2.109   8.100  16.497
22719TIP3    H135228   2.080   8.012  16.463
22719TIP3    H235229   2.057   8.102  16.579
22720TIP3   OH235230   1.999   8.155  15.943
22720TIP3    H135231   1.900   8.158  15.945
22720TIP3    H235232   2.013   8.161  15.848
22721TIP3   OH235233   2.007   8.221  15.671
22721TIP3    H135234   2.083   8.245  15.614
22721TIP3    H235235   1.968   8.308  15.694
22722TIP3   OH235236   3.575   8.048  15.367
22722TIP3    H135237   3.495   8.042  15.310
22722TIP3    H235238   3.638   7.993  15.318
22723TIP3   OH235239   1.773   7.638  15.149
22723TIP3    H135240   1.720   7.568  15.192
22723TIP3    H235241   1.794   7.696  15.225
22724TIP3   OH235242   2.036   7.833  16.464
22724TIP3    H135243   1.989   7.777  16.398
22724TIP3    H235244   2.070   7.766  16.526
22725TIP3   OH235245   3.472   7.887  16.000
22725TIP3    H135246   3.433   7.797  16.006
22725TIP3    H235247   3.395   7.945  16.005
22726TIP3   OH235248   3.641   8.199  15.937
22726TIP3    H135249   3.581   8.177  16.011
22726TIP3    H235250   3.592   8.273  15.898
22727TIP3   OH235251   1.846   7.831  15.333
22727TIP3    H135252   1.933   7.874  15.333
22727TIP3    H235253   1.861   7.765  15.404
22728TIP3   OH235254   1.844   7.837  16.853
22728TIP3    H135255   1.798   7.783  16.920
22728TIP3    H235256   1.768   7.891  16.821
22729TIP3   OH235257   3.612   7.817  16.535
22729TIP3    H135258   3.708   7.814  16.532
22729TIP3    H235259   3.595   7.866  16.619
22730TIP3   OH235260   2.153   9.310  16.369
22730TIP3    H135261   2.060   9.282  16.385
22730TIP3    H235262   2.143   9.376  16.298
22731TIP3   OH235263   3.615   7.678  15.713
22731TIP3    H135264   3.676   7.635  15.650
22731TIP3    H235265   3.670   7.743  15.759
22732TIP3   OH235266   3.399   8.978  15.287
22732TIP3    H135267   3.486   9.001  15.321
22732TIP3    H235268   3.420   8.963  15.194
22733TIP3   OH235269   3.095   9.129  15.641
22733TIP3    H135270   3.111   9.225  15.637
22733TIP3    H235271   3.000   9.134  15.663
22734TIP3   OH235272   2.642   9.221  15.387
22734TIP3    H135273   2.665   9.211  15.292
22734TIP3    H235274   2.547   9.235  15.377
22735TIP3   OH235275   1.945   7.620  15.500
22735TIP3    H135276   2.019   7.664  15.544
22735TIP3    H235277   1.949   7.531  15.543
22736TIP3   OH235278   2.446   9.230  15.692
22736TIP3    H135279   2.505   9.302  15.720
22736TIP3    H235280   2.367   9.253  15.743
22737TIP3   OH235281   3.387   9.272  15.947
22737TIP3    H135282   3.396   9.225  15.862
22737TIP3    H235283   3.315   9.221  15.991
22738TIP3   OH235284   3.193   9.168  16.100
22738TIP3    H135285   3.209   9.070  16.091
22738TIP3    H235286   3.110   9.174  16.048
22739TIP3   OH235287   2.979   9.142  15.944
22739TIP3    H135288   2.958   9.047  15.952
22739TIP3    H235289   2.941   9.167  15.857
22740TIP3   OH235290   2.633   7.748  16.069
22740TIP3    H135291   2.719   7.700  16.060
22740TIP3    H235292   2.589   7.694  16.135
22741TIP3   OH235293   2.055   7.586  16.087
22741TIP3    H135294   1.995   7.640  16.143
22741TIP3    H235295   2.144   7.621  16.110
22742TIP3   OH235296   1.899   7.686  16.284
22742TIP3    H135297   1.829   7.635  16.332
22742TIP3    H235298   1.848   7.768  16.262
22743TIP3   OH235299   3.360   7.612  16.296
22743TIP3    H135300   3.442   7.597  16.348
22743TIP3    H235301   3.311   7.530  16.316
22744TIP3   OH235302   3.493   7.606  16.753
22744TIP3    H135303   3.431   7.665  16.802
22744TIP3    H235304   3.534   7.664  16.688
22745TIP3   OH235305   2.930   7.590  16.329
22745TIP3    H135306   2.845   7.616  16.366
22745TIP3    H235307   2.932   7.638  16.245
22746TIP3   OH235308   2.308   7.635  16.179
22746TIP3    H135309   2.342   7.655  16.267
22746TIP3    H235310   2.359   7.554  16.158
22747TIP3   OH235311   2.197   7.615  16.638
22747TIP3    H135312   2.277   7.668  16.644
22747TIP3    H235313   2.232   7.534  16.594
22748TIP3   OH235314   3.523   9.210  16.636
22748TIP3    H135315   3.608   9.211  16.683
22748TIP3    H235316   3.479   9.284  16.683
22749TIP3   OH235317   3.313   7.745  16.890
22749TIP3    H135318   3.228   7.698  16.892
22749TIP3    H235319   3.285   7.834  16.865
22750TIP3   OH235320   2.801   7.863  16.637
22750TIP3    H135321   2.759   7.798  16.579
22750TIP3    H235322   2.769   7.945  16.594
22751TIP3   OH235323   2.555   9.406  16.803
22751TIP3    H135324   2.463   9.373  16.799
22751TIP3    H235325   2.592   9.331  16.852
22752TIP3   OH235326   1.925   9.247  16.484
22752TIP3    H135327   1.952   9.179  16.551
22752TIP3    H235328   1.933   9.326  16.541
22753TIP3   OH235329   3.389   7.695  15.372
22753TIP3    H135330   3.438   7.610  15.367
22753TIP3    H235331   3.315   7.678  15.310
22754TIP3   OH235332   3.202   7.625  15.185
22754TIP3    H135333   3.110   7.597  15.206
22754TIP3    H235334   3.234   7.546  15.136
22755TIP3   OH235335   3.271   9.310  16.961
22755TIP3    H135336   3.329   9.341  16.890
22755TIP3    H235337   3.243   9.223  16.927
22756TIP3   OH235338   2.333   7.575  15.192
22756TIP3    H135339   2.373   7.510  15.133
22756TIP3    H235340   2.244   7.534  15.207
22757TIP3   OH235341   2.021   9.182  15.328
22757TIP3    H135342   2.069   9.200  15.413
22757TIP3    H235343   1.965   9.261  15.325
22758TIP3   OH235344   0.542   8.572  16.335
22758TIP3    H135345   0.552   8.669  16.326
22758TIP3    H235346   0.622   8.548  16.385
22759TIP3   OH235347   0.692   8.424  16.002
22759TIP3    H135348   0.665   8.373  15.923
22759TIP3    H235349   0.760   8.368  16.044
22760TIP3   OH235350   1.467   8.432  15.851
22760TIP3    H135351   1.462   8.364  15.782
22760TIP3    H235352   1.400   8.494  15.819
22761TIP3   OH235353   0.302   8.793  16.133
22761TIP3    H135354   0.262   8.720  16.083
22761TIP3    H235355   0.314   8.863  16.065
22762TIP3   OH235356   1.360   8.900  16.018
22762TIP3    H135357   1.393   8.810  16.036
22762TIP3    H235358   1.265   8.880  16.018
22763TIP3   OH235359   1.681   8.220  16.448
22763TIP3    H135360   1.714   8.305  16.417
22763TIP3    H235361   1.739   8.203  16.524
22764TIP3   OH235362   1.648   8.461  16.193
22764TIP3    H135363   1.613   8.370  16.176
22764TIP3    H235364   1.567   8.514  16.203
22765TIP3   OH235365   0.603   9.256  16.076
22765TIP3    H135366   0.535   9.222  16.139
22765TIP3    H235367   0.624   9.173  16.030
22766TIP3   OH235368   0.855   8.704  15.920
22766TIP3    H135369   0.819   8.653  15.994
22766TIP3    H235370   0.773   8.739  15.880
22767TIP3   OH235371   0.001   7.914  15.855
22767TIP3    H135372  -0.019   8.009  15.842
22767TIP3    H235373  -0.086   7.886  15.893
22768TIP3   OH235374   0.530   8.158  15.901
22768TIP3    H135375   0.507   8.068  15.874
22768TIP3    H235376   0.514   8.153  15.998
22769TIP3   OH235377   1.223   7.948  16.203
22769TIP3    H135378   1.205   8.027  16.258
22769TIP3    H235379   1.261   7.888  16.269
22770TIP3   OH235380   0.434   8.004  16.320
22770TIP3    H135381   0.386   7.948  16.255
22770TIP3    H235382   0.362   8.051  16.363
22771TIP3   OH235383   1.560   8.215  16.116
22771TIP3    H135384   1.502   8.168  16.053
22771TIP3    H235385   1.528   8.176  16.201
22772TIP3   OH235386   1.082   8.363  16.175
22772TIP3    H135387   1.002   8.315  16.146
22772TIP3    H235388   1.118   8.297  16.238
22773TIP3   OH235389   1.299   7.861  15.777
22773TIP3    H135390   1.341   7.911  15.850
22773TIP3    H235391   1.363   7.877  15.705
22774TIP3   OH235392   0.617   8.820  16.441
22774TIP3    H135393   0.630   8.808  16.538
22774TIP3    H235394   0.683   8.887  16.420
22775TIP3   OH235395   1.091   8.631  15.811
22775TIP3    H135396   1.135   8.716  15.788
22775TIP3    H235397   1.008   8.666  15.853
22776TIP3   OH235398   0.255   7.936  16.117
22776TIP3    H135399   0.303   7.887  16.048
22776TIP3    H235400   0.206   8.002  16.062
22777TIP3   OH235401   1.361   8.053  15.989
22777TIP3    H135402   1.298   8.117  15.949
22777TIP3    H235403   1.311   8.025  16.069
22778TIP3   OH235404   1.207   8.848  15.697
22778TIP3    H135405   1.213   8.941  15.726
22778TIP3    H235406   1.297   8.831  15.663
22779TIP3   OH235407   1.634   8.781  16.601
22779TIP3    H135408   1.634   8.837  16.681
22779TIP3    H235409   1.624   8.848  16.530
22780TIP3   OH235410   0.292   8.980  15.938
22780TIP3    H135411   0.382   9.014  15.919
22780TIP3    H235412   0.238   9.060  15.955
22781TIP3   OH235413   0.206   7.728  15.789
22781TIP3    H135414   0.277   7.761  15.846
22781TIP3    H235415   0.133   7.784  15.819
22782TIP3   OH235416   0.954   7.615  16.050
22782TIP3    H135417   0.987   7.524  16.055
22782TIP3    H235418   1.037   7.660  16.017
22783TIP3   OH235419   0.439   9.156  16.267
22783TIP3    H135420   0.398   9.075  16.302
22783TIP3    H235421   0.367   9.221  16.288
22784TIP3   OH235422   0.307   8.912  16.408
22784TIP3    H135423   0.337   8.840  16.467
22784TIP3    H235424   0.297   8.865  16.323
22785TIP3   OH235425   0.202   8.778  15.547
22785TIP3    H135426   0.187   8.718  15.622
22785TIP3    H235427   0.151   8.856  15.577
22786TIP3   OH235428   0.716   8.472  16.584
22786TIP3    H135429   0.775   8.540  16.623
22786TIP3    H235430   0.632   8.491  16.632
22787TIP3   OH235431   0.712   8.386  16.874
22787TIP3    H135432   0.644   8.415  16.809
22787TIP3    H235433   0.667   8.311  16.915
22788TIP3   OH235434   0.000   8.416  15.790
22788TIP3    H135435   0.064   8.488  15.769
22788TIP3    H235436  -0.055   8.464  15.856
22789TIP3   OH235437   0.349   8.472  16.493
22789TIP3    H135438   0.414   8.518  16.434
22789TIP3    H235439   0.287   8.436  16.425
22790TIP3   OH235440   0.377   8.306  15.570
22790TIP3    H135441   0.393   8.379  15.507
22790TIP3    H235442   0.442   8.334  15.638
22791TIP3   OH235443   1.209   8.556  16.312
22791TIP3    H135444   1.226   8.511  16.398
22791TIP3    H235445   1.156   8.489  16.265
22792TIP3   OH235446   1.054   8.886  16.030
22792TIP3    H135447   1.032   8.892  16.124
22792TIP3    H235448   0.978   8.837  15.993
22793TIP3   OH235449   1.173   8.409  15.928
22793TIP3    H135450   1.142   8.416  16.022
22793TIP3    H235451   1.133   8.488  15.885
22794TIP3   OH235452   0.559   8.998  15.872
22794TIP3    H135453   0.595   9.063  15.808
22794TIP3    H235454   0.570   8.914  15.821
22795TIP3   OH235455   1.062   8.867  15.457
22795TIP3    H135456   1.131   8.928  15.423
22795TIP3    H235457   1.101   8.841  15.544
22796TIP3   OH235458   0.489   8.458  16.713
22796TIP3    H135459   0.433   8.453  16.632
22796TIP3    H235460   0.429   8.498  16.779
22797TIP3   OH235461   1.355   8.494  15.582
22797TIP3    H135462   1.333   8.586  15.560
22797TIP3    H235463   1.430   8.477  15.522
22798TIP3   OH235464   0.729   9.129  16.320
22798TIP3    H135465   0.633   9.137  16.309
22798TIP3    H235466   0.749   9.192  16.390
22799TIP3   OH235467   1.260   9.055  15.393
22799TIP3    H135468   1.254   9.056  15.491
22799TIP3    H235469   1.351   9.024  15.377
22800TIP3   OH235470   0.104   7.534  16.692
22800TIP3    H135471   0.197   7.561  16.673
22800TIP3    H235472   0.098   7.549  16.788
22801TIP3   OH235473   1.314   8.441  16.544
22801TIP3    H135474   1.357   8.524  16.574
22801TIP3    H235475   1.380   8.375  16.570
22802TIP3   OH235476   0.022   9.040  16.894
22802TIP3    H135477  -0.025   9.124  16.893
22802TIP3    H235478  -0.051   8.975  16.900
22803TIP3   OH235479   1.667   8.712  15.630
22803TIP3    H135480   1.722   8.698  15.708
22803TIP3    H235481   1.648   8.619  15.605
22804TIP3   OH235482   1.701   8.974  15.964
22804TIP3    H135483   1.610   8.982  15.995
22804TIP3    H235484   1.710   9.053  15.910
22805TIP3   OH235485   0.801   8.973  15.500
22805TIP3    H135486   0.785   9.048  15.440
22805TIP3    H235487   0.896   8.954  15.481
22806TIP3   OH235488   1.370   9.215  16.350
22806TIP3    H135489   1.341   9.202  16.257
22806TIP3    H235490   1.447   9.155  16.353
22807TIP3   OH235491   0.461   9.320  16.834
22807TIP3    H135492   0.407   9.250  16.876
22807TIP3    H235493   0.470   9.288  16.742
22808TIP3   OH235494   0.511   9.261  16.566
22808TIP3    H135495   0.593   9.287  16.521
22808TIP3    H235496   0.475   9.192  16.508
22809TIP3   OH235497   0.183   8.207  15.364
22809TIP3    H135498   0.241   8.227  15.440
22809TIP3    H235499   0.124   8.140  15.403
22810TIP3   OH235500   1.438   8.825  15.559
22810TIP3    H135501   1.445   8.798  15.465
22810TIP3    H235502   1.528   8.801  15.591
22811TIP3   OH235503   1.186   7.707  15.961
22811TIP3    H135504   1.275   7.689  15.998
22811TIP3    H235505   1.210   7.755  15.879
22812TIP3   OH235506   0.684   7.642  15.638
22812TIP3    H135507   0.651   7.596  15.558
22812TIP3    H235508   0.782   7.636  15.633
22813TIP3   OH235509   0.403   8.025  15.554
22813TIP3    H135510   0.458   7.994  15.478
22813TIP3    H235511   0.396   8.121  15.538
22814TIP3   OH235512   0.321   8.551  16.894
22814TIP3    H135513   0.287   8.507  16.973
22814TIP3    H235514   0.241   8.600  16.867
22815TIP3   OH235515   0.755   7.950  16.877
22815TIP3    H135516   0.798   7.935  16.790
22815TIP3    H235517   0.770   7.865  16.919
22816TIP3   OH235518   1.178   8.167  15.823
22816TIP3    H135519   1.258   8.179  15.768
22816TIP3    H235520   1.169   8.257  15.862
22817TIP3   OH235521   1.190   8.169  16.349
22817TIP3    H135522   1.286   8.164  16.364
22817TIP3    H235523   1.155   8.151  16.440
22818TIP3   OH235524   0.623   8.251  16.472
22818TIP3    H135525   0.656   8.333  16.516
22818TIP3    H235526   0.564   8.215  16.540
22819TIP3   OH235527   0.752   8.285  15.305
22819TIP3    H135528   0.794   8.198  15.280
22819TIP3    H235529   0.666   8.278  15.261
22820TIP3   OH235530   0.533   8.235  16.169
22820TIP3    H135531   0.562   8.313  16.220
22820TIP3    H235532   0.525   8.169  16.240
22821TIP3   OH235533   1.432   8.185  15.691
22821TIP3    H135534   1.392   8.217  15.609
22821TIP3    H235535   1.459   8.094  15.665
22822TIP3   OH235536   1.088   7.967  16.930
22822TIP3    H135537   1.129   7.912  16.859
22822TIP3    H235538   1.116   8.058  16.903
22823TIP3   OH235539   1.746   7.912  16.249
22823TIP3    H135540   1.675   7.921  16.183
22823TIP3    H235541   1.713   7.966  16.323
22824TIP3   OH235542   1.644   7.979  16.740
22824TIP3    H135543   1.579   8.016  16.804
22824TIP3    H235544   1.701   8.058  16.730
22825TIP3   OH235545   0.605   8.364  15.733
22825TIP3    H135546   0.564   8.292  15.785
22825TIP3    H235547   0.664   8.313  15.674
22826TIP3   OH235548   0.904   7.921  16.251
22826TIP3    H135549   0.996   7.936  16.223
22826TIP3    H235550   0.859   7.896  16.169
22827TIP3   OH235551   1.468   8.090  16.344
22827TIP3    H135552   1.539   8.127  16.402
22827TIP3    H235553   1.453   8.000  16.381
22828TIP3   OH235554   1.117   8.125  16.612
22828TIP3    H135555   1.021   8.142  16.607
22828TIP3    H235556   1.144   8.169  16.696
22829TIP3   OH235557   0.446   7.840  15.942
22829TIP3    H135558   0.514   7.832  15.874
22829TIP3    H235559   0.484   7.786  16.015
22830TIP3   OH235560   1.183   8.210  16.856
22830TIP3    H135561   1.253   8.206  16.923
22830TIP3    H235562   1.113   8.264  16.899
22831TIP3   OH235563   1.411   8.676  15.317
22831TIP3    H135564   1.349   8.715  15.253
22831TIP3    H235565   1.493   8.673  15.265
22832TIP3   OH235566   0.853   8.202  16.096
22832TIP3    H135567   0.759   8.183  16.110
22832TIP3    H235568   0.879   8.131  16.035
22833TIP3   OH235569   1.370   7.841  16.418
22833TIP3    H135570   1.414   7.767  16.371
22833TIP3    H235571   1.326   7.794  16.491
22834TIP3   OH235572   0.948   8.032  15.811
22834TIP3    H135573   1.028   8.090  15.819
22834TIP3    H235574   0.883   8.089  15.767
22835TIP3   OH235575   0.887   8.679  16.629
22835TIP3    H135576   0.961   8.622  16.660
22835TIP3    H235577   0.923   8.707  16.542
22836TIP3   OH235578   0.172   8.615  15.756
22836TIP3    H135579   0.128   8.687  15.808
22836TIP3    H235580   0.249   8.592  15.811
22837TIP3   OH235581   0.504   7.969  16.783
22837TIP3    H135582   0.594   7.975  16.821
22837TIP3    H235583   0.478   8.063  16.776
22838TIP3   OH235584   0.794   8.698  15.523
22838TIP3    H135585   0.752   8.683  15.437
22838TIP3    H235586   0.809   8.795  15.520
22839TIP3   OH235587   0.413   8.188  16.664
22839TIP3    H135588   0.350   8.151  16.600
22839TIP3    H235589   0.382   8.279  16.672
22840TIP3   OH235590   1.369   8.635  16.083
22840TIP3    H135591   1.307   8.619  16.156
22840TIP3    H235592   1.355   8.558  16.025
22841TIP3   OH235593   0.674   8.823  16.706
22841TIP3    H135594   0.723   8.908  16.702
22841TIP3    H235595   0.747   8.761  16.683
22842TIP3   OH235596   1.676   8.466  15.522
22842TIP3    H135597   1.676   8.406  15.446
22842TIP3    H235598   1.728   8.417  15.588
22843TIP3   OH235599   0.996   8.402  15.340
22843TIP3    H135600   1.029   8.367  15.424
22843TIP3    H235601   0.903   8.371  15.341
22844TIP3   OH235602   0.492   8.956  15.524
22844TIP3    H135603   0.586   8.957  15.543
22844TIP3    H235604   0.495   8.987  15.432
22845TIP3   OH235605   0.080   9.033  16.633
22845TIP3    H135606   0.153   8.976  16.609
22845TIP3    H235607   0.073   9.022  16.730
22846TIP3   OH235608   0.381   8.526  15.929
22846TIP3    H135609   0.475   8.526  15.954
22846TIP3    H235610   0.342   8.481  16.007
22847TIP3   OH235611   1.146   8.964  16.303
22847TIP3    H135612   1.103   9.052  16.305
22847TIP3    H235613   1.224   8.979  16.358
22848TIP3   OH235614   1.564   8.435  16.870
22848TIP3    H135615   1.505   8.495  16.820
22848TIP3    H235616   1.653   8.460  16.841
22849TIP3   OH235617   0.999   8.747  16.392
22849TIP3    H135618   1.046   8.830  16.370
22849TIP3    H235619   1.037   8.688  16.326
22850TIP3   OH235620   0.940   9.186  15.735
22850TIP3    H135621   0.932   9.283  15.721
22850TIP3    H235622   0.876   9.152  15.670
22851TIP3   OH235623   1.097   9.206  16.434
22851TIP3    H135624   1.192   9.223  16.419
22851TIP3    H235625   1.062   9.283  16.385
22852TIP3   OH235626   0.627   8.734  15.765
22852TIP3    H135627   0.669   8.707  15.681
22852TIP3    H235628   0.575   8.656  15.787
22853TIP3   OH235629   0.383   8.905  16.807
22853TIP3    H135630   0.343   8.844  16.741
22853TIP3    H235631   0.467   8.859  16.822
22854TIP3   OH235632   0.323   9.220  15.548
22854TIP3    H135633   0.407   9.171  15.558
22854TIP3    H235634   0.339   9.311  15.579
22855TIP3   OH235635   1.490   7.933  15.572
22855TIP3    H135636   1.559   7.984  15.526
22855TIP3    H235637   1.513   7.842  15.545
22856TIP3   OH235638   0.284   8.707  16.631
22856TIP3    H135639   0.317   8.622  16.595
22856TIP3    H235640   0.188   8.687  16.643
22857TIP3   OH235641   1.525   9.111  15.734
22857TIP3    H135642   1.474   9.030  15.749
22857TIP3    H235643   1.481   9.152  15.658
22858TIP3   OH235644   1.066   8.925  16.764
22858TIP3    H135645   1.013   8.855  16.720
22858TIP3    H235646   1.025   9.005  16.726
22859TIP3   OH235647   1.433   8.637  16.718
22859TIP3    H135648   1.506   8.678  16.666
22859TIP3    H235649   1.389   8.715  16.756
22860TIP3   OH235650   0.633   7.923  15.652
22860TIP3    H135651   0.539   7.938  15.626
22860TIP3    H235652   0.651   7.833  15.622
22861TIP3   OH235653   0.570   7.893  16.527
22861TIP3    H135654   0.530   7.936  16.605
22861TIP3    H235655   0.531   7.947  16.454
22862TIP3   OH235656   0.805   9.065  16.698
22862TIP3    H135657   0.880   9.126  16.706
22862TIP3    H235658   0.742   9.106  16.762
22863TIP3   OH235659   0.828   8.064  16.474
22863TIP3    H135660   0.762   8.136  16.465
22863TIP3    H235661   0.842   8.033  16.382
22864TIP3   OH235662   0.748   8.177  15.567
22864TIP3    H135663   0.754   8.201  15.472
22864TIP3    H235664   0.700   8.091  15.566
22865TIP3   OH235665   0.771   7.739  16.436
22865TIP3    H135666   0.813   7.796  16.370
22865TIP3    H235667   0.695   7.798  16.465
22866TIP3   OH235668   1.036   9.254  16.699
22866TIP3    H135669   1.007   9.346  16.702
22866TIP3    H235670   1.067   9.239  16.606
22867TIP3   OH235671   1.208   7.862  16.708
22867TIP3    H135672   1.208   7.943  16.653
22867TIP3    H235673   1.124   7.821  16.680
22868TIP3   OH235674   0.158   7.930  15.525
22868TIP3    H135675   0.245   7.966  15.550
22868TIP3    H235676   0.114   7.924  15.611
22869TIP3   OH235677   0.289   8.358  16.130
22869TIP3    H135678   0.373   8.309  16.123
22869TIP3    H235679   0.233   8.305  16.070
22870TIP3   OH235680   1.361   8.888  16.857
22870TIP3    H135681   1.302   8.943  16.805
22870TIP3    H235682   1.296   8.838  16.911
22871TIP3   OH235683   1.524   8.172  16.938
22871TIP3    H135684   1.513   8.264  16.908
22871TIP3    H235685   1.605   8.181  16.990
22872TIP3   OH235686   0.098   9.188  15.918
22872TIP3    H135687   0.142   9.238  15.989
22872TIP3    H235688   0.068   9.262  15.863
22873TIP3   OH235689   1.447   7.654  16.021
22873TIP3    H135690   1.454   7.644  16.118
22873TIP3    H235691   1.482   7.567  15.991
22874TIP3   OH235692   1.576   9.023  16.444
22874TIP3    H135693   1.649   9.071  16.401
22874TIP3    H235694   1.571   9.079  16.524
22875TIP3   OH235695   1.637   9.288  15.342
22875TIP3    H135696   1.565   9.275  15.277
22875TIP3    H235697   1.682   9.201  15.337
22876TIP3   OH235698   1.157   9.171  15.158
22876TIP3    H135699   1.075   9.119  15.146
22876TIP3    H235700   1.188   9.140  15.246
22877TIP3   OH235701   0.698   9.172  16.920
22877TIP3    H135702   0.758   9.120  16.978
22877TIP3    H235703   0.631   9.199  16.984
22878TIP3   OH235704   0.535   9.057  15.274
22878TIP3    H135705   0.570   8.971  15.239
22878TIP3    H235706   0.448   9.057  15.226
22879TIP3   OH235707   0.281   9.146  16.964
22879TIP3    H135708   0.269   9.067  16.907
22879TIP3    H235709   0.190   9.175  16.976
22880TIP3   OH235710   1.668   8.663  15.201
22880TIP3    H135711   1.679   8.576  15.243
22880TIP3    H235712   1.703   8.724  15.271
22881TIP3   OH235713   1.179   8.700  16.962
22881TIP3    H135714   1.136   8.660  16.884
22881TIP3    H235715   1.134   8.656  17.037
22882TIP3   OH235716   0.987   8.669  15.289
22882TIP3    H135717   0.993   8.729  15.367
22882TIP3    H235718   0.983   8.578  15.328
22883TIP3   OH235719   0.444   8.683  15.484
22883TIP3    H135720   0.352   8.719  15.497
22883TIP3    H235721   0.492   8.766  15.501
22884TIP3   OH235722   1.515   8.386  15.255
22884TIP3    H135723   1.440   8.325  15.247
22884TIP3    H235724   1.492   8.454  15.188
22885TIP3   OH235725   1.083   8.536  16.748
22885TIP3    H135726   1.151   8.482  16.704
22885TIP3    H235727   1.043   8.472  16.811
22886TIP3   OH235728   1.176   8.287  15.563
22886TIP3    H135729   1.229   8.368  15.554
22886TIP3    H235730   1.103   8.322  15.618
22887TIP3   OH235731   0.973   8.361  16.946
22887TIP3    H135732   0.953   8.358  17.041
22887TIP3    H235733   0.881   8.365  16.909
22888TIP3   OH235734   0.623   8.564  15.166
22888TIP3    H135735   0.555   8.535  15.230
22888TIP3    H235736   0.671   8.483  15.143
22889TIP3   OH235737   0.036   8.563   8.501
22889TIP3    H135738   0.035   8.572   8.598
22889TIP3    H235739  -0.018   8.637   8.471
22890TIP3   OH235740   1.090   8.054  15.453
22890TIP3    H135741   1.079   7.980  15.516
22890TIP3    H235742   1.129   8.124  15.510
22891TIP3   OH235743   1.073   7.863  15.638
22891TIP3    H135744   1.029   7.918  15.708
22891TIP3    H235745   1.165   7.858  15.673
22892TIP3   OH235746   0.959   8.451  15.642
22892TIP3    H135747   0.868   8.477  15.660
22892TIP3    H235748   1.009   8.524  15.686
22893TIP3   OH235749   0.468   8.171  15.170
22893TIP3    H135750   0.475   8.075  15.157
22893TIP3    H235751   0.387   8.182  15.222
22894TIP3   OH235752   0.345   8.489  15.330
22894TIP3    H135753   0.355   8.570  15.385
22894TIP3    H235754   0.248   8.478  15.326
22895TIP3   OH235755   1.274   8.146  15.234
22895TIP3    H135756   1.337   8.084  15.274
22895TIP3    H235757   1.197   8.135  15.293
22896TIP3   OH235758   0.960   7.624  15.665
22896TIP3    H135759   0.996   7.715  15.660
22896TIP3    H235760   1.041   7.576  15.688
22897TIP3   OH235761   0.878   8.051  15.248
22897TIP3    H135762   0.905   7.989  15.177
22897TIP3    H235763   0.936   8.020  15.320
22898TIP3   OH235764   0.559   7.937  15.350
22898TIP3    H135765   0.648   7.934  15.311
22898TIP3    H235766   0.506   7.889  15.283
22899TIP3   OH235767   0.419   7.811  15.150
22899TIP3    H135768   0.440   7.717  15.171
22899TIP3    H235769   0.430   7.808  15.054
22900TIP3   OH235770   1.478   7.919  15.200
22900TIP3    H135771   1.475   7.869  15.283
22900TIP3    H235772   1.473   7.845  15.137
22901TIP3   OH235773   1.034   7.572  15.390
22901TIP3    H135774   0.962   7.511  15.367
22901TIP3    H235775   1.009   7.598  15.480
22902TIP3   OH235776   0.994   7.776  15.169
22902TIP3    H135777   0.995   7.726  15.252
22902TIP3    H235778   1.036   7.711  15.110
22903TIP3   OH235779   1.638   8.869  16.909
22903TIP3    H135780   1.544   8.864  16.881
22903TIP3    H235781   1.626   8.870  17.006
22904TIP3   OH235782   1.673   9.236  16.200
22904TIP3    H135783   1.763   9.231  16.165
22904TIP3    H235784   1.620   9.253  16.119
22905TIP3   OH235785  -0.018   9.222  15.600
22905TIP3    H135786   0.025   9.162  15.664
22905TIP3    H235787  -0.057   9.159  15.537
22906TIP3   OH235788   0.107   8.816  15.162
22906TIP3    H135789   0.198   8.845  15.179
22906TIP3    H235790   0.066   8.903  15.144
22907TIP3   OH235791   0.025   8.637  16.632
22907TIP3    H135792  -0.039   8.706  16.603
22907TIP3    H235793   0.046   8.589  16.550
22908TIP3   OH235794   9.329   8.764  15.877
22908TIP3    H135795   9.271   8.695  15.917
22908TIP3    H235796   9.311   8.841  15.935
22909TIP3   OH235797   0.105   8.994  15.687
22909TIP3    H135798   0.184   9.043  15.660
22909TIP3    H235799   0.119   8.982  15.782
22910TIP3   OH235800   0.001   8.148  16.946
22910TIP3    H135801   0.045   8.215  16.999
22910TIP3    H235802   0.063   8.073  16.957
22911TIP3   OH235803   0.178   8.315  16.364
22911TIP3    H135804   0.194   8.222  16.389
22911TIP3    H235805   0.206   8.318  16.269
22912TIP3   OH235806   1.676   8.561  15.937
22912TIP3    H135807   1.677   8.522  16.027
22912TIP3    H235808   1.588   8.529  15.905
22913TIP3   OH235809   0.058   8.495  15.350
22913TIP3    H135810   0.048   8.399  15.349
22913TIP3    H235811  -0.015   8.524  15.408
22914TIP3   OH235812   0.167   7.940  17.017
22914TIP3    H135813   0.109   7.870  16.984
22914TIP3    H235814   0.256   7.911  16.993
22915TIP3   OH235815   0.226   8.086  16.502
22915TIP3    H135816   0.210   7.989  16.488
22915TIP3    H235817   0.156   8.104  16.566
22916TIP3   OH235818   0.167   8.145  15.960
22916TIP3    H135819   0.069   8.145  15.958
22916TIP3    H235820   0.184   8.156  15.865
22917TIP3   OH235821   0.127   8.213  15.676
22917TIP3    H135822   0.209   8.262  15.656
22917TIP3    H235823   0.070   8.283  15.715
22918TIP3   OH235824   1.682   8.048  15.356
22918TIP3    H135825   1.612   8.046  15.289
22918TIP3    H235826   1.723   7.959  15.345
22919TIP3   OH235827   0.183   7.822  16.482
22919TIP3    H135828   0.148   7.796  16.394
22919TIP3    H235829   0.224   7.738  16.511
22920TIP3   OH235830   1.585   7.887  15.988
22920TIP3    H135831   1.543   7.799  15.994
22920TIP3    H235832   1.507   7.947  15.988
22921TIP3   OH235833   1.740   8.196  15.925
22921TIP3    H135834   1.688   8.182  16.007
22921TIP3    H235835   1.688   8.266  15.886
22922TIP3   OH235836   1.732   7.809  16.545
22922TIP3    H135837   1.823   7.830  16.523
22922TIP3    H235838   1.715   7.866  16.623
22923TIP3   OH235839   0.241   9.318  16.350
22923TIP3    H135840   0.157   9.290  16.388
22923TIP3    H235841   0.208   9.360  16.268
22924TIP3   OH235842   1.730   7.671  15.709
22924TIP3    H135843   1.799   7.632  15.653
22924TIP3    H235844   1.778   7.737  15.763
22925TIP3   OH235845   1.508   8.997  15.297
22925TIP3    H135846   1.599   9.022  15.320
22925TIP3    H235847   1.488   9.067  15.232
22926TIP3   OH235848   1.209   9.123  15.656
22926TIP3    H135849   1.223   9.216  15.632
22926TIP3    H235850   1.124   9.130  15.703
22927TIP3   OH235851   0.776   9.224  15.381
22927TIP3    H135852   0.794   9.211  15.285
22927TIP3    H235853   0.680   9.235  15.379
22928TIP3   OH235854   0.096   7.624  15.511
22928TIP3    H135855   0.162   7.677  15.559
22928TIP3    H235856   0.079   7.548  15.569
22929TIP3   OH235857   0.586   9.223  15.704
22929TIP3    H135858   0.638   9.303  15.728
22929TIP3    H235859   0.500   9.250  15.737
22930TIP3   OH235860   1.522   9.256  15.965
22930TIP3    H135861   1.541   9.215  15.877
22930TIP3    H235862   1.445   9.202  15.997
22931TIP3   OH235863   1.313   9.158  16.101
22931TIP3    H135864   1.322   9.060  16.089
22931TIP3    H235865   1.229   9.172  16.050
22932TIP3   OH235866   1.095   9.151  15.959
22932TIP3    H135867   1.067   9.058  15.974
22932TIP3    H235868   1.045   9.174  15.879
22933TIP3   OH235869   0.718   7.762  16.085
22933TIP3    H135870   0.800   7.729  16.044
22933TIP3    H235871   0.685   7.684  16.131
22934TIP3   OH235872   0.204   7.561  16.098
22934TIP3    H135873   0.148   7.624  16.150
22934TIP3    H235874   0.293   7.596  16.121
22935TIP3   OH235875   0.056   7.705  16.274
22935TIP3    H135876  -0.011   7.666  16.334
22935TIP3    H235877   0.006   7.783  16.242
22936TIP3   OH235878   1.479   7.614  16.293
22936TIP3    H135879   1.561   7.595  16.342
22936TIP3    H235880   1.427   7.533  16.312
22937TIP3   OH235881   1.606   7.607  16.746
22937TIP3    H135882   1.550   7.667  16.800
22937TIP3    H235883   1.645   7.666  16.679
22938TIP3   OH235884   1.044   7.588  16.319
22938TIP3    H135885   0.957   7.595  16.360
22938TIP3    H235886   1.031   7.637  16.235
22939TIP3   OH235887   0.451   7.639  16.191
22939TIP3    H135888   0.462   7.632  16.286
22939TIP3    H235889   0.502   7.561  16.159
22940TIP3   OH235890   0.346   7.610  16.612
22940TIP3    H135891   0.408   7.682  16.600
22940TIP3    H235892   0.398   7.532  16.582
22941TIP3   OH235893   1.629   9.199  16.638
22941TIP3    H135894   1.718   9.205  16.677
22941TIP3    H235895   1.588   9.275  16.683
22942TIP3   OH235896   1.427   7.744  16.889
22942TIP3    H135897   1.342   7.698  16.891
22942TIP3    H235898   1.400   7.831  16.855
22943TIP3   OH235899   0.903   7.866  16.642
22943TIP3    H135900   0.867   7.804  16.575
22943TIP3    H235901   0.883   7.949  16.594
22944TIP3   OH235902   0.697   9.426  16.792
22944TIP3    H135903   0.600   9.425  16.799
22944TIP3    H235904   0.717   9.341  16.835
22945TIP3   OH235905   0.010   9.259  16.499
22945TIP3    H135906   0.041   9.173  16.536
22945TIP3    H235907   0.045   9.321  16.565
22946TIP3   OH235908   1.502   7.684  15.385
22946TIP3    H135909   1.558   7.605  15.370
22946TIP3    H235910   1.425   7.664  15.326
22947TIP3   OH235911   1.305   7.632  15.198
22947TIP3    H135912   1.225   7.611  15.249
22947TIP3    H235913   1.312   7.544  15.156
22948TIP3   OH235914   1.382   9.312  16.942
22948TIP3    H135915   1.450   9.342  16.878
22948TIP3    H235916   1.366   9.222  16.915
22949TIP3   OH235917   0.461   7.549  15.183
22949TIP3    H135918   0.449   7.502  15.098
22949TIP3    H235919   0.372   7.534  15.222
22950TIP3   OH235920   0.169   9.165  15.326
22950TIP3    H135921   0.210   9.172  15.415
22950TIP3    H235922   0.103   9.235  15.329
22951TIP3   OH235923   7.628   0.073  14.804
22951TIP3    H135924   7.716   0.049  14.836
22951TIP3    H235925   7.600   0.138  14.870
22952TIP3   OH235926   7.521   1.497  15.047
22952TIP3    H135927   7.494   1.548  14.970
22952TIP3    H235928   7.478   1.412  15.030
22953TIP3   OH235929   8.659   0.387  15.077
22953TIP3    H135930   8.722   0.359  15.005
22953TIP3    H235931   8.712   0.459  15.113
22954TIP3   OH235932   9.061   0.930  14.966
22954TIP3    H135933   8.981   0.906  14.914
22954TIP3    H235934   9.102   0.845  14.984
22955TIP3   OH235935   8.467   1.416  15.134
22955TIP3    H135936   8.493   1.383  15.221
22955TIP3    H235937   8.538   1.378  15.079
22956TIP3   OH235938   8.286   1.640  15.121
22956TIP3    H135939   8.344   1.562  15.114
22956TIP3    H235940   8.205   1.601  15.159
22957TIP3   OH235941   7.840   1.556  15.141
22957TIP3    H135942   7.762   1.561  15.085
22957TIP3    H235943   7.800   1.578  15.228
22958TIP3   OH235944   8.750   1.182  15.125
22958TIP3    H135945   8.736   1.119  15.052
22958TIP3    H235946   8.676   1.158  15.184
22959TIP3   OH235947   8.202   1.317  15.125
22959TIP3    H135948   8.298   1.315  15.108
22959TIP3    H235949   8.188   1.223  15.147
22960TIP3   OH235950   8.506   0.822  15.103
22960TIP3    H135951   8.555   0.883  15.160
22960TIP3    H235952   8.437   0.791  15.164
22961TIP3   OH235953   7.568   1.014  15.102
22961TIP3    H135954   7.599   0.993  15.192
22961TIP3    H235955   7.562   1.112  15.106
22962TIP3   OH235956   9.080   1.307  15.041
22962TIP3    H135957   8.987   1.289  15.058
22962TIP3    H235958   9.124   1.253  15.111
22963TIP3   OH235959   7.426   0.890  14.911
22963TIP3    H135960   7.475   0.920  14.991
22963TIP3    H235961   7.466   0.949  14.845
22964TIP3   OH235962   7.672   0.671  15.072
22964TIP3    H135963   7.594   0.697  15.122
22964TIP3    H235964   7.691   0.580  15.103
22965TIP3   OH235965   7.717   0.403  15.108
22965TIP3    H135966   7.642   0.341  15.097
22965TIP3    H235967   7.791   0.348  15.137
22966TIP3   OH235968   7.515   0.269  14.956
22966TIP3    H135969   7.485   0.205  15.026
22966TIP3    H235970   7.451   0.340  14.967
22967TIP3   OH235971   8.927   1.771  15.055
22967TIP3    H135972   8.883   1.815  14.980
22967TIP3    H235973   8.854   1.710  15.081
22968TIP3   OH235974   6.106   0.865  14.844
22968TIP3    H135975   6.129   0.927  14.770
22968TIP3    H235976   6.062   0.927  14.907
22969TIP3   OH235977   5.774   0.077  14.845
22969TIP3    H135978   5.856   0.047  14.802
22969TIP3    H235979   5.803   0.109  14.932
22970TIP3   OH235980   6.086   1.758  14.963
22970TIP3    H135981   6.166   1.759  14.906
22970TIP3    H235982   6.012   1.779  14.903
22971TIP3   OH235983   5.986   1.012  15.024
22971TIP3    H135984   6.012   1.020  15.118
22971TIP3    H235985   5.889   1.003  15.036
22972TIP3   OH235986   6.798   0.396  15.057
22972TIP3    H135987   6.853   0.401  14.977
22972TIP3    H235988   6.832   0.472  15.108
22973TIP3   OH235989   6.850   0.712  14.956
22973TIP3    H135990   6.932   0.670  14.985
22973TIP3    H235991   6.794   0.703  15.036
22974TIP3   OH235992   6.208   0.438  14.953
22974TIP3    H135993   6.288   0.412  14.901
22974TIP3    H235994   6.155   0.486  14.885
22975TIP3   OH235995   6.046   0.608  14.801
22975TIP3    H135996   6.039   0.621  14.706
22975TIP3    H235997   6.050   0.702  14.832
22976TIP3   OH235998   7.148   0.936  14.988
22976TIP3    H135999   7.092   0.933  14.909
22976TIP3    H236000   7.234   0.901  14.955
22977TIP3   OH236001   6.578   1.467  15.140
22977TIP3    H136002   6.620   1.404  15.200
22977TIP3    H236003   6.609   1.438  15.053
22978TIP3   OH236004   6.441   1.516  14.875
22978TIP3    H136005   6.531   1.513  14.836
22978TIP3    H236006   6.414   1.606  14.851
22979TIP3   OH236007   6.694   1.623  14.812
22979TIP3    H136008   6.704   1.692  14.881
22979TIP3    H236009   6.652   1.676  14.741
22980TIP3   OH236010   7.206   0.655  15.079
22980TIP3    H136011   7.146   0.700  15.018
22980TIP3    H236012   7.264   0.610  15.017
22981TIP3   OH236013   6.371   1.651  15.129
22981TIP3    H136014   6.429   1.573  15.112
22981TIP3    H236015   6.292   1.609  15.167
22982TIP3   OH236016   6.858   1.158  15.106
22982TIP3    H136017   6.821   1.119  15.026
22982TIP3    H236018   6.784   1.143  15.169
22983TIP3   OH236019   6.328   1.311  15.179
22983TIP3    H136020   6.395   1.333  15.114
22983TIP3    H236021   6.332   1.212  15.178
22984TIP3   OH236022   6.719   0.955  14.895
22984TIP3    H136023   6.795   0.981  14.838
22984TIP3    H236024   6.752   0.868  14.925
22985TIP3   OH236025   6.634   0.790  15.119
22985TIP3    H136026   6.686   0.844  15.182
22985TIP3    H236027   6.546   0.829  15.131
22986TIP3   OH236028   5.729   1.035  15.121
22986TIP3    H136029   5.728   0.998  15.213
22986TIP3    H236030   5.636   1.064  15.113
22987TIP3   OH236031   6.682   1.856  14.959
22987TIP3    H136032   6.604   1.840  14.901
22987TIP3    H236033   6.646   1.923  15.019
22988TIP3   OH236034   5.734   0.647  15.072
22988TIP3    H136035   5.736   0.694  15.156
22988TIP3    H236036   5.774   0.561  15.094
22989TIP3   OH236037   5.813   0.375  15.095
22989TIP3    H136038   5.738   0.326  15.132
22989TIP3    H236039   5.888   0.343  15.148
22990TIP3   OH236040   7.290   0.077  14.940
22990TIP3    H136041   7.245   0.158  14.973
22990TIP3    H236042   7.301   0.098  14.847
22991TIP3   OH236043   7.113   0.265  15.025
22991TIP3    H136044   7.031   0.221  15.052
22991TIP3    H236045   7.085   0.310  14.941
22992TIP3   OH236046   7.122   1.719  15.121
22992TIP3    H136047   7.068   1.773  15.063
22992TIP3    H236048   7.051   1.665  15.163
22993TIP3   OH236049   4.465   0.798  15.074
22993TIP3    H136050   4.424   0.837  14.993
22993TIP3    H236051   4.423   0.709  15.070
22994TIP3   OH236052   4.272   0.851  14.880
22994TIP3    H136053   4.246   0.832  14.787
22994TIP3    H236054   4.191   0.897  14.912
22995TIP3   OH236055   3.789   0.226  14.890
22995TIP3    H136056   3.825   0.196  14.806
22995TIP3    H236057   3.692   0.231  14.870
22996TIP3   OH236058   4.060   0.980  15.004
22996TIP3    H136059   4.085   0.953  15.095
22996TIP3    H236060   3.976   1.025  15.023
22997TIP3   OH236061   5.049   0.720  14.954
22997TIP3    H136062   5.060   0.732  15.051
22997TIP3    H236063   4.969   0.666  14.949
22998TIP3   OH236064   4.296   0.429  14.975
22998TIP3    H136065   4.386   0.456  14.944
22998TIP3    H236066   4.242   0.483  14.916
22999TIP3   OH236067   4.106   1.321  14.977
22999TIP3    H136068   4.119   1.319  14.881
22999TIP3    H236069   4.194   1.296  15.009
23000TIP3   OH236070   4.701   1.440  15.140
23000TIP3    H136071   4.723   1.388  15.219
23000TIP3    H236072   4.769   1.408  15.077
23001TIP3   OH236073   4.836   1.384  14.899
23001TIP3    H136074   4.748   1.370  14.860
23001TIP3    H236075   4.873   1.457  14.847
23002TIP3   OH236076   5.308   0.661  15.045
23002TIP3    H136077   5.241   0.664  14.974
23002TIP3    H236078   5.393   0.666  14.998
23003TIP3   OH236079   4.501   1.653  15.144
23003TIP3    H136080   4.556   1.574  15.124
23003TIP3    H236081   4.431   1.616  15.200
23004TIP3   OH236082   4.072   1.574  15.126
23004TIP3    H136083   4.031   1.524  15.053
23004TIP3    H236084   4.003   1.578  15.195
23005TIP3   OH236085   4.969   1.136  15.136
23005TIP3    H136086   4.929   1.117  15.050
23005TIP3    H236087   4.892   1.126  15.194
23006TIP3   OH236088   4.402   1.332  15.141
23006TIP3    H136089   4.442   1.333  15.052
23006TIP3    H236090   4.421   1.238  15.165
23007TIP3   OH236091   4.744   0.844  15.073
23007TIP3    H136092   4.756   0.836  15.169
23007TIP3    H236093   4.663   0.793  15.058
23008TIP3   OH236094   3.810   1.028  15.110
23008TIP3    H136095   3.832   1.005  15.202
23008TIP3    H236096   3.800   1.126  15.114
23009TIP3   OH236097   4.821   1.824  14.953
23009TIP3    H136098   4.802   1.800  14.861
23009TIP3    H236099   4.770   1.905  14.970
23010TIP3   OH236100   3.957   0.405  15.119
23010TIP3    H136101   3.880   0.349  15.133
23010TIP3    H236102   4.027   0.361  15.171
23011TIP3   OH236103   5.459   0.126  14.959
23011TIP3    H136104   5.372   0.157  14.992
23011TIP3    H236105   5.447   0.113  14.865
23012TIP3   OH236106   5.226   0.230  15.035
23012TIP3    H136107   5.179   0.175  15.104
23012TIP3    H236108   5.151   0.283  15.004
23013TIP3   OH236109   5.204   1.765  15.028
23013TIP3    H136110   5.199   1.746  14.931
23013TIP3    H236111   5.134   1.703  15.059
23014TIP3   OH236112   2.588   0.807  15.081
23014TIP3    H136113   2.566   0.838  14.991
23014TIP3    H236114   2.528   0.730  15.089
23015TIP3   OH236115   2.371   0.886  14.860
23015TIP3    H136116   2.357   0.923  14.770
23015TIP3    H236117   2.301   0.931  14.912
23016TIP3   OH236118   2.004   0.029  14.882
23016TIP3    H136119   1.968   0.001  14.794
23016TIP3    H236120   1.976   0.122  14.887
23017TIP3   OH236121   2.198   1.021  15.022
23017TIP3    H136122   2.208   1.001  15.117
23017TIP3    H236123   2.101   1.031  15.014
23018TIP3   OH236124   3.024   0.388  15.109
23018TIP3    H136125   3.063   0.348  15.028
23018TIP3    H236126   3.076   0.470  15.119
23019TIP3   OH236127   2.240   1.311  14.984
23019TIP3    H136128   2.206   1.283  14.895
23019TIP3    H236129   2.272   1.224  15.014
23020TIP3   OH236130   2.812   1.430  15.122
23020TIP3    H136131   2.842   1.389  15.204
23020TIP3    H236132   2.859   1.377  15.054
23021TIP3   OH236133   2.948   1.358  14.882
23021TIP3    H136134   2.889   1.317  14.818
23021TIP3    H236135   2.943   1.453  14.859
23022TIP3   OH236136   3.301   1.138  14.815
23022TIP3    H136137   3.377   1.158  14.872
23022TIP3    H236138   3.225   1.158  14.871
23023TIP3   OH236139   2.933   1.611  14.803
23023TIP3    H136140   2.927   1.689  14.864
23023TIP3    H236141   2.874   1.642  14.732
23024TIP3   OH236142   3.009   0.315  14.838
23024TIP3    H136143   3.088   0.333  14.785
23024TIP3    H236144   2.934   0.331  14.780
23025TIP3   OH236145   2.209   1.554  15.134
23025TIP3    H136146   2.198   1.473  15.081
23025TIP3    H236147   2.124   1.561  15.181
23026TIP3   OH236148   3.107   1.158  15.148
23026TIP3    H136149   3.066   1.166  15.062
23026TIP3    H236150   3.028   1.139  15.204
23027TIP3   OH236151   2.921   0.756  15.080
23027TIP3    H136152   2.909   0.750  15.176
23027TIP3    H236153   2.836   0.785  15.046
23028TIP3   OH236154   1.919   1.024  15.089
23028TIP3    H136155   1.911   0.973  15.171
23028TIP3    H236156   1.910   1.117  15.119
23029TIP3   OH236157   2.874   1.843  14.915
23029TIP3    H136158   2.855   1.901  14.840
23029TIP3    H236159   2.889   1.903  14.991
23030TIP3   OH236160   3.532   1.291  15.001
23030TIP3    H136161   3.455   1.310  15.055
23030TIP3    H236162   3.580   1.229  15.060
23031TIP3   OH236163   2.053   0.442  15.081
23031TIP3    H136164   1.992   0.379  15.038
23031TIP3    H236165   2.117   0.380  15.121
23032TIP3   OH236166   1.869   0.281  14.927
23032TIP3    H136167   1.834   0.248  15.014
23032TIP3    H236168   1.805   0.240  14.865
23033TIP3   OH236169   3.273   0.277  14.993
23033TIP3    H136170   3.244   0.212  15.057
23033TIP3    H236171   3.329   0.225  14.933
23034TIP3   OH236172   3.378   1.774  15.087
23034TIP3    H136173   3.417   1.818  15.008
23034TIP3    H236174   3.309   1.719  15.045
23035TIP3   OH236175   0.678   0.823  15.013
23035TIP3    H136176   0.608   0.844  14.946
23035TIP3    H236177   0.657   0.730  15.027
23036TIP3   OH236178   0.466   0.862  14.865
23036TIP3    H136179   0.489   0.921  14.789
23036TIP3    H236180   0.404   0.912  14.919
23037TIP3   OH236181   0.072   0.111  14.871
23037TIP3    H136182   0.110   0.033  14.826
23037TIP3    H236183   0.149   0.140  14.918
23038TIP3   OH236184   9.284   1.496  15.065
23038TIP3    H136185   9.334   1.490  14.983
23038TIP3    H236186   9.205   1.441  15.045
23039TIP3   OH236187   0.382   1.736  14.948
23039TIP3    H136188   0.348   1.674  15.017
23039TIP3    H236189   0.394   1.677  14.873
23040TIP3   OH236190   1.068   0.415  15.086
23040TIP3    H136191   1.130   0.341  15.083
23040TIP3    H236192   1.116   0.474  15.149
23041TIP3   OH236193   1.217   0.703  14.987
23041TIP3    H136194   1.308   0.670  14.986
23041TIP3    H236195   1.186   0.660  15.068
23042TIP3   OH236196   0.439   0.585  14.821
23042TIP3    H136197   0.443   0.555  14.727
23042TIP3    H236198   0.443   0.682  14.808
23043TIP3   OH236199   0.751   1.262  14.903
23043TIP3    H136200   0.709   1.328  14.848
23043TIP3    H236201   0.758   1.190  14.839
23044TIP3   OH236202   1.579   0.891  14.940
23044TIP3    H136203   1.560   0.939  14.858
23044TIP3    H236204   1.641   0.949  14.986
23045TIP3   OH236205   0.939   1.433  15.119
23045TIP3    H136206   0.964   1.412  15.210
23045TIP3    H236207   0.903   1.347  15.090
23046TIP3   OH236208   1.371   1.367  14.975
23046TIP3    H136209   1.360   1.459  14.947
23046TIP3    H236210   1.304   1.357  15.043
23047TIP3   OH236211   1.480   0.636  15.015
23047TIP3    H136212   1.508   0.720  14.973
23047TIP3    H236213   1.561   0.593  15.044
23048TIP3   OH236214   0.268   1.554  15.107
23048TIP3    H136215   0.220   1.481  15.063
23048TIP3    H236216   0.209   1.569  15.184
23049TIP3   OH236217   0.610   1.310  15.137
23049TIP3    H136218   0.661   1.290  15.056
23049TIP3    H236219   0.600   1.218  15.172
23050TIP3   OH236220   1.650   1.326  15.038
23050TIP3    H136221   1.557   1.310  15.013
23050TIP3    H236222   1.665   1.259  15.110
23051TIP3   OH236223   0.148   0.669  15.074
23051TIP3    H136224   0.120   0.667  15.167
23051TIP3    H236225   0.167   0.574  15.057
23052TIP3   OH236226   0.199   0.392  15.116
23052TIP3    H136227   0.138   0.321  15.097
23052TIP3    H236228   0.274   0.346  15.157
23053TIP3   OH236229   1.439   0.254  15.020
23053TIP3    H136230   1.421   0.191  15.092
23053TIP3    H236231   1.356   0.251  14.974
23054TIP3   OH236232   1.493   1.728  15.083
23054TIP3    H136233   1.516   1.792  15.013
23054TIP3    H236234   1.403   1.704  15.058
23055TIP3   OH236235   7.990   3.664  14.985
23055TIP3    H136236   7.937   3.595  15.031
23055TIP3    H236237   8.010   3.621  14.900
23056TIP3   OH236238   7.847   2.886  15.021
23056TIP3    H136239   7.875   2.911  15.111
23056TIP3    H236240   7.750   2.888  15.039
23057TIP3   OH236241   8.305   2.225  14.987
23057TIP3    H136242   8.349   2.255  14.906
23057TIP3    H236243   8.368   2.158  15.022
23058TIP3   OH236244   8.644   2.292  15.129
23058TIP3    H136245   8.637   2.259  15.038
23058TIP3    H236246   8.722   2.349  15.127
23059TIP3   OH236247   8.063   2.327  14.931
23059TIP3    H136248   8.153   2.290  14.943
23059TIP3    H236249   8.089   2.411  14.890
23060TIP3   OH236250   8.202   3.171  14.883
23060TIP3    H136251   8.237   3.246  14.831
23060TIP3    H236252   8.247   3.095  14.844
23061TIP3   OH236253   7.903   3.224  14.986
23061TIP3    H136254   7.885   3.176  14.904
23061TIP3    H236255   7.991   3.187  15.008
23062TIP3   OH236256   8.273   3.548  15.144
23062TIP3    H136257   8.315   3.468  15.110
23062TIP3    H236258   8.196   3.509  15.189
23063TIP3   OH236259   7.845   3.467  15.110
23063TIP3    H136260   7.832   3.386  15.056
23063TIP3    H236261   7.759   3.475  15.159
23064TIP3   OH236262   8.738   3.031  15.112
23064TIP3    H136263   8.699   2.966  15.051
23064TIP3    H236264   8.669   3.029  15.182
23065TIP3   OH236265   8.161   3.191  15.155
23065TIP3    H136266   8.189   3.183  15.061
23065TIP3    H236267   8.163   3.096  15.182
23066TIP3   OH236268   8.643   2.865  14.879
23066TIP3    H136269   8.611   2.817  14.802
23066TIP3    H236270   8.587   2.822  14.948
23067TIP3   OH236271   8.517   2.717  15.074
23067TIP3    H136272   8.515   2.702  15.170
23067TIP3    H236273   8.429   2.689  15.044
23068TIP3   OH236274   7.590   2.925  15.100
23068TIP3    H136275   7.590   2.897  15.194
23068TIP3    H236276   7.577   3.023  15.111
23069TIP3   OH236277   8.491   3.710  14.930
23069TIP3    H136278   8.414   3.746  14.882
23069TIP3    H236279   8.511   3.785  14.990
23070TIP3   OH236280   9.076   3.208  15.030
23070TIP3    H136281   9.025   3.240  15.107
23070TIP3    H236282   9.158   3.180  15.075
23071TIP3   OH236283   7.558   2.527  15.057
23071TIP3    H136284   7.623   2.599  15.055
23071TIP3    H236285   7.617   2.455  15.088
23072TIP3   OH236286   7.707   2.310  15.113
23072TIP3    H136287   7.655   2.279  15.187
23072TIP3    H236288   7.794   2.271  15.135
23073TIP3   OH236289   8.227   3.719  14.888
23073TIP3    H136290   8.149   3.713  14.945
23073TIP3    H236291   8.286   3.658  14.936
23074TIP3   OH236292   9.004   3.576  15.081
23074TIP3    H136293   9.010   3.641  15.009
23074TIP3    H236294   8.906   3.571  15.097
23075TIP3   OH236295   5.618   3.324  14.974
23075TIP3    H136296   5.586   3.384  15.042
23075TIP3    H236297   5.540   3.266  14.965
23076TIP3   OH236298   6.162   3.603  15.045
23076TIP3    H136299   6.076   3.558  15.051
23076TIP3    H236300   6.164   3.636  14.952
23077TIP3   OH236301   6.007   2.874  15.043
23077TIP3    H136302   6.013   2.876  15.141
23077TIP3    H236303   5.917   2.904  15.029
23078TIP3   OH236304   6.461   2.249  15.027
23078TIP3    H136305   6.408   2.219  14.952
23078TIP3    H236306   6.498   2.164  15.056
23079TIP3   OH236307   6.857   2.529  14.993
23079TIP3    H136308   6.913   2.519  15.071
23079TIP3    H236309   6.793   2.594  15.024
23080TIP3   OH236310   6.190   2.318  14.900
23080TIP3    H136311   6.227   2.381  14.963
23080TIP3    H236312   6.125   2.369  14.848
23081TIP3   OH236313   6.016   2.511  14.796
23081TIP3    H136314   5.924   2.488  14.818
23081TIP3    H236315   6.023   2.601  14.831
23082TIP3   OH236316   5.989   3.198  14.981
23082TIP3    H136317   6.000   3.159  14.893
23082TIP3    H236318   6.082   3.200  15.011
23083TIP3   OH236319   6.569   3.284  15.108
23083TIP3    H136320   6.590   3.303  15.200
23083TIP3    H236321   6.652   3.245  15.078
23084TIP3   OH236322   6.737   3.216  14.840
23084TIP3    H136323   6.695   3.172  14.765
23084TIP3    H236324   6.676   3.288  14.858
23085TIP3   OH236325   6.988   3.257  14.975
23085TIP3    H136326   6.911   3.237  14.919
23085TIP3    H236327   6.961   3.204  15.052
23086TIP3   OH236328   7.207   2.500  15.022
23086TIP3    H136329   7.155   2.434  15.070
23086TIP3    H236330   7.294   2.496  15.066
23087TIP3   OH236331   6.415   3.579  15.123
23087TIP3    H136332   6.445   3.539  15.040
23087TIP3    H236333   6.324   3.604  15.093
23088TIP3   OH236334   5.938   3.463  15.129
23088TIP3    H136335   5.925   3.383  15.076
23088TIP3    H236336   5.860   3.466  15.187
23089TIP3   OH236337   6.853   3.059  15.123
23089TIP3    H136338   6.889   2.972  15.099
23089TIP3    H236339   6.776   3.036  15.179
23090TIP3   OH236340   6.269   3.183  15.151
23090TIP3    H136341   6.357   3.200  15.114
23090TIP3    H236342   6.286   3.115  15.218
23091TIP3   OH236343   6.630   3.799  14.949
23091TIP3    H136344   6.558   3.763  14.896
23091TIP3    H236345   6.584   3.869  14.999
23092TIP3   OH236346   5.766   2.520  15.082
23092TIP3    H136347   5.761   2.546  15.175
23092TIP3    H236348   5.795   2.428  15.096
23093TIP3   OH236349   5.814   2.270  15.170
23093TIP3    H136350   5.730   2.239  15.133
23093TIP3    H236351   5.878   2.223  15.112
23094TIP3   OH236352   7.071   3.653  15.084
23094TIP3    H136353   7.146   3.664  15.022
23094TIP3    H236354   7.042   3.562  15.068
23095TIP3   OH236355   4.461   2.717  15.054
23095TIP3    H136356   4.475   2.705  14.959
23095TIP3    H236357   4.396   2.646  15.072
23096TIP3   OH236358   4.164   3.635  14.944
23096TIP3    H136359   4.212   3.558  14.976
23096TIP3    H236360   4.218   3.659  14.864
23097TIP3   OH236361   4.105   2.949  15.036
23097TIP3    H136362   4.140   2.929  15.125
23097TIP3    H236363   4.014   2.914  15.046
23098TIP3   OH236364   4.858   2.308  15.096
23098TIP3    H136365   4.921   2.254  15.049
23098TIP3    H236366   4.918   2.366  15.148
23099TIP3   OH236367   5.037   2.555  15.005
23099TIP3    H136368   5.013   2.530  15.097
23099TIP3    H236369   4.954   2.600  14.977
23100TIP3   OH236370   4.267   2.344  14.947
23100TIP3    H136371   4.353   2.322  14.904
23100TIP3    H236372   4.210   2.347  14.866
23101TIP3   OH236373   3.697   2.554  14.831
23101TIP3    H136374   3.792   2.537  14.817
23101TIP3    H236375   3.688   2.647  14.807
23102TIP3   OH236376   4.695   3.344  15.131
23102TIP3    H136377   4.746   3.316  15.209
23102TIP3    H236378   4.742   3.295  15.061
23103TIP3   OH236379   4.826   3.245  14.841
23103TIP3    H136380   4.808   3.163  14.791
23103TIP3    H236381   4.752   3.299  14.810
23104TIP3   OH236382   4.574   3.404  14.815
23104TIP3    H136383   4.542   3.460  14.742
23104TIP3    H236384   4.532   3.447  14.890
23105TIP3   OH236385   5.135   3.248  14.957
23105TIP3    H136386   5.108   3.211  14.870
23105TIP3    H236387   5.066   3.206  15.011
23106TIP3   OH236388   5.299   2.570  15.109
23106TIP3    H136389   5.221   2.557  15.051
23106TIP3    H236390   5.371   2.532  15.057
23107TIP3   OH236391   4.483   3.522  15.111
23107TIP3    H136392   4.554   3.454  15.119
23107TIP3    H236393   4.412   3.480  15.165
23108TIP3   OH236394   4.062   3.436  15.141
23108TIP3    H136395   4.005   3.480  15.076
23108TIP3    H236396   4.013   3.457  15.223
23109TIP3   OH236397   4.977   3.049  15.117
23109TIP3    H136398   4.982   2.989  15.040
23109TIP3    H236399   4.883   3.042  15.139
23110TIP3   OH236400   4.416   3.202  15.170
23110TIP3    H136401   4.507   3.208  15.137
23110TIP3    H236402   4.409   3.104  15.177
23111TIP3   OH236403   4.856   2.884  14.912
23111TIP3    H136404   4.880   2.881  14.818
23111TIP3    H236405   4.797   2.807  14.921
23112TIP3   OH236406   4.735   2.693  15.089
23112TIP3    H136407   4.773   2.712  15.176
23112TIP3    H236408   4.639   2.689  15.109
23113TIP3   OH236409   3.825   2.908  15.114
23113TIP3    H136410   3.836   2.887  15.210
23113TIP3    H236411   3.769   2.989  15.120
23114TIP3   OH236412   5.401   3.154  15.007
23114TIP3    H136413   5.304   3.168  15.003
23114TIP3    H236414   5.413   3.110  15.095
23115TIP3   OH236415   3.651   2.816  14.914
23115TIP3    H136416   3.735   2.825  14.962
23115TIP3    H236417   3.670   2.850  14.825
23116TIP3   OH236418   3.889   2.515  15.084
23116TIP3    H136419   3.840   2.585  15.128
23116TIP3    H236420   3.919   2.461  15.158
23117TIP3   OH236421   5.213   2.162  15.036
23117TIP3    H136422   5.154   2.100  15.086
23117TIP3    H236423   5.287   2.102  15.015
23118TIP3   OH236424   2.199   2.946  15.022
23118TIP3    H136425   2.228   2.922  15.112
23118TIP3    H236426   2.103   2.934  15.033
23119TIP3   OH236427   2.677   2.256  15.008
23119TIP3    H136428   2.695   2.271  14.914
23119TIP3    H236429   2.716   2.169  15.022
23120TIP3   OH236430   2.991   2.294  15.098
23120TIP3    H136431   3.041   2.255  15.023
23120TIP3    H236432   3.060   2.344  15.145
23121TIP3   OH236433   3.525   2.346  14.875
23121TIP3    H136434   3.478   2.387  14.950
23121TIP3    H236435   3.590   2.417  14.855
23122TIP3   OH236436   2.406   2.291  14.960
23122TIP3    H136437   2.500   2.295  14.985
23122TIP3    H236438   2.412   2.357  14.886
23123TIP3   OH236439   3.386   2.824  14.961
23123TIP3    H136440   3.353   2.853  14.873
23123TIP3    H236441   3.483   2.827  14.945
23124TIP3   OH236442   1.837   3.634  14.967
23124TIP3    H136443   1.744   3.656  14.979
23124TIP3    H236444   1.872   3.703  14.907
23125TIP3   OH236445   2.816   3.330  15.130
23125TIP3    H136446   2.845   3.278  15.208
23125TIP3    H236447   2.864   3.279  15.060
23126TIP3   OH236448   2.937   3.274  14.895
23126TIP3    H136449   2.921   3.203  14.829
23126TIP3    H236450   2.922   3.355  14.843
23127TIP3   OH236451   2.935   3.542  14.830
23127TIP3    H136452   2.953   3.526  14.925
23127TIP3    H236453   3.025   3.544  14.794
23128TIP3   OH236454   3.261   3.256  14.983
23128TIP3    H136455   3.215   3.248  14.899
23128TIP3    H236456   3.211   3.189  15.034
23129TIP3   OH236457   3.459   2.532  15.050
23129TIP3    H136458   3.407   2.615  15.047
23129TIP3    H236459   3.547   2.566  15.024
23130TIP3   OH236460   2.616   3.528  15.118
23130TIP3    H136461   2.675   3.450  15.106
23130TIP3    H236462   2.538   3.490  15.162
23131TIP3   OH236463   2.171   3.455  15.140
23131TIP3    H136464   2.108   3.434  15.070
23131TIP3    H236465   2.112   3.463  15.218
23132TIP3   OH236466   3.086   3.041  15.137
23132TIP3    H136467   3.098   2.958  15.089
23132TIP3    H236468   3.006   3.021  15.190
23133TIP3   OH236469   2.524   3.209  15.163
23133TIP3    H136470   2.615   3.205  15.130
23133TIP3    H236471   2.507   3.112  15.175
23134TIP3   OH236472   2.864   2.725  15.071
23134TIP3    H136473   2.860   2.730  15.167
23134TIP3    H236474   2.835   2.635  15.052
23135TIP3   OH236475   1.925   2.925  15.126
23135TIP3    H136476   1.947   2.891  15.215
23135TIP3    H236477   1.841   2.971  15.140
23136TIP3   OH236478   1.757   2.791  14.913
23136TIP3    H136479   1.822   2.827  14.976
23136TIP3    H236480   1.783   2.833  14.829
23137TIP3   OH236481   1.876   2.483  15.066
23137TIP3    H136482   1.891   2.564  15.117
23137TIP3    H236483   1.947   2.425  15.101
23138TIP3   OH236484   2.035   2.274  15.158
23138TIP3    H136485   1.993   2.187  15.149
23138TIP3    H236486   2.130   2.254  15.165
23139TIP3   OH236487   1.812   2.133  14.957
23139TIP3    H136488   1.808   2.053  15.012
23139TIP3    H236489   1.765   2.194  15.015
23140TIP3   OH236490   3.466   1.921  14.857
23140TIP3    H136491   3.522   1.998  14.870
23140TIP3    H236492   3.521   1.872  14.792
23141TIP3   OH236493   3.272   2.174  15.018
23141TIP3    H136494   3.236   2.121  15.093
23141TIP3    H236495   3.323   2.106  14.971
23142TIP3   OH236496   0.710   2.713  15.042
23142TIP3    H136497   0.692   2.725  14.945
23142TIP3    H236498   0.649   2.640  15.062
23143TIP3   OH236499   0.157   2.105  14.895
23143TIP3    H136500   0.221   2.050  14.847
23143TIP3    H236501   0.097   2.041  14.936
23144TIP3   OH236502  -0.014   3.407  15.015
23144TIP3    H136503  -0.011   3.500  14.987
23144TIP3    H236504  -0.039   3.363  14.932
23145TIP3   OH236505   0.366   3.663  14.914
23145TIP3    H136506   0.366   3.579  14.964
23145TIP3    H236507   0.445   3.654  14.859
23146TIP3   OH236508   0.745   2.207  15.021
23146TIP3    H136509   0.784   2.234  14.937
23146TIP3    H236510   0.802   2.134  15.049
23147TIP3   OH236511   1.106   2.274  15.125
23147TIP3    H136512   1.138   2.252  15.035
23147TIP3    H236513   1.160   2.354  15.143
23148TIP3   OH236514   0.493   2.322  14.949
23148TIP3    H136515   0.588   2.305  14.969
23148TIP3    H236516   0.487   2.418  14.966
23149TIP3   OH236517   0.298   3.236  14.953
23149TIP3    H136518   0.244   3.185  14.890
23149TIP3    H236519   0.367   3.175  14.981
23150TIP3   OH236520   1.429   2.979  14.807
23150TIP3    H136521   1.505   3.036  14.786
23150TIP3    H236522   1.352   3.035  14.810
23151TIP3   OH236523   1.147   2.181  14.867
23151TIP3    H136524   1.138   2.231  14.785
23151TIP3    H236525   1.061   2.139  14.877
23152TIP3   OH236526   1.372   3.247  14.977
23152TIP3    H136527   1.323   3.251  14.894
23152TIP3    H236528   1.310   3.193  15.031
23153TIP3   OH236529   0.278   3.456  15.100
23153TIP3    H136530   0.284   3.379  15.039
23153TIP3    H236531   0.191   3.443  15.142
23154TIP3   OH236532   1.197   3.055  15.124
23154TIP3    H136533   1.178   2.992  15.050
23154TIP3    H236534   1.116   3.042  15.179
23155TIP3   OH236535   0.654   3.199  15.164
23155TIP3    H136536   0.723   3.148  15.119
23155TIP3    H236537   0.618   3.125  15.216
23156TIP3   OH236538   1.125   2.865  14.924
23156TIP3    H136539   1.111   2.842  14.830
23156TIP3    H236540   1.072   2.795  14.968
23157TIP3   OH236541   0.969   2.696  15.073
23157TIP3    H136542   0.976   2.709  15.169
23157TIP3    H236543   0.872   2.706  15.058
23158TIP3   OH236544   0.022   2.906  15.098
23158TIP3    H136545   0.069   2.884  15.181
23158TIP3    H236546   0.048   3.001  15.089
23159TIP3   OH236547   0.957   3.705  14.941
23159TIP3    H136548   0.927   3.745  14.857
23159TIP3    H236549   0.978   3.788  14.990
23160TIP3   OH236550   1.647   3.148  15.007
23160TIP3    H136551   1.557   3.185  14.996
23160TIP3    H236552   1.633   3.080  15.075
23161TIP3   OH236553   0.061   2.500  15.056
23161TIP3    H136554   0.090   2.582  15.097
23161TIP3    H236555   0.104   2.432  15.112
23162TIP3   OH236556   0.155   2.258  15.142
23162TIP3    H136557   0.193   2.255  15.052
23162TIP3    H236558   0.233   2.238  15.197
23163TIP3   OH236559   1.376   2.185  15.004
23163TIP3    H136560   1.387   2.099  15.048
23163TIP3    H236561   1.294   2.169  14.953
23164TIP3   OH236562   0.680   3.636  14.970
23164TIP3    H136563   0.633   3.713  14.939
23164TIP3    H236564   0.773   3.666  14.968
23165TIP3   OH236565   1.500   3.611  15.087
23165TIP3    H136566   1.493   3.601  14.991
23165TIP3    H236567   1.410   3.583  15.115
23166TIP3   OH236568   8.219   4.562  15.061
23166TIP3    H136569   8.175   4.599  14.982
23166TIP3    H236570   8.148   4.500  15.091
23167TIP3   OH236571   8.021   4.607  14.887
23167TIP3    H136572   7.988   4.610  14.796
23167TIP3    H236573   7.946   4.644  14.940
23168TIP3   OH236574   7.643   3.866  14.835
23168TIP3    H136575   7.734   3.836  14.843
23168TIP3    H236576   7.631   3.922  14.913
23169TIP3   OH236577   7.532   5.262  15.012
23169TIP3    H136578   7.532   5.297  14.921
23169TIP3    H236579   7.442   5.223  15.016
23170TIP3   OH236580   7.950   5.538  14.895
23170TIP3    H136581   7.944   5.447  14.860
23170TIP3    H236582   7.956   5.583  14.807
23171TIP3   OH236583   7.829   4.711  15.051
23171TIP3    H136584   7.875   4.769  15.115
23171TIP3    H236585   7.738   4.745  15.062
23172TIP3   OH236586   8.658   4.160  15.111
23172TIP3    H136587   8.701   4.130  15.030
23172TIP3    H236588   8.726   4.218  15.146
23173TIP3   OH236589   8.782   4.419  14.996
23173TIP3    H136590   8.796   4.428  15.092
23173TIP3    H236591   8.695   4.460  14.988
23174TIP3   OH236592   8.243   5.119  14.898
23174TIP3    H136593   8.269   5.198  14.847
23174TIP3    H236594   8.165   5.095  14.842
23175TIP3   OH236595   9.102   4.727  14.997
23175TIP3    H136596   9.042   4.733  14.920
23175TIP3    H236597   9.187   4.697  14.961
23176TIP3   OH236598   7.887   5.067  14.978
23176TIP3    H136599   7.865   5.133  14.907
23176TIP3    H236600   7.976   5.093  15.000
23177TIP3   OH236601   8.486   5.215  15.140
23177TIP3    H136602   8.520   5.177  15.223
23177TIP3    H236603   8.437   5.145  15.096
23178TIP3   OH236604   8.942   4.912  14.819
23178TIP3    H136605   9.036   4.917  14.795
23178TIP3    H236606   8.941   4.980  14.887
23179TIP3   OH236607   8.900   5.152  14.979
23179TIP3    H136608   8.906   5.220  14.910
23179TIP3    H236609   8.863   5.200  15.054
23180TIP3   OH236610   8.310   5.436  15.134
23180TIP3    H136611   8.338   5.343  15.119
23180TIP3    H236612   8.213   5.429  15.134
23181TIP3   OH236613   7.842   5.308  15.143
23181TIP3    H136614   7.813   5.302  15.050
23181TIP3    H236615   7.762   5.342  15.189
23182TIP3   OH236616   8.198   5.083  15.168
23182TIP3    H136617   8.217   5.091  15.073
23182TIP3    H236618   8.193   4.985  15.178
23183TIP3   OH236619   8.545   4.540  15.099
23183TIP3    H136620   8.536   4.578  15.190
23183TIP3    H236621   8.454   4.539  15.067
23184TIP3   OH236622   7.569   4.791  15.104
23184TIP3    H136623   7.594   4.768  15.196
23184TIP3    H236624   7.582   4.890  15.107
23185TIP3   OH236625   8.569   5.598  14.954
23185TIP3    H136626   8.479   5.569  14.935
23185TIP3    H236627   8.549   5.685  14.995
23186TIP3   OH236628   9.153   5.059  14.961
23186TIP3    H136629   9.068   5.076  15.004
23186TIP3    H236630   9.215   5.045  15.036
23187TIP3   OH236631   7.640   4.416  15.075
23187TIP3    H136632   7.622   4.483  15.142
23187TIP3    H236633   7.705   4.357  15.117
23188TIP3   OH236634   7.693   4.104  15.098
23188TIP3    H136635   7.609   4.082  15.138
23188TIP3    H236636   7.754   4.098  15.172
23189TIP3   OH236637   9.163   3.853  14.895
23189TIP3    H136638   9.081   3.839  14.843
23189TIP3    H236639   9.225   3.853  14.821
23190TIP3   OH236640   9.012   5.476  15.091
23190TIP3    H136641   9.068   5.523  15.028
23190TIP3    H236642   8.928   5.472  15.045
23191TIP3   OH236643   6.316   4.588  15.041
23191TIP3    H136644   6.342   4.528  14.970
23191TIP3    H236645   6.242   4.537  15.080
23192TIP3   OH236646   5.627   5.239  15.033
23192TIP3    H136647   5.597   5.332  15.037
23192TIP3    H236648   5.557   5.204  14.973
23193TIP3   OH236649   5.953   4.842  15.021
23193TIP3    H136650   5.995   4.831  15.109
23193TIP3    H236651   5.861   4.814  15.041
23194TIP3   OH236652   6.787   4.179  15.090
23194TIP3    H136653   6.831   4.176  15.003
23194TIP3    H236654   6.833   4.250  15.137
23195TIP3   OH236655   6.885   4.485  14.958
23195TIP3    H136656   6.924   4.422  15.022
23195TIP3    H236657   6.793   4.486  14.990
23196TIP3   OH236658   7.180   4.726  15.007
23196TIP3    H136659   7.159   4.705  14.915
23196TIP3    H236660   7.270   4.759  15.002
23197TIP3   OH236661   5.535   5.494  14.981
23197TIP3    H136662   5.496   5.584  14.982
23197TIP3    H236663   5.568   5.489  14.889
23198TIP3   OH236664   6.491   5.322  14.882
23198TIP3    H136665   6.496   5.357  14.793
23198TIP3    H236666   6.421   5.377  14.922
23199TIP3   OH236667   6.847   4.154  14.838
23199TIP3    H136668   6.834   4.224  14.772
23199TIP3    H236669   6.780   4.089  14.811
23200TIP3   OH236670   6.367   5.401  15.117
23200TIP3    H136671   6.421   5.321  15.109
23200TIP3    H236672   6.290   5.369  15.170
23201TIP3   OH236673   6.309   5.072  15.141
23201TIP3    H136674   6.404   5.060  15.125
23201TIP3    H236675   6.287   4.978  15.162
23202TIP3   OH236676   6.743   4.743  14.887
23202TIP3    H136677   6.805   4.672  14.863
23202TIP3    H236678   6.692   4.696  14.955
23203TIP3   OH236679   6.620   4.568  15.064
23203TIP3    H136680   6.664   4.559  15.150
23203TIP3    H236681   6.529   4.552  15.090
23204TIP3   OH236682   5.678   4.765  15.089
23204TIP3    H136683   5.697   4.747  15.183
23204TIP3    H236684   5.652   4.859  15.094
23205TIP3   OH236685   7.296   5.096  15.019
23205TIP3    H136686   7.213   5.058  14.989
23205TIP3    H236687   7.318   5.040  15.097
23206TIP3   OH236688   5.837   4.183  15.086
23206TIP3    H136689   5.765   4.141  15.036
23206TIP3    H236690   5.910   4.125  15.057
23207TIP3   OH236691   5.589   4.058  14.951
23207TIP3    H136692   5.617   3.983  15.006
23207TIP3    H236693   5.503   4.029  14.920
23208TIP3   OH236694   7.232   3.798  14.887
23208TIP3    H136695   7.194   3.879  14.924
23208TIP3    H236696   7.326   3.818  14.880
23209TIP3   OH236697   7.074   4.036  14.998
23209TIP3    H136698   7.021   3.985  15.063
23209TIP3    H236699   7.004   4.066  14.936
23210TIP3   OH236700   7.126   5.453  15.111
23210TIP3    H136701   7.126   5.438  15.015
23210TIP3    H236702   7.045   5.406  15.139
23211TIP3   OH236703   3.726   5.240  15.015
23211TIP3    H136704   3.714   5.314  14.953
23211TIP3    H236705   3.699   5.286  15.096
23212TIP3   OH236706   4.101   4.815  15.032
23212TIP3    H136707   4.130   4.805  15.126
23212TIP3    H236708   4.008   4.790  15.039
23213TIP3   OH236709   4.520   4.117  15.032
23213TIP3    H136710   4.601   4.156  14.998
23213TIP3    H236711   4.551   4.026  15.046
23214TIP3   OH236712   4.865   4.198  15.062
23214TIP3    H136713   4.870   4.251  14.981
23214TIP3    H236714   4.948   4.222  15.107
23215TIP3   OH236715   5.030   4.410  14.937
23215TIP3    H136716   5.023   4.426  15.032
23215TIP3    H236717   4.970   4.477  14.899
23216TIP3   OH236718   4.282   4.206  14.926
23216TIP3    H136719   4.366   4.169  14.961
23216TIP3    H236720   4.276   4.289  14.977
23217TIP3   OH236721   4.102   5.101  15.013
23217TIP3    H136722   4.101   5.003  15.020
23217TIP3    H236723   4.194   5.119  14.986
23218TIP3   OH236724   3.679   5.505  14.948
23218TIP3    H136725   3.617   5.579  14.957
23218TIP3    H236726   3.760   5.555  14.923
23219TIP3   OH236727   4.691   5.170  15.110
23219TIP3    H136728   4.720   5.198  15.197
23219TIP3    H236729   4.734   5.084  15.101
23220TIP3   OH236730   5.155   4.918  14.840
23220TIP3    H136731   5.234   4.952  14.794
23220TIP3    H236732   5.119   4.850  14.782
23221TIP3   OH236733   5.312   4.454  15.075
23221TIP3    H136734   5.243   4.428  15.010
23221TIP3    H236735   5.360   4.371  15.089
23222TIP3   OH236736   4.556   5.436  15.153
23222TIP3    H136737   4.566   5.371  15.081
23222TIP3    H236738   4.462   5.424  15.174
23223TIP3   OH236739   4.077   5.339  15.143
23223TIP3    H136740   4.076   5.257  15.089
23223TIP3    H236741   3.997   5.333  15.197
23224TIP3   OH236742   4.993   4.971  15.136
23224TIP3    H136743   5.029   4.939  15.051
23224TIP3    H236744   4.923   4.907  15.158
23225TIP3   OH236745   4.415   5.095  15.129
23225TIP3    H136746   4.510   5.098  15.108
23225TIP3    H236747   4.406   5.003  15.161
23226TIP3   OH236748   4.730   4.572  15.084
23226TIP3    H136749   4.782   4.567  15.166
23226TIP3    H236750   4.646   4.603  15.122
23227TIP3   OH236751   3.804   4.789  15.118
23227TIP3    H136752   3.824   4.759  15.208
23227TIP3    H236753   3.806   4.887  15.129
23228TIP3   OH236754   4.773   5.653  14.949
23228TIP3    H136755   4.705   5.619  14.889
23228TIP3    H236756   4.736   5.625  15.034
23229TIP3   OH236757   5.412   5.065  14.995
23229TIP3    H136758   5.321   5.068  14.962
23229TIP3    H236759   5.410   4.999  15.067
23230TIP3   OH236760   3.777   4.428  15.071
23230TIP3    H136761   3.803   4.493  15.137
23230TIP3    H236762   3.840   4.354  15.088
23231TIP3   OH236763   3.930   4.192  15.111
23231TIP3    H136764   3.871   4.131  15.159
23231TIP3    H236765   4.016   4.155  15.135
23232TIP3   OH236766   5.243   4.041  14.978
23232TIP3    H136767   5.177   3.991  15.029
23232TIP3    H236768   5.208   4.041  14.887
23233TIP3   OH236769   5.218   5.552  15.091
23233TIP3    H136770   5.262   5.499  15.022
23233TIP3    H236771   5.139   5.498  15.111
23234TIP3   OH236772   2.533   4.602  15.058
23234TIP3    H136773   2.602   4.576  14.996
23234TIP3    H236774   2.482   4.520  15.075
23235TIP3   OH236775   1.959   3.854  14.831
23235TIP3    H136776   2.019   3.830  14.759
23235TIP3    H236777   1.958   3.950  14.823
23236TIP3   OH236778   1.860   5.263  15.045
23236TIP3    H136779   1.835   5.350  15.011
23236TIP3    H236780   1.784   5.210  15.014
23237TIP3   OH236781   2.654   4.135  15.037
23237TIP3    H136782   2.705   4.203  14.992
23237TIP3    H236783   2.723   4.073  15.067
23238TIP3   OH236784   2.973   4.212  15.047
23238TIP3    H136785   2.942   4.297  15.006
23238TIP3    H236786   3.041   4.250  15.108
23239TIP3   OH236787   1.799   4.362  14.810
23239TIP3    H136788   1.858   4.396  14.880
23239TIP3    H236789   1.795   4.433  14.744
23240TIP3   OH236790   2.193   5.101  14.961
23240TIP3    H136791   2.182   5.164  14.885
23240TIP3    H236792   2.287   5.110  14.981
23241TIP3   OH236793   1.781   5.514  14.927
23241TIP3    H136794   1.729   5.597  14.921
23241TIP3    H236795   1.868   5.543  14.892
23242TIP3   OH236796   2.822   5.203  15.131
23242TIP3    H136797   2.840   5.176  15.223
23242TIP3    H236798   2.880   5.142  15.083
23243TIP3   OH236799   2.950   5.124  14.865
23243TIP3    H136800   2.983   5.129  14.774
23243TIP3    H236801   2.940   5.218  14.882
23244TIP3   OH236802   3.249   4.915  14.812
23244TIP3    H136803   3.336   4.899  14.849
23244TIP3    H236804   3.193   4.909  14.890
23245TIP3   OH236805   2.636   5.409  15.130
23245TIP3    H136806   2.686   5.329  15.103
23245TIP3    H236807   2.557   5.368  15.169
23246TIP3   OH236808   2.186   5.335  15.131
23246TIP3    H136809   2.139   5.299  15.054
23246TIP3    H236810   2.112   5.346  15.194
23247TIP3   OH236811   3.089   4.949  15.133
23247TIP3    H136812   3.064   4.907  15.050
23247TIP3    H236813   3.012   4.923  15.188
23248TIP3   OH236814   2.563   5.087  15.113
23248TIP3    H136815   2.660   5.089  15.123
23248TIP3    H236816   2.541   4.995  15.141
23249TIP3   OH236817   1.907   4.801  15.120
23249TIP3    H136818   1.933   4.756  15.202
23249TIP3    H236819   1.927   4.895  15.142
23250TIP3   OH236820   1.961   4.432  15.041
23250TIP3    H136821   1.925   4.467  15.124
23250TIP3    H236822   1.989   4.342  15.067
23251TIP3   OH236823   2.050   4.187  15.113
23251TIP3    H136824   1.982   4.141  15.167
23251TIP3    H236825   2.132   4.145  15.147
23252TIP3   OH236826   3.339   5.505  15.107
23252TIP3    H136827   3.347   5.527  15.013
23252TIP3    H236828   3.250   5.466  15.114
23253TIP3   OH236829   0.710   4.600  15.048
23253TIP3    H136830   0.675   4.641  14.968
23253TIP3    H236831   0.652   4.521  15.056
23254TIP3   OH236832   0.137   3.835  14.829
23254TIP3    H136833   0.218   3.781  14.838
23254TIP3    H236834   0.070   3.777  14.866
23255TIP3   OH236835  -0.025   5.282  15.044
23255TIP3    H136836   0.007   5.353  14.986
23255TIP3    H236837  -0.077   5.234  14.977
23256TIP3   OH236838   0.323   4.778  15.065
23256TIP3    H136839   0.317   4.708  15.132
23256TIP3    H236840   0.236   4.771  15.022
23257TIP3   OH236841   0.741   4.108  15.060
23257TIP3    H136842   0.748   4.113  14.963
23257TIP3    H236843   0.826   4.064  15.075
23258TIP3   OH236844   1.085   4.175  15.063
23258TIP3    H136845   1.141   4.162  14.985
23258TIP3    H236846   1.119   4.258  15.100
23259TIP3   OH236847   1.555   4.690  14.961
23259TIP3    H136848   1.517   4.705  14.874
23259TIP3    H236849   1.629   4.752  14.961
23260TIP3   OH236850   0.365   5.079  14.950
23260TIP3    H136851   0.372   4.985  14.926
23260TIP3    H236852   0.459   5.098  14.972
23261TIP3   OH236853   0.928   5.228  15.143
23261TIP3    H136854   0.967   5.180  15.217
23261TIP3    H236855   0.951   5.169  15.069
23262TIP3   OH236856   0.772   5.282  14.853
23262TIP3    H136857   0.807   5.214  14.795
23262TIP3    H236858   0.834   5.355  14.830
23263TIP3   OH236859   1.350   5.138  14.987
23263TIP3    H136860   1.287   5.144  14.911
23263TIP3    H236861   1.304   5.070  15.041
23264TIP3   OH236862   1.539   4.411  15.025
23264TIP3    H136863   1.498   4.497  15.007
23264TIP3    H236864   1.633   4.436  15.021
23265TIP3   OH236865   0.741   5.433  15.139
23265TIP3    H136866   0.803   5.362  15.113
23265TIP3    H236867   0.664   5.379  15.162
23266TIP3   OH236868   0.291   5.331  15.127
23266TIP3    H136869   0.268   5.279  15.049
23266TIP3    H236870   0.212   5.321  15.186
23267TIP3   OH236871   1.193   4.955  15.124
23267TIP3    H136872   1.161   4.913  15.042
23267TIP3    H236873   1.116   4.936  15.182
23268TIP3   OH236874   0.615   5.057  15.072
23268TIP3    H136875   0.702   5.070  15.031
23268TIP3    H236876   0.634   4.977  15.126
23269TIP3   OH236877   0.976   4.578  15.079
23269TIP3    H136878   0.999   4.580  15.173
23269TIP3    H236879   0.880   4.597  15.080
23270TIP3   OH236880   0.036   4.780  15.112
23270TIP3    H136881   0.079   4.758  15.197
23270TIP3    H236882   0.055   4.876  15.105
23271TIP3   OH236883   0.999   5.606  15.026
23271TIP3    H136884   0.977   5.573  14.937
23271TIP3    H236885   0.985   5.701  15.020
23272TIP3   OH236886   1.646   5.094  15.008
23272TIP3    H136887   1.550   5.109  15.004
23272TIP3    H236888   1.654   5.034  15.086
23273TIP3   OH236889   0.003   4.381  15.057
23273TIP3    H136890   0.021   4.472  15.081
23273TIP3    H236891   0.075   4.333  15.101
23274TIP3   OH236892   0.155   4.157  15.169
23274TIP3    H136893   0.125   4.118  15.087
23274TIP3    H236894   0.246   4.122  15.178
23275TIP3   OH236895   1.464   5.519  15.105
23275TIP3    H136896   1.493   5.528  15.013
23275TIP3    H236897   1.375   5.477  15.100
23276TIP3   OH236898   8.260   6.475  15.019
23276TIP3    H136899   8.199   6.540  14.981
23276TIP3    H236900   8.198   6.412  15.062
23277TIP3   OH236901   7.946   7.405  14.927
23277TIP3    H136902   8.009   7.347  14.972
23277TIP3    H236903   8.002   7.457  14.866
23278TIP3   OH236904   8.643   6.091  15.059
23278TIP3    H136905   8.713   6.026  15.041
23278TIP3    H236906   8.689   6.148  15.125
23279TIP3   OH236907   9.130   6.130  14.806
23279TIP3    H136908   9.098   6.183  14.881
23279TIP3    H236909   9.223   6.118  14.825
23280TIP3   OH236910   7.996   6.088  14.926
23280TIP3    H136911   8.089   6.103  14.909
23280TIP3    H236912   7.953   6.115  14.843
23281TIP3   OH236913   7.438   6.301  14.795
23281TIP3    H136914   7.510   6.263  14.848
23281TIP3    H236915   7.444   6.395  14.823
23282TIP3   OH236916   9.095   6.622  15.005
23282TIP3    H136917   9.063   6.648  14.917
23282TIP3    H236918   9.191   6.616  14.993
23283TIP3   OH236919   8.427   7.032  15.120
23283TIP3    H136920   8.478   6.969  15.175
23283TIP3    H236921   8.486   7.043  15.041
23284TIP3   OH236922   8.564   7.039  14.891
23284TIP3    H136923   8.586   6.995  14.808
23284TIP3    H236924   8.652   7.060  14.926
23285TIP3   OH236925   8.754   5.991  14.738
23285TIP3    H136926   8.838   6.029  14.769
23285TIP3    H236927   8.698   5.998  14.816
23286TIP3   OH236928   9.047   6.296  15.020
23286TIP3    H136929   9.069   6.389  15.006
23286TIP3    H236930   9.124   6.267  15.073
23287TIP3   OH236931   8.283   7.271  15.130
23287TIP3    H136932   8.344   7.195  15.119
23287TIP3    H236933   8.210   7.230  15.181
23288TIP3   OH236934   7.842   7.199  15.137
23288TIP3    H136935   7.788   7.219  15.059
23288TIP3    H236936   7.785   7.235  15.210
23289TIP3   OH236937   8.752   6.844  15.127
23289TIP3    H136938   8.747   6.785  15.052
23289TIP3    H236939   8.673   6.822  15.180
23290TIP3   OH236940   8.174   6.942  15.104
23290TIP3    H136941   8.267   6.975  15.106
23290TIP3    H236942   8.187   6.851  15.141
23291TIP3   OH236943   7.557   6.671  15.113
23291TIP3    H136944   7.594   6.649  15.200
23291TIP3    H236945   7.560   6.770  15.115
23292TIP3   OH236946   9.130   6.987  15.025
23292TIP3    H136947   9.071   6.928  14.976
23292TIP3    H236948   9.187   6.930  15.082
23293TIP3   OH236949   7.418   6.553  14.912
23293TIP3    H136950   7.469   6.587  14.990
23293TIP3    H236951   7.448   6.612  14.841
23294TIP3   OH236952   7.595   6.283  15.080
23294TIP3    H136953   7.609   6.359  15.139
23294TIP3    H236954   7.653   6.216  15.121
23295TIP3   OH236955   7.710   6.034  15.098
23295TIP3    H136956   7.650   6.033  15.021
23295TIP3    H236957   7.794   6.013  15.054
23296TIP3   OH236958   7.471   5.928  14.965
23296TIP3    H136959   7.487   5.832  14.963
23296TIP3    H236960   7.478   5.943  15.060
23297TIP3   OH236961   8.905   5.941  14.983
23297TIP3    H136962   8.913   5.854  15.029
23297TIP3    H236963   8.918   5.913  14.891
23298TIP3   OH236964   9.023   7.379  15.074
23298TIP3    H136965   9.038   7.469  15.041
23298TIP3    H236966   8.930   7.362  15.050
23299TIP3   OH236967   5.785   5.714  14.834
23299TIP3    H136968   5.801   5.700  14.740
23299TIP3    H236969   5.688   5.710  14.837
23300TIP3   OH236970   5.570   7.116  15.038
23300TIP3    H136971   5.578   7.158  14.951
23300TIP3    H236972   5.578   7.023  15.011
23301TIP3   OH236973   6.079   7.425  14.936
23301TIP3    H136974   5.993   7.380  14.937
23301TIP3    H236975   6.081   7.463  14.847
23302TIP3   OH236976   6.752   6.071  15.048
23302TIP3    H136977   6.808   6.012  14.995
23302TIP3    H236978   6.813   6.120  15.107
23303TIP3   OH236979   6.007   6.975  14.992
23303TIP3    H136980   5.974   6.911  14.926
23303TIP3    H236981   6.079   6.923  15.034
23304TIP3   OH236982   6.605   7.108  15.145
23304TIP3    H136983   6.623   7.062  15.228
23304TIP3    H236984   6.646   7.048  15.081
23305TIP3   OH236985   6.759   7.024  14.858
23305TIP3    H136986   6.783   6.995  14.766
23305TIP3    H236987   6.698   7.097  14.840
23306TIP3   OH236988   7.016   7.031  14.972
23306TIP3    H136989   6.946   7.050  14.907
23306TIP3    H236990   6.962   6.984  15.038
23307TIP3   OH236991   5.934   7.236  15.067
23307TIP3    H136992   5.953   7.147  15.032
23307TIP3    H236993   5.868   7.217  15.137
23308TIP3   OH236994   6.851   6.824  15.157
23308TIP3    H136995   6.809   6.824  15.070
23308TIP3    H236996   6.774   6.807  15.216
23309TIP3   OH236997   6.256   6.899  15.150
23309TIP3    H136998   6.335   6.947  15.127
23309TIP3    H236999   6.292   6.808  15.162
23310TIP3   OH237000   6.652   6.456  15.069
23310TIP3    H137001   6.704   6.452  15.150
23310TIP3    H237002   6.562   6.453  15.101
23311TIP3   OH237003   5.679   6.697  15.092
23311TIP3    H137004   5.713   6.637  15.159
23311TIP3    H237005   5.714   6.784  15.121
23312TIP3   OH237006   7.287   6.978  15.003
23312TIP3    H137007   7.190   6.980  14.989
23312TIP3    H237008   7.295   6.916  15.077
23313TIP3   OH237009   4.459   6.492  15.037
23313TIP3    H137010   4.417   6.500  14.950
23313TIP3    H237011   4.397   6.426  15.076
23314TIP3   OH237012   4.203   6.534  14.843
23314TIP3    H137013   4.151   6.472  14.789
23314TIP3    H237014   4.137   6.575  14.904
23315TIP3   OH237015   3.859   5.708  14.842
23315TIP3    H137016   3.890   5.726  14.753
23315TIP3    H237017   3.871   5.792  14.886
23316TIP3   OH237018   3.748   7.130  14.992
23316TIP3    H137019   3.716   7.221  14.980
23316TIP3    H237020   3.662   7.082  14.998
23317TIP3   OH237021   4.220   7.434  14.997
23317TIP3    H137022   4.189   7.349  15.033
23317TIP3    H237023   4.299   7.403  14.950
23318TIP3   OH237024   4.060   6.678  15.029
23318TIP3    H137025   4.092   6.682  15.121
23318TIP3    H237026   3.963   6.684  15.044
23319TIP3   OH237027   4.543   6.013  14.981
23319TIP3    H137028   4.540   5.990  14.888
23319TIP3    H237029   4.575   5.932  15.024
23320TIP3   OH237030   5.031   6.362  14.988
23320TIP3    H137031   5.016   6.328  15.080
23320TIP3    H237032   4.947   6.409  14.977
23321TIP3   OH237033   4.297   6.112  14.908
23321TIP3    H137034   4.394   6.107  14.918
23321TIP3    H237035   4.283   6.101  14.812
23322TIP3   OH237036   5.331   6.590  14.965
23322TIP3    H137037   5.286   6.664  14.924
23322TIP3    H237038   5.424   6.618  14.950
23323TIP3   OH237039   4.075   7.014  14.976
23323TIP3    H137040   4.070   7.019  14.879
23323TIP3    H237041   4.161   6.970  14.989
23324TIP3   OH237042   3.710   7.404  14.958
23324TIP3    H137043   3.667   7.472  15.013
23324TIP3    H237044   3.802   7.432  14.964
23325TIP3   OH237045   4.679   7.068  15.124
23325TIP3    H137046   4.723   7.037  15.204
23325TIP3    H237047   4.721   7.012  15.057
23326TIP3   OH237048   4.775   7.015  14.855
23326TIP3    H137049   4.684   6.997  14.828
23326TIP3    H237050   4.779   7.110  14.836
23327TIP3   OH237051   5.325   6.296  15.032
23327TIP3    H137052   5.250   6.348  14.995
23327TIP3    H237053   5.377   6.369  15.071
23328TIP3   OH237054   4.067   7.233  15.131
23328TIP3    H137055   4.055   7.148  15.080
23328TIP3    H237056   3.994   7.228  15.195
23329TIP3   OH237057   4.969   6.806  15.109
23329TIP3    H137058   4.999   6.715  15.114
23329TIP3    H237059   4.887   6.801  15.162
23330TIP3   OH237060   4.396   6.970  15.176
23330TIP3    H137061   4.468   6.980  15.112
23330TIP3    H237062   4.404   6.876  15.204
23331TIP3   OH237063   4.751   6.477  15.081
23331TIP3    H137064   4.753   6.497  15.177
23331TIP3    H237065   4.658   6.452  15.067
23332TIP3   OH237066   3.802   6.694  15.116
23332TIP3    H137067   3.827   6.666  15.207
23332TIP3    H237068   3.801   6.793  15.125
23333TIP3   OH237069   3.946   5.984  15.160
23333TIP3    H137070   3.995   5.969  15.078
23333TIP3    H237071   4.015   6.018  15.219
23334TIP3   OH237072   5.404   5.739  14.873
23334TIP3    H137073   5.310   5.745  14.890
23334TIP3    H237074   5.420   5.815  14.814
23335TIP3   OH237075   5.205   7.351  15.112
23335TIP3    H137076   5.237   7.270  15.069
23335TIP3    H237077   5.116   7.323  15.141
23336TIP3   OH237078   2.579   6.477  15.065
23336TIP3    H137079   2.604   6.470  14.972
23336TIP3    H237080   2.513   6.405  15.074
23337TIP3   OH237081   2.014   5.676  14.867
23337TIP3    H137082   2.006   5.664  14.771
23337TIP3    H237083   1.965   5.758  14.882
23338TIP3   OH237084   1.836   7.180  15.057
23338TIP3    H137085   1.897   7.253  15.038
23338TIP3    H237086   1.762   7.197  14.998
23339TIP3   OH237087   2.334   7.411  14.970
23339TIP3    H137088   2.263   7.358  15.010
23339TIP3    H237089   2.292   7.447  14.891
23340TIP3   OH237090   2.184   6.693  15.007
23340TIP3    H137091   2.205   6.649  15.091
23340TIP3    H237092   2.086   6.691  15.013
23341TIP3   OH237093   2.632   5.975  14.987
23341TIP3    H137094   2.688   5.994  14.912
23341TIP3    H237095   2.695   5.926  15.044
23342TIP3   OH237096   2.398   6.136  14.904
23342TIP3    H137097   2.482   6.095  14.932
23342TIP3    H237098   2.356   6.147  14.991
23343TIP3   OH237099   3.431   6.591  14.953
23343TIP3    H137100   3.384   6.642  14.884
23343TIP3    H237101   3.513   6.641  14.963
23344TIP3   OH237102   2.189   6.999  14.984
23344TIP3    H137103   2.189   6.982  14.889
23344TIP3    H237104   2.244   6.924  15.014
23345TIP3   OH237105   2.815   7.100  15.167
23345TIP3    H137106   2.846   7.056  15.248
23345TIP3    H237107   2.879   7.064  15.103
23346TIP3   OH237108   2.877   7.270  14.826
23346TIP3    H137109   2.885   7.355  14.875
23346TIP3    H237110   2.806   7.294  14.760
23347TIP3   OH237111   3.414   6.290  15.042
23347TIP3    H137112   3.381   6.375  15.008
23347TIP3    H237113   3.431   6.319  15.134
23348TIP3   OH237114   2.624   7.297  15.131
23348TIP3    H137115   2.683   7.219  15.136
23348TIP3    H237116   2.538   7.260  15.161
23349TIP3   OH237117   2.188   7.219  15.132
23349TIP3    H137118   2.182   7.140  15.072
23349TIP3    H237119   2.107   7.212  15.186
23350TIP3   OH237120   3.111   6.821  15.151
23350TIP3    H137121   3.120   6.792  15.059
23350TIP3    H237122   3.029   6.780  15.183
23351TIP3   OH237123   2.876   6.438  15.102
23351TIP3    H137124   2.890   6.474  15.191
23351TIP3    H237125   2.787   6.469  15.083
23352TIP3   OH237126   1.912   6.685  15.120
23352TIP3    H137127   1.943   6.659  15.210
23352TIP3    H237128   1.917   6.783  15.124
23353TIP3   OH237129   2.866   7.513  14.926
23353TIP3    H137130   2.770   7.497  14.922
23353TIP3    H237131   2.864   7.596  14.977
23354TIP3   OH237132   3.517   7.000  15.018
23354TIP3    H137133   3.443   6.971  14.962
23354TIP3    H237134   3.519   6.929  15.086
23355TIP3   OH237135   2.029   5.990  15.202
23355TIP3    H137136   1.992   6.006  15.113
23355TIP3    H237137   2.125   5.998  15.188
23356TIP3   OH237138   1.852   5.902  14.962
23356TIP3    H137139   1.815   5.845  15.032
23356TIP3    H237140   1.782   5.900  14.895
23357TIP3   OH237141   3.484   5.758  14.854
23357TIP3    H137142   3.400   5.777  14.897
23357TIP3    H237143   3.456   5.736  14.761
23358TIP3   OH237144   2.604   7.479  14.945
23358TIP3    H137145   2.508   7.466  14.939
23358TIP3    H237146   2.625   7.402  15.003
23359TIP3   OH237147   3.304   7.385  15.087
23359TIP3    H137148   3.350   7.331  15.021
23359TIP3    H237149   3.225   7.329  15.101
23360TIP3   OH237150   9.322   7.182  15.068
23360TIP3    H137151   9.313   7.200  14.974
23360TIP3    H237152   9.237   7.136  15.085
23361TIP3   OH237153   0.401   7.435  14.932
23361TIP3    H137154   0.363   7.356  14.973
23361TIP3    H237155   0.326   7.460  14.873
23362TIP3   OH237156   0.341   6.634  15.008
23362TIP3    H137157   0.366   6.669  15.096
23362TIP3    H237158   0.249   6.664  15.001
23363TIP3   OH237159   0.749   6.014  15.063
23363TIP3    H137160   0.750   6.019  14.967
23363TIP3    H237161   0.825   5.954  15.077
23364TIP3   OH237162   1.174   6.058  15.049
23364TIP3    H137163   1.242   5.990  15.060
23364TIP3    H237164   1.208   6.134  15.103
23365TIP3   OH237165   1.533   6.559  14.971
23365TIP3    H137166   1.487   6.594  14.893
23365TIP3    H237167   1.625   6.553  14.943
23366TIP3   OH237168   0.346   6.952  14.932
23366TIP3    H137169   0.318   6.920  14.843
23366TIP3    H237170   0.406   7.024  14.907
23367TIP3   OH237171   0.917   7.058  15.106
23367TIP3    H137172   0.955   7.051  15.195
23367TIP3    H237173   0.991   7.026  15.051
23368TIP3   OH237174   1.076   7.004  14.860
23368TIP3    H137175   1.081   6.953  14.777
23368TIP3    H237176   1.066   7.096  14.830
23369TIP3   OH237177   1.549   6.299  15.039
23369TIP3    H137178   1.537   6.386  14.996
23369TIP3    H237179   1.633   6.269  15.000
23370TIP3   OH237180   0.748   7.312  15.126
23370TIP3    H137181   0.798   7.229  15.105
23370TIP3    H237182   0.670   7.276  15.173
23371TIP3   OH237183   0.294   7.215  15.113
23371TIP3    H137184   0.265   7.157  15.042
23371TIP3    H237185   0.212   7.225  15.168
23372TIP3   OH237186   1.227   6.812  15.127
23372TIP3    H137187   1.226   6.778  15.035
23372TIP3    H237188   1.137   6.794  15.161
23373TIP3   OH237189   0.654   6.980  15.137
23373TIP3    H137190   0.749   6.988  15.117
23373TIP3    H237191   0.648   6.885  15.159
23374TIP3   OH237192   0.997   6.463  15.075
23374TIP3    H137193   1.070   6.462  15.140
23374TIP3    H237194   0.935   6.399  15.112
23375TIP3   OH237195   0.058   6.664  15.081
23375TIP3    H137196   0.086   6.634  15.169
23375TIP3    H237197   0.062   6.762  15.088
23376TIP3   OH237198   0.017   6.315  15.048
23376TIP3    H137199   0.064   6.378  15.104
23376TIP3    H237200   0.080   6.241  15.049
23377TIP3   OH237201   0.152   6.073  15.101
23377TIP3    H137202   0.095   5.996  15.094
23377TIP3    H237203   0.224   6.042  15.159
23378TIP3   OH237204   0.665   7.442  14.881
23378TIP3    H137205   0.574   7.457  14.913
23378TIP3    H237206   0.719   7.449  14.962
23379TIP3   OH237207   7.970   9.228  14.968
23379TIP3    H137208   8.037   9.204  15.033
23379TIP3    H237209   8.023   9.284  14.908
23380TIP3   OH237210   7.853   8.562  15.009
23380TIP3    H137211   7.868   8.537  15.101
23380TIP3    H237212   7.756   8.576  15.009
23381TIP3   OH237213   8.316   7.858  15.046
23381TIP3    H137214   8.324   7.897  14.958
23381TIP3    H237215   8.320   7.763  15.025
23382TIP3   OH237216   8.629   7.991  15.098
23382TIP3    H137217   8.646   7.955  15.009
23382TIP3    H237218   8.711   7.969  15.143
23383TIP3   OH237219   9.081   8.465  14.928
23383TIP3    H137220   9.031   8.540  14.893
23383TIP3    H237221   9.166   8.505  14.952
23384TIP3   OH237222   7.482   9.228  14.930
23384TIP3    H137223   7.405   9.283  14.950
23384TIP3    H237224   7.533   9.294  14.879
23385TIP3   OH237225   8.467   8.950  15.158
23385TIP3    H137226   8.488   8.889  15.230
23385TIP3    H237227   8.545   8.935  15.103
23386TIP3   OH237228   8.725   7.864  14.883
23386TIP3    H137229   8.723   7.924  14.804
23386TIP3    H237230   8.656   7.799  14.861
23387TIP3   OH237231   8.287   9.158  15.145
23387TIP3    H137232   8.340   9.076  15.134
23387TIP3    H237233   8.208   9.122  15.190
23388TIP3   OH237234   8.727   8.696  15.137
23388TIP3    H137235   8.713   8.649  15.053
23388TIP3    H237236   8.654   8.664  15.191
23389TIP3   OH237237   8.183   8.838  15.128
23389TIP3    H137238   8.275   8.828  15.155
23389TIP3    H237239   8.155   8.744  15.128
23390TIP3   OH237240   8.653   8.548  14.887
23390TIP3    H137241   8.683   8.487  14.819
23390TIP3    H237242   8.594   8.492  14.941
23391TIP3   OH237243   8.527   8.360  15.071
23391TIP3    H137244   8.598   8.339  15.134
23391TIP3    H237245   8.453   8.311  15.110
23392TIP3   OH237246   7.614   8.639  15.113
23392TIP3    H137247   7.602   8.588  15.196
23392TIP3    H237248   7.543   8.704  15.119
23393TIP3   OH237249   9.165   8.847  14.977
23393TIP3    H137250   9.078   8.837  14.934
23393TIP3    H237251   9.152   8.805  15.064
23394TIP3   OH237252   7.517   8.165  15.093
23394TIP3    H137253   7.551   8.229  15.157
23394TIP3    H237254   7.598   8.142  15.043
23395TIP3   OH237255   7.724   7.916  15.150
23395TIP3    H137256   7.735   7.923  15.054
23395TIP3    H237257   7.818   7.909  15.177
23396TIP3   OH237258   7.486   7.789  14.954
23396TIP3    H137259   7.474   7.722  15.025
23396TIP3    H237260   7.506   7.868  15.005
23397TIP3   OH237261   8.946   7.842  15.013
23397TIP3    H137262   8.926   7.754  15.050
23397TIP3    H237263   8.860   7.856  14.967
23398TIP3   OH237264   8.208   9.377  14.926
23398TIP3    H137265   8.259   9.454  14.892
23398TIP3    H237266   8.278   9.315  14.951
23399TIP3   OH237267   8.988   9.230  15.056
23399TIP3    H137268   8.963   9.324  15.057
23399TIP3    H237269   8.906   9.186  15.027
23400TIP3   OH237270   5.591   9.000  15.026
23400TIP3    H137271   5.609   9.095  15.006
23400TIP3    H237272   5.514   8.988  14.970
23401TIP3   OH237273   5.960   8.565  15.026
23401TIP3    H137274   6.006   8.534  15.106
23401TIP3    H237275   5.867   8.543  15.047
23402TIP3   OH237276   6.427   7.906  15.013
23402TIP3    H137277   6.471   7.914  14.928
23402TIP3    H237278   6.479   7.835  15.055
23403TIP3   OH237279   6.750   7.961  15.085
23403TIP3    H137280   6.809   7.937  15.012
23403TIP3    H237281   6.811   8.017  15.139
23404TIP3   OH237282   6.173   7.882  14.927
23404TIP3    H137283   6.265   7.866  14.958
23404TIP3    H237284   6.165   7.977  14.942
23405TIP3   OH237285   5.596   9.249  14.947
23405TIP3    H137286   5.542   9.326  14.973
23405TIP3    H237287   5.656   9.294  14.884
23406TIP3   OH237288   6.771   7.813  14.851
23406TIP3    H137289   6.725   7.895  14.826
23406TIP3    H237290   6.693   7.752  14.869
23407TIP3   OH237291   7.224   8.165  15.046
23407TIP3    H137292   7.199   8.205  14.960
23407TIP3    H237293   7.320   8.184  15.048
23408TIP3   OH237294   6.422   9.155  15.167
23408TIP3    H137295   6.453   9.069  15.134
23408TIP3    H237296   6.329   9.134  15.190
23409TIP3   OH237297   6.322   8.812  15.116
23409TIP3    H137298   6.413   8.785  15.137
23409TIP3    H237299   6.287   8.720  15.112
23410TIP3   OH237300   6.761   8.527  14.846
23410TIP3    H137301   6.842   8.472  14.862
23410TIP3    H237302   6.694   8.464  14.878
23411TIP3   OH237303   6.639   8.364  15.058
23411TIP3    H137304   6.629   8.340  15.151
23411TIP3    H237305   6.573   8.307  15.016
23412TIP3   OH237306   5.684   8.575  15.128
23412TIP3    H137307   5.709   8.547  15.217
23412TIP3    H237308   5.679   8.673  15.140
23413TIP3   OH237309   7.246   8.843  15.014
23413TIP3    H137310   7.218   8.764  14.965
23413TIP3    H237311   7.288   8.803  15.093
23414TIP3   OH237312   5.665   8.199  15.088
23414TIP3    H137313   5.668   8.253  15.169
23414TIP3    H237314   5.744   8.143  15.099
23415TIP3   OH237315   5.840   7.972  15.108
23415TIP3    H137316   5.756   7.927  15.130
23415TIP3    H237317   5.904   7.899  15.120
23416TIP3   OH237318   7.020   7.815  14.976
23416TIP3    H137319   7.027   7.746  15.044
23416TIP3    H237320   6.930   7.803  14.939
23417TIP3   OH237321   6.374   9.338  14.939
23417TIP3    H137322   6.434   9.401  14.895
23417TIP3    H237323   6.414   9.332  15.026
23418TIP3   OH237324   7.145   9.246  15.112
23418TIP3    H137325   7.194   9.301  15.046
23418TIP3    H237326   7.063   9.229  15.062
23419TIP3   OH237327   3.749   9.019  14.977
23419TIP3    H137328   3.699   9.101  14.980
23419TIP3    H237329   3.674   8.957  14.970
23420TIP3   OH237330   4.107   8.544  15.038
23420TIP3    H137331   4.112   8.513  15.130
23420TIP3    H237332   4.054   8.624  15.055
23421TIP3   OH237333   4.570   7.917  15.018
23421TIP3    H137334   4.526   7.916  14.931
23421TIP3    H237335   4.621   7.834  15.015
23422TIP3   OH237336   4.910   7.955  15.069
23422TIP3    H137337   4.861   7.998  14.997
23422TIP3    H237338   4.949   8.030  15.120
23423TIP3   OH237339   5.478   7.973  14.869
23423TIP3    H137340   5.415   8.025  14.921
23423TIP3    H237341   5.528   8.044  14.825
23424TIP3   OH237342   5.020   8.246  14.978
23424TIP3    H137343   5.008   8.237  15.074
23424TIP3    H237344   4.929   8.242  14.945
23425TIP3   OH237345   4.110   8.863  14.977
23425TIP3    H137346   4.079   8.892  14.891
23425TIP3    H237347   4.201   8.893  14.979
23426TIP3   OH237348   4.701   8.966  15.138
23426TIP3    H137349   4.768   8.909  15.179
23426TIP3    H237350   4.735   8.977  15.047
23427TIP3   OH237351   4.609   9.085  14.862
23427TIP3    H137352   4.687   9.118  14.811
23427TIP3    H237353   4.538   9.134  14.817
23428TIP3   OH237354   5.181   8.908  14.950
23428TIP3    H137355   5.128   8.969  14.896
23428TIP3    H237356   5.110   8.856  14.991
23429TIP3   OH237357   5.326   8.168  15.014
23429TIP3    H137358   5.253   8.228  14.994
23429TIP3    H237359   5.405   8.222  15.024
23430TIP3   OH237360   4.534   9.184  15.127
23430TIP3    H137361   4.580   9.110  15.080
23430TIP3    H237362   4.442   9.161  15.109
23431TIP3   OH237363   4.946   8.685  15.096
23431TIP3    H137364   4.922   8.625  15.022
23431TIP3    H237365   4.866   8.681  15.152
23432TIP3   OH237366   4.457   8.869  15.164
23432TIP3    H137367   4.547   8.907  15.158
23432TIP3    H237368   4.474   8.787  15.214
23433TIP3   OH237369   4.858   8.521  14.859
23433TIP3    H137370   4.861   8.507  14.762
23433TIP3    H237371   4.826   8.435  14.888
23434TIP3   OH237372   4.739   8.350  15.061
23434TIP3    H137373   4.772   8.399  15.138
23434TIP3    H237374   4.652   8.326  15.097
23435TIP3   OH237375   3.955   7.953  15.114
23435TIP3    H137376   3.906   7.875  15.088
23435TIP3    H237377   4.045   7.918  15.123
23436TIP3   OH237378   5.147   7.862  14.982
23436TIP3    H137379   5.149   7.784  15.039
23436TIP3    H237380   5.069   7.907  15.021
23437TIP3   OH237381   4.438   9.330  14.911
23437TIP3    H137382   4.496   9.387  14.859
23437TIP3    H237383   4.497   9.298  14.980
23438TIP3   OH237384   2.345   8.387  14.870
23438TIP3    H137385   2.338   8.392  14.774
23438TIP3    H237386   2.272   8.441  14.904
23439TIP3   OH237387   2.011   7.604  14.832
23439TIP3    H137388   1.986   7.550  14.754
23439TIP3    H237389   1.961   7.685  14.814
23440TIP3   OH237390   1.891   9.001  15.002
23440TIP3    H137391   1.852   9.091  15.004
23440TIP3    H237392   1.811   8.949  14.980
23441TIP3   OH237393   2.337   9.278  14.978
23441TIP3    H137394   2.243   9.281  14.957
23441TIP3    H237395   2.373   9.237  14.897
23442TIP3   OH237396   2.978   7.978  15.086
23442TIP3    H137397   2.998   7.948  14.996
23442TIP3    H237398   3.064   8.000  15.126
23443TIP3   OH237399   3.526   7.943  14.842
23443TIP3    H137400   3.499   8.009  14.910
23443TIP3    H237401   3.559   8.000  14.773
23444TIP3   OH237402   3.123   8.223  14.974
23444TIP3    H137403   3.096   8.203  15.066
23444TIP3    H237404   3.073   8.156  14.923
23445TIP3   OH237405   3.404   8.499  14.976
23445TIP3    H137406   3.377   8.471  14.888
23445TIP3    H237407   3.453   8.581  14.954
23446TIP3   OH237408   1.810   9.247  15.012
23446TIP3    H137409   1.754   9.233  14.931
23446TIP3    H237410   1.885   9.297  14.973
23447TIP3   OH237411   2.825   8.969  15.134
23447TIP3    H137412   2.836   8.884  15.180
23447TIP3    H237413   2.801   8.949  15.042
23448TIP3   OH237414   2.689   9.062  14.860
23448TIP3    H137415   2.768   9.104  14.821
23448TIP3    H237416   2.621   9.127  14.831
23449TIP3   OH237417   2.879   9.253  14.789
23449TIP3    H137418   2.877   9.313  14.865
23449TIP3    H237419   2.807   9.289  14.733
23450TIP3   OH237420   3.256   8.905  14.967
23450TIP3    H137421   3.217   8.920  14.880
23450TIP3    H237422   3.182   8.869  15.016
23451TIP3   OH237423   3.450   8.177  15.010
23451TIP3    H137424   3.367   8.218  14.980
23451TIP3    H237425   3.480   8.243  15.075
23452TIP3   OH237426   2.614   9.171  15.125
23452TIP3    H137427   2.672   9.093  15.116
23452TIP3    H237428   2.538   9.134  15.175
23453TIP3   OH237429   2.147   9.088  15.113
23453TIP3    H137430   2.073   9.056  15.058
23453TIP3    H237431   2.095   9.124  15.189
23454TIP3   OH237432   2.513   8.852  15.169
23454TIP3    H137433   2.575   8.838  15.096
23454TIP3    H237434   2.501   8.761  15.202
23455TIP3   OH237435   3.515   8.907  15.025
23455TIP3    H137436   3.428   8.893  14.981
23455TIP3    H237437   3.535   8.819  15.059
23456TIP3   OH237438   1.743   8.440  14.920
23456TIP3    H137439   1.803   8.468  14.990
23456TIP3    H237440   1.784   8.475  14.839
23457TIP3   OH237441   1.960   8.155  15.072
23457TIP3    H137442   1.909   8.232  15.101
23457TIP3    H237443   2.004   8.130  15.154
23458TIP3   OH237444   1.816   7.825  14.941
23458TIP3    H137445   1.809   7.750  15.003
23458TIP3    H237446   1.838   7.899  15.000
23459TIP3   OH237447   2.642   9.376  14.925
23459TIP3    H137448   2.562   9.345  14.880
23459TIP3    H237449   2.649   9.309  14.995
23460TIP3   OH237450   3.362   9.238  15.127
23460TIP3    H137451   3.331   9.293  15.053
23460TIP3    H237452   3.316   9.153  15.113
23461TIP3   OH237453   0.160   7.696  14.919
23461TIP3    H137454   0.193   7.617  14.872
23461TIP3    H237455   0.071   7.698  14.883
23462TIP3   OH237456  -0.005   9.038  15.030
23462TIP3    H137457  -0.057   9.115  15.006
23462TIP3    H237458  -0.067   8.965  15.006
23463TIP3   OH237459   0.769   7.900  15.022
23463TIP3    H137460   0.726   7.893  14.935
23463TIP3    H237461   0.843   7.837  15.021
23464TIP3   OH237462   0.666   8.890  14.924
23464TIP3    H137463   0.640   8.968  14.873
23464TIP3    H237464   0.719   8.844  14.858
23465TIP3   OH237465   1.485   8.482  14.991
23465TIP3    H137466   1.484   8.479  14.894
23465TIP3    H237467   1.577   8.452  15.003
23466TIP3   OH237468   0.939   8.967  15.144
23466TIP3    H137469   0.934   8.886  15.197
23466TIP3    H237470   0.997   8.936  15.073
23467TIP3   OH237471   1.029   9.209  14.834
23467TIP3    H137472   0.946   9.160  14.844
23467TIP3    H237473   1.057   9.177  14.745
23468TIP3   OH237474   1.341   8.885  14.971
23468TIP3    H137475   1.289   8.963  14.953
23468TIP3    H237476   1.287   8.833  15.033
23469TIP3   OH237477   0.735   9.151  15.125
23469TIP3    H137478   0.789   9.070  15.115
23469TIP3    H237479   0.658   9.116  15.174
23470TIP3   OH237480   0.306   9.053  15.126
23470TIP3    H137481   0.259   9.083  15.047
23470TIP3    H237482   0.244   9.082  15.198
23471TIP3   OH237483   1.206   8.705  15.132
23471TIP3    H137484   1.251   8.620  15.118
23471TIP3    H237485   1.128   8.681  15.189
23472TIP3   OH237486   0.655   8.842  15.183
23472TIP3    H137487   0.665   8.857  15.086
23472TIP3    H237488   0.638   8.746  15.186
23473TIP3   OH237489   0.967   8.376  15.046
23473TIP3    H137490   0.984   8.401  15.138
23473TIP3    H237491   0.953   8.281  15.054
23474TIP3   OH237492   0.031   8.568  15.067
23474TIP3    H137493   0.073   8.525  15.143
23474TIP3    H237494   0.051   8.661  15.089
23475TIP3   OH237495   1.637   8.861  14.994
23475TIP3    H137496   1.540   8.857  14.991
23475TIP3    H237497   1.657   8.811  15.076
23476TIP3   OH237498   0.060   8.222  15.040
23476TIP3    H137499   0.048   8.254  15.131
23476TIP3    H237500   0.103   8.135  15.057
23477TIP3   OH237501   0.176   7.973  15.075
23477TIP3    H137502   0.128   7.897  15.038
23477TIP3    H237503   0.254   7.925  15.107
23478TIP3   OH237504   1.616   7.647  14.811
23478TIP3    H137505   1.584   7.610  14.894
23478TIP3    H237506   1.667   7.727  14.835
23479TIP3   OH237507   0.643   9.339  14.944
23479TIP3    H137508   0.590   9.292  14.875
23479TIP3    H237509   0.684   9.264  14.990
23480TIP3   OH237510   1.479   9.229  15.132
23480TIP3    H137511   1.540   9.252  15.060
23480TIP3    H237512   1.402   9.199  15.081
   9.35010   9.35010  17.00000
